9
 energy: -117.851282705573 gnorm: 0.013218110061 xtb: 6.7.1 (edcfbbe)
C           -0.46746583730715       -0.72696977972214       -0.00000373230000
C           -0.39585689287541        0.76831139244046        0.00001080960000
C            0.86332513128256       -0.04134779391832       -0.00001097950000
H           -0.78687567884869       -1.22337030454211       -0.90325377950026
H           -0.78670265984861       -1.22355203234219        0.90327228180026
H           -0.66618353929520        1.29313626347302       -0.90327023930026
H           -0.66619276539521        1.29306624467299        0.90332432050029
H            1.45291669064383       -0.06962627313085       -0.90329228120027
H            1.45300934004387       -0.06958024203083        0.90326619720026
9
 energy: -117.851589086794 gnorm: 0.006015582087 xtb: 6.7.1 (edcfbbe)
C           -0.46874929507685       -0.72890167271611        0.00000251776252
C           -0.39683332777308        0.77040176276352        0.00003014485301
C            0.86560666224421       -0.04156307377998       -0.00001955397863
H           -0.78647283252243       -1.22306783930191       -0.91166500064641
H           -0.78642022082099       -1.22312780905987        0.91166835230587
H           -0.66591599509373        1.29270102256700       -0.91161377350092
H           -0.66586638040641        1.29266909711031        0.91170646859703
H            1.45228445084268       -0.06950950146463       -0.91177145837055
H            1.45234073063937       -0.06953451049845        0.91170489133367
9
 energy: -117.851627607626 gnorm: 0.002672635484 xtb: 6.7.1 (edcfbbe)
C           -0.46957192587328       -0.73018404788132        0.00000401367953
C           -0.39748364028131        0.77177347653283        0.00003265932206
C            0.86714165535361       -0.04169341007212       -0.00002021099661
H           -0.78564940656430       -1.22184925175724       -0.91500418840645
H           -0.78560958681302       -1.22188274680346        0.91500486820756
H           -0.66522299762524        1.29138678430106       -0.91493737540448
H           -0.66516630587172        1.29135654502145        0.91503659783309
H            1.45074486865197       -0.06940023209210       -0.91515522454802
H            1.45079113508622       -0.06943963983487        0.91508144413853
9
 energy: -117.851631657905 gnorm: 0.000886476278 xtb: 6.7.1 (edcfbbe)
C           -0.46982607586850       -0.73059285409285        0.00000346826579
C           -0.39770019467359        0.77220359496348        0.00003160168774
C            0.86763036981781       -0.04172835039287       -0.00001979610701
H           -0.78519249880010       -1.22112977372923       -0.91548144214774
H           -0.78514539695680       -1.22116492038203        0.91548312279188
H           -0.66482631324637        1.29062871418870       -0.91541787743103
H           -0.66477358944552        1.29059463830304        0.91551586577071
H            1.44988049742478       -0.06935292801844       -0.91564257243961
H            1.44992699969351       -0.06939064240458        0.91557021231633
9
 energy: -117.851631657905 gnorm: 0.000886476278 xtb: 6.7.1 (edcfbbe)
C           -0.46982607586850       -0.73059285409285        0.00000346826579
C           -0.39770019467359        0.77220359496348        0.00003160168774
C            0.86763036981781       -0.04172835039287       -0.00001979610701
H           -0.78519249880010       -1.22112977372923       -0.91548144214774
H           -0.78514539695680       -1.22116492038203        0.91548312279188
H           -0.66482631324637        1.29062871418870       -0.91541787743103
H           -0.66477358944552        1.29059463830304        0.91551586577071
H            1.44988049742478       -0.06935292801844       -0.91564257243961
H            1.44992699969351       -0.06939064240458        0.91557021231633
