
                                 *****************
                                 * O   R   C   A *
                                 *****************

                                            #,                                       
                                            ###                                      
                                            ####                                     
                                            #####                                    
                                            ######                                   
                                           ########,                                 
                                     ,,################,,,,,                         
                               ,,#################################,,                 
                          ,,##########################################,,             
                       ,#########################################, ''#####,          
                    ,#############################################,,   '####,        
                  ,##################################################,,,,####,       
                ,###########''''           ''''###############################       
              ,#####''   ,,,,##########,,,,          '''####'''          '####       
            ,##' ,,,,###########################,,,                        '##       
           ' ,,###''''                  '''############,,,                           
         ,,##''                                '''############,,,,        ,,,,,,###''
      ,#''                                            '''#######################'''  
     '                                                          ''''####''''         
             ,#######,   #######,   ,#######,      ##                                
            ,#'     '#,  ##    ##  ,#'     '#,    #''#        ,####,   ,####,        
            ##       ##  ##   ,#'  ##            #'  '#       #'       #'  '#        
            ##       ##  #######   ##           ,######,      #####,   #    #        
            '#,     ,#'  ##    ##  '#,     ,#' ,#      #,     #,   #   #,  ,#        
             '#######'   ##     ##  '#######'  #'      '#     '####' # '####'        



                #########################################################
                #                        -***-                          #
                #          Department of theory and spectroscopy        #
                #                                                       #
                #                      Frank Neese                      #
                #                                                       #
                #     Directorship, Architecture, Infrastructure        #
                #                    SHARK, DRIVERS                     #
                #        Core code/Algorithms in most modules           #
                #                                                       #
                #        Max Planck Institute fuer Kohlenforschung      #
                #                Kaiser Wilhelm Platz 1                 #
                #                 D-45470 Muelheim/Ruhr                 #
                #                      Germany                          #
                #                                                       #
                #                  All rights reserved                  #
                #                        -***-                          #
                #########################################################


                         Program Version 6.0.0  -   RELEASE  -


 With contributions from (in alphabetic order):
   Daniel Aravena         : Magnetic Suceptibility
   Michael Atanasov       : Ab Initio Ligand Field Theory (pilot matlab implementation)
   Alexander A. Auer      : GIAO ZORA, VPT2 properties, NMR spectrum
   Ute Becker             : All parallelization in ORCA, NUMFREQ, NUMCALC
   Giovanni Bistoni       : ED, misc. LED, open-shell LED, HFLD
   Martin Brehm           : Molecular dynamics
   Dmytro Bykov           : pre 5.0 version of the SCF Hessian
   Marcos Casanova-Páez   : Triplet and SCS-CIS(D). UHF-(DLPNO)-IP/EA/STEOM-CCSD. UHF-CVS-IP/STEOM-CCSD
   Vijay G. Chilkuri      : MRCI spin determinant printing, contributions to CSF-ICE
   Pauline Colinet        : FMM embedding
   Dipayan Datta          : RHF DLPNO-CCSD density
   Achintya Kumar Dutta   : EOM-CC, STEOM-CC
   Nicolas Foglia         : Exact transition moments, OPA infrastructure, MCD improvements
   Dmitry Ganyushin       : Spin-Orbit,Spin-Spin,Magnetic field MRCI
   Miquel Garcia          : C-PCM and meta-GGA Hessian, CCSD/C-PCM, Gaussian charge scheme
   Tiago L. C. Gouveia    : GS-ROHF, GS-ROCIS
   Yang Guo               : DLPNO-NEVPT2, F12-NEVPT2, CIM, IAO-localization
   Andreas Hansen         : Spin unrestricted coupled pair/coupled cluster methods
   Ingolf Harden          : AUTO-CI MPn and infrastructure 
   Benjamin Helmich-Paris : MC-RPA, TRAH-(SCF,CASSCF), AVAS, COSX integrals, SCF dyn. polar.
   Lee Huntington         : MR-EOM, pCC
   Robert Izsak           : Overlap fitted RIJCOSX, COSX-SCS-MP3, EOM
   Riya Kayal             : Wick's Theorem for AUTO-CI, AUTO-CI UHF-CCSDT
   Emily Kempfer          : AUTO-CI, RHF CISDT and CCSDT
   Christian Kollmar      : KDIIS, OOCD, Brueckner-CCSD(T), CCSD density, CASPT2, CASPT2-K, improved NEVPT2
   Axel Koslowski         : Symmetry handling
   Simone Kossmann        : Meta GGA functionals, TD-DFT gradient, OOMP2, (MP2 Hessian; deprecated post 5.0)
   Lucas Lang             : DCDCAS
   Marvin Lechner         : AUTO-CI (C++ implementation), FIC-MRCC
   Spencer Leger          : CASSCF response
   Dagmar Lenk            : GEPOL surface, SMD, ORCA-2-JSON
   Dimitrios Liakos       : Extrapolation schemes; Compound Job, initial MDCI parallelization
   Dimitrios Manganas     : Further ROCIS development; embedding schemes. LFT, Crystal Embedding
   Dimitrios Pantazis     : SARC Basis sets
   Anastasios Papadopoulos: AUTO-CI, single reference methods and gradients
   Taras Petrenko         : pre 6.0 DFT Hessian and TD-DFT gradient, (ASA, deprecated), ECA, 1-Electron XAS/XES, NRVS
   Peter Pinski           : DLPNO-MP2, DLPNO-MP2 Gradient
   Christoph Reimann      : Effective Core Potentials
   Marius Retegan         : Local ZFS, SOC
   Christoph Riplinger    : Optimizer, TS searches, QM/MM, DLPNO-CCSD(T), (RO)-DLPNO pert. Triples
   Michael Roemelt        : Original ROCIS implementation
   Masaaki Saitow         : Open-shell DLPNO-CCSD energy and density
   Barbara Sandhoefer     : DKH picture change effects
   Kantharuban Sivalingam : CASSCF convergence/infrastructure, NEVPT2 and variants, FIC-MRCI
   Bernardo de Souza      : ESD, SOC TD-DFT
   Georgi Stoychev        : AutoAux, RI-MP2 NMR, DLPNO-MP2 response, X2C
   Van Anh Tran           : RI-MP2 g-tensors
   Willem Van den Heuvel  : Paramagnetic NMR
   Zikuan Wang            : NOTCH, Electric field optimization 
   Frank Wennmohs         : Technical directorship and infrastructure
   Hang Xu                : AUTO-CI-Response properties 


 We gratefully acknowledge several colleagues who have allowed us to
 interface, adapt or use parts of their codes:
   Stefan Grimme, W. Hujo, H. Kruse, P. Pracht,  : VdW corrections, initial TS optimization,
                  C. Bannwarth, S. Ehlert,         DFT functionals, gCP, sTDA/sTD-DF
                  L. Wittmann, M. Mueller
   Ed Valeev, F. Pavosevic, A. Kumar             : LibInt (2-el integral package), F12 methods
   Garnet Chan, S. Sharma, J. Yang, R. Olivares  : DMRG
   Ulf Ekstrom                                   : XCFun DFT Library
   Mihaly Kallay                                 : mrcc  (arbitrary order and MRCC methods)
   Frank Weinhold                                : gennbo (NPA and NBO analysis)
   Simon Mueller                                 : openCOSMO-RS
   Christopher J. Cramer and Donald G. Truhlar   : smd solvation model
   Lars Goerigk                                  : TD-DFT with DH, B97 family of functionals
   V. Asgeirsson, H. Jonsson                     : NEB implementation
   FAccTs GmbH                                   : IRC, NEB, NEB-TS, DLPNO-Multilevel, CI-OPT
                                                   MM, QMMM, 2- and 3-layer-ONIOM, Crystal-QMMM,
                                                   LR-CPCM, SF, NACMEs, symmetry and pop. for TD-DFT,
                                                   nearIR, NL-DFT gradient (VV10), updates on ESD,
                                                   ML-optimized integration grids, MBIS, APM,
                                                   GOAT, DOCKER, SOLVATOR, interface openCOSMO-RS
   S Lehtola, MJT Oliveira, MAL Marques          : LibXC Library
   Liviu Ungur et al                             : ANISO software


 Your calculation uses the libint2 library for the computation of 2-el integrals
 For citations please refer to: http://libint.valeyev.net

 Your ORCA version has been built with support for libXC version: 6.2.2
 For citations please refer to: https://libxc.gitlab.io

 This ORCA versions uses:
   CBLAS   interface :  Fast vector & matrix operations
   LAPACKE interface :  Fast linear algebra routines
   SCALAPACK package :  Parallel linear algebra routines
   Shared memory     :  Shared parallel matrices
   BLAS/LAPACK       :  OpenBLAS 0.3.27  USE64BITINT DYNAMIC_ARCH NO_AFFINITY SapphireRapids SINGLE_THREADED
        Core in use  :  SapphireRapids
   Copyright (c) 2011-2014, The OpenBLAS Project


Your calculation utilizes the geometrical counterpoise correction gCP
Please cite in your paper:
H.Kruse, S. Grimme J.Chem.Phys., 136, (2012), 154101 
   

Your calculation utilizes the atom-pairwise dispersion correction
based on EEQ partial charges (D4)


================================================================================

----- Orbital basis set information -----
Your calculation utilizes the basis: def2-mTZVPP
   Stefan Grimme, Andreas Hansen, Sebastian Ehlert, and Jan-Michael Mewes 
   J. Chem. Phys. 154, 064103 (2021). DOI: 10.1063/5.0040021

----- AuxJ basis set information -----
Your calculation utilizes the auxiliary basis: def2/J
   F. Weigend, Phys. Chem. Chem. Phys. 8, 1057 (2006).

================================================================================
                                        WARNINGS
                       Please study these warnings very carefully!
================================================================================

Using LibXC functional ID 497 : Re-regularized SCAN exchange by Furness et al
[ 1]  J. W. Furness, A. D. Kaplan, J. Ning, J. P. Perdew, and J. Sun.,  J. Phys. Chem. Lett. 11, 8208-8215 (2020)
[ 2]  J. W. Furness, A. D. Kaplan, J. Ning, J. P. Perdew, and J. Sun.,  J. Phys. Chem. Lett. 11, 9248-9248 (2020)
Using LibXC functional ID 498 : Re-regularized SCAN correlation by Furness et al
[ 1]  J. W. Furness, A. D. Kaplan, J. Ning, J. P. Perdew, and J. Sun.,  J. Phys. Chem. Lett. 11, 8208-8215 (2020)
[ 2]  J. W. Furness, A. D. Kaplan, J. Ning, J. P. Perdew, and J. Sun.,  J. Phys. Chem. Lett. 11, 9248-9248 (2020)
Using LibXC functional ID 497 : Re-regularized SCAN exchange by Furness et al
[ 1]  J. W. Furness, A. D. Kaplan, J. Ning, J. P. Perdew, and J. Sun.,  J. Phys. Chem. Lett. 11, 8208-8215 (2020)
[ 2]  J. W. Furness, A. D. Kaplan, J. Ning, J. P. Perdew, and J. Sun.,  J. Phys. Chem. Lett. 11, 9248-9248 (2020)
Using LibXC functional ID 498 : Re-regularized SCAN correlation by Furness et al
[ 1]  J. W. Furness, A. D. Kaplan, J. Ning, J. P. Perdew, and J. Sun.,  J. Phys. Chem. Lett. 11, 8208-8215 (2020)
[ 2]  J. W. Furness, A. D. Kaplan, J. Ning, J. P. Perdew, and J. Sun.,  J. Phys. Chem. Lett. 11, 9248-9248 (2020)

================================================================================
                                       INPUT FILE
================================================================================
NAME = sp_gas.inp
|  1> ! r2scan-3c def2/J RI DEFGRID2 scfconv6 printgap
|  2> %output
|  3>     printlevel normal
|  4> end
|  5> * xyz 0 1
|  6> C 1.0238013006 -3.1930169641 1.0559633161
|  7> C 1.9205397569 -2.1676824689 1.7208333972
|  8> O 1.5308674653 -0.8329913901 1.3174042264
|  9> P 2.3803961498 0.015725903 0.2828053764
| 10> S 3.1695336271 -0.9612231329 -1.2287075221
| 11> O 3.4492139892 0.6842077279 1.252553189
| 12> C 4.644183107 1.3188385143 0.7659518386
| 13> C 4.3408991475 2.5958774952 0.0092636193
| 14> S 0.9864452846 1.5374912135 -0.1481131394
| 15> C 0.230895525 0.7112317682 -1.5776893757
| 16> S -0.7102232428 -0.7617733091 -1.1282102632
| 17> P -2.5270339282 0.1978139101 -0.5098859723
| 18> S -2.7405459962 2.0649715697 -1.0472585456
| 19> O -2.6588631748 -0.1670524049 1.0367742134
| 20> C -1.7301399874 0.2016524484 2.069503878
| 21> C -1.7769462242 1.6814955726 2.3922012203
| 22> O -3.6691526131 -0.6794652607 -1.1399509652
| 23> C -3.7598193094 -2.1194391166 -0.9961720241
| 24> C -4.7003611234 -2.4920193075 0.1314632155
| 25> H 1.2925804669 -4.1845283615 1.405384669
| 26> H -0.0166365556 -2.9943544469 1.2969360809
| 27> H 1.1435415424 -3.1496946571 -0.0246333452
| 28> H 2.9680458441 -2.3337178489 1.4544481594
| 29> H 1.8119452909 -2.1793626717 2.8063900633
| 30> H 5.2246443919 1.5124775562 1.668867957
| 31> H 5.1763069348 0.6087184985 0.1246250357
| 32> H 3.7185181421 3.2533507754 0.6111652112
| 33> H 5.2706347557 3.1004406925 -0.2332938612
| 34> H 3.8136668326 2.3650971536 -0.915777263
| 35> H 1.0142751687 0.3839793666 -2.2605602991
| 36> H -0.4330275973 1.4414962968 -2.0414571623
| 37> H -2.0467231499 -0.3970721169 2.9260890161
| 38> H -0.7218889895 -0.098453872 1.7684535998
| 39> H -1.4285322657 2.2698106726 1.5453920574
| 40> H -2.7943598841 1.9827094264 2.6281520079
| 41> H -1.1343783945 1.8807119211 3.243892619
| 42> H -4.1394589479 -2.4638114555 -1.959768064
| 43> H -2.7566805706 -2.5230532066 -0.8328532076
| 44> H -4.7944508318 -3.5727029462 0.1722702881
| 45> H -4.3182661281 -2.1268862469 1.0806041325
| 46> H -5.6787153392 -2.0526219108 -0.0424443543
| 47> *
| 48> 
| 49>                          ****END OF INPUT****
================================================================================

                       ****************************
                       * Single Point Calculation *
                       ****************************

---------------------------------
CARTESIAN COORDINATES (ANGSTROEM)
---------------------------------
  C      1.023801   -3.193017    1.055963
  C      1.920540   -2.167682    1.720833
  O      1.530867   -0.832991    1.317404
  P      2.380396    0.015726    0.282805
  S      3.169534   -0.961223   -1.228708
  O      3.449214    0.684208    1.252553
  C      4.644183    1.318839    0.765952
  C      4.340899    2.595877    0.009264
  S      0.986445    1.537491   -0.148113
  C      0.230896    0.711232   -1.577689
  S     -0.710223   -0.761773   -1.128210
  P     -2.527034    0.197814   -0.509886
  S     -2.740546    2.064972   -1.047259
  O     -2.658863   -0.167052    1.036774
  C     -1.730140    0.201652    2.069504
  C     -1.776946    1.681496    2.392201
  O     -3.669153   -0.679465   -1.139951
  C     -3.759819   -2.119439   -0.996172
  C     -4.700361   -2.492019    0.131463
  H      1.292580   -4.184528    1.405385
  H     -0.016637   -2.994354    1.296936
  H      1.143542   -3.149695   -0.024633
  H      2.968046   -2.333718    1.454448
  H      1.811945   -2.179363    2.806390
  H      5.224644    1.512478    1.668868
  H      5.176307    0.608718    0.124625
  H      3.718518    3.253351    0.611165
  H      5.270635    3.100441   -0.233294
  H      3.813667    2.365097   -0.915777
  H      1.014275    0.383979   -2.260560
  H     -0.433028    1.441496   -2.041457
  H     -2.046723   -0.397072    2.926089
  H     -0.721889   -0.098454    1.768454
  H     -1.428532    2.269811    1.545392
  H     -2.794360    1.982709    2.628152
  H     -1.134378    1.880712    3.243893
  H     -4.139459   -2.463811   -1.959768
  H     -2.756681   -2.523053   -0.832853
  H     -4.794451   -3.572703    0.172270
  H     -4.318266   -2.126886    1.080604
  H     -5.678715   -2.052622   -0.042444

----------------------------
CARTESIAN COORDINATES (A.U.)
----------------------------
  NO LB      ZA    FRAG     MASS         X           Y           Z
   0 C     6.0000    0    12.011    1.934704   -6.033928    1.995481
   1 C     6.0000    0    12.011    3.629294   -4.096326    3.251904
   2 O     8.0000    0    15.999    2.892920   -1.574126    2.489533
   3 P    15.0000    0    30.974    4.498297    0.029718    0.534425
   4 S    16.0000    0    32.060    5.989551   -1.816448   -2.321921
   5 O     8.0000    0    15.999    6.518070    1.292965    2.366982
   6 C     6.0000    0    12.011    8.776234    2.492244    1.447439
   7 C     6.0000    0    12.011    8.203111    4.905498    0.017506
   8 S    16.0000    0    32.060    1.864111    2.905437   -0.279893
   9 C     6.0000    0    12.011    0.436329    1.344033   -2.981401
  10 S    16.0000    0    32.060   -1.342127   -1.439543   -2.132008
  11 P    15.0000    0    30.974   -4.775402    0.373814   -0.963545
  12 S    16.0000    0    32.060   -5.178881    3.902231   -1.979032
  13 O     8.0000    0    15.999   -5.024523   -0.315683    1.959219
  14 C     6.0000    0    12.011   -3.269491    0.381068    3.910796
  15 C     6.0000    0    12.011   -3.357942    3.177566    4.520605
  16 O     8.0000    0    15.999   -6.933694   -1.284003   -2.154195
  17 C     6.0000    0    12.011   -7.105029   -4.005159   -1.882492
  18 C     6.0000    0    12.011   -8.882395   -4.709234    0.248429
  19 H     1.0000    0     1.008    2.442623   -7.907613    2.655792
  20 H     1.0000    0     1.008   -0.031439   -5.658510    2.450854
  21 H     1.0000    0     1.008    2.160980   -5.952060   -0.046550
  22 H     1.0000    0     1.008    5.608794   -4.410088    2.748509
  23 H     1.0000    0     1.008    3.424080   -4.118399    5.303309
  24 H     1.0000    0     1.008    9.873147    2.858168    3.153703
  25 H     1.0000    0     1.008    9.781802    1.150311    0.235507
  26 H     1.0000    0     1.008    7.026981    6.147942    1.154935
  27 H     1.0000    0     1.008    9.960056    5.858984   -0.440862
  28 H     1.0000    0     1.008    7.206786    4.469386   -1.730568
  29 H     1.0000    0     1.008    1.916702    0.725616   -4.271840
  30 H     1.0000    0     1.008   -0.818304    2.724033   -3.857795
  31 H     1.0000    0     1.008   -3.867746   -0.750358    5.529507
  32 H     1.0000    0     1.008   -1.364172   -0.186051    3.341893
  33 H     1.0000    0     1.008   -2.699535    4.289321    2.920368
  34 H     1.0000    0     1.008   -5.280575    3.746778    4.966488
  35 H     1.0000    0     1.008   -2.143664    3.554030    6.130069
  36 H     1.0000    0     1.008   -7.822444   -4.655929   -3.703425
  37 H     1.0000    0     1.008   -5.209371   -4.767880   -1.573864
  38 H     1.0000    0     1.008   -9.060199   -6.751430    0.325544
  39 H     1.0000    0     1.008   -8.160340   -4.019233    2.042046
  40 H     1.0000    0     1.008  -10.731217   -3.878893   -0.080208

--------------------------------
INTERNAL COORDINATES (ANGSTROEM)
--------------------------------
 C      0   0   0     0.000000000000     0.00000000     0.00000000
 C      1   0   0     1.515751599305     0.00000000     0.00000000
 O      2   1   0     1.447756839570   110.00833835     0.00000000
 P      3   2   1     1.585059875783   122.09061179   254.61486973
 S      4   3   2     1.965156130987   116.81271332    38.50564916
 O      4   3   2     1.590487454865   100.79194582   274.32603575
 C      6   4   3     1.437876316570   122.52374883   165.52557659
 C      7   6   4     1.515053391817   112.00492298    68.52269008
 S      4   3   2     2.108212380689    99.52859748   166.49971136
 C      9   4   3     1.815832681051    96.17618710   268.28096428
 S     10   9   4     1.804849014580   113.09570129    68.34697739
 P     11  10   9     2.145677894408    98.52799415    81.38748502
 S     12  11  10     1.954644318417   116.13377535    15.28530499
 O     12  11  10     1.594573331055   104.31093616   243.01890714
 C     14  12  11     1.437010990844   125.79807719    61.91679318
 C     15  14  12     1.515341569011   112.55974456    71.41221206
 O     12  11  10     1.571952839367   104.48412549   136.74965620
 C     17  12  11     1.449971565031   124.05035001    51.20113502
 C     18  17  12     1.514924465484   110.90843216    96.69016241
 H      1   2   3     1.085095559512   109.28810508   182.88543885
 H      1   2   3     1.086299038815   110.21985613   303.20212114
 H      1   2   3     1.088073385486   110.09557768    62.94375982
 H      2   1   3     1.093525420395   110.92545120   238.99289237
 H      2   1   3     1.091037332312   111.73474283   116.32276724
 H      7   6   4     1.090728609088   103.91523807   189.29561740
 H      7   6   4     1.094863586512   108.41375258   306.24356631
 H      8   7   6     1.087159029945   110.35513394    52.71790220
 H      8   7   6     1.085277131691   109.39100417   173.19118903
 H      8   7   6     1.089465058582   110.02273729   292.73265407
 H     10   9   4     1.089536827529   109.32559249   309.73424104
 H     10   9   4     1.090486475819   106.46499599   188.73027946
 H     15  14  12     1.091986310668   103.63253318   191.49592203
 H     15  14  12     1.094196119676   109.11248134   307.99823339
 H     16  15  14     1.088389958488   110.62808783   293.79681569
 H     16  15  14     1.086983493546   110.22790759    53.90665824
 H     16  15  14     1.085338107640   109.15198313   174.14477828
 H     18  17  12     1.091437534186   104.33265303   216.64764264
 H     18  17  12     1.093555987936   108.90430388   333.54551681
 H     19  18  17     1.085539136722   109.06457407   176.47333964
 H     19  18  17     1.086364219634   110.44462504   296.73740719
 H     19  18  17     1.086503974514   109.90418171    56.66444552

---------------------------
INTERNAL COORDINATES (A.U.)
---------------------------
 C      0   0   0     0.000000000000     0.00000000     0.00000000
 C      1   0   0     2.864355409740     0.00000000     0.00000000
 O      2   1   0     2.735863935299   110.00833835     0.00000000
 P      3   2   1     2.995329071097   122.09061179   254.61486973
 S      4   3   2     3.713606897962   116.81271332    38.50564916
 O      4   3   2     3.005585709133   100.79194582   274.32603575
 C      6   4   3     2.717192452769   122.52374883   165.52557659
 C      7   6   4     2.863035988802   112.00492298    68.52269008
 S      4   3   2     3.983944031645    99.52859748   166.49971136
 C      9   4   3     3.431426472210    96.17618710   268.28096428
 S     10   9   4     3.410670350634   113.09570129    68.34697739
 P     11  10   9     4.054743592041    98.52799415    81.38748502
 S     12  11  10     3.693742451033   116.13377535    15.28530499
 O     12  11  10     3.013306896148   104.31093616   243.01890714
 C     14  12  11     2.715557224130   125.79807719    61.91679318
 C     15  14  12     2.863580564777   112.55974456    71.41221206
 O     12  11  10     2.970560361844   104.48412549   136.74965620
 C     17  12  11     2.740049159881   124.05035001    51.20113502
 C     18  17  12     2.862792353341   110.90843216    96.69016241
 H      1   2   3     2.050533436612   109.28810508   182.88543885
 H      1   2   3     2.052807682902   110.21985613   303.20212114
 H      1   2   3     2.056160712177   110.09557768    62.94375982
 H      2   1   3     2.066463565028   110.92545120   238.99289237
 H      2   1   3     2.061761759953   111.73474283   116.32276724
 H      7   6   4     2.061178357608   103.91523807   189.29561740
 H      7   6   4     2.068992332511   108.41375258   306.24356631
 H      8   7   6     2.054432830616   110.35513394    52.71790220
 H      8   7   6     2.050876558303   109.39100417   173.19118903
 H      8   7   6     2.058790593196   110.02273729   292.73265407
 H     10   9   4     2.058926216851   109.32559249   309.73424104
 H     10   9   4     2.060720792043   106.46499599   188.73027946
 H     15  14  12     2.063555069153   103.63253318   191.49592203
 H     15  14  12     2.067731002988   109.11248134   307.99823339
 H     16  15  14     2.056758948452   110.62808783   293.79681569
 H     16  15  14     2.054101114895   110.22790759    53.90665824
 H     16  15  14     2.050991786147   109.15198313   174.14477828
 H     18  17  12     2.062518031895   104.33265303   216.64764264
 H     18  17  12     2.066521329309   108.90430388   333.54551681
 H     19  18  17     2.051371676058   109.06457407   176.47333964
 H     19  18  17     2.052930856799   110.44462504   296.73740719
 H     19  18  17     2.053194955248   109.90418171    56.66444552

---------------------
BASIS SET INFORMATION
---------------------
There are 5 groups of distinct atoms

 Group   1 Type C   : 11s6p1d contracted to 5s3p1d pattern {62111/411/1}
 Group   2 Type O   : 11s6p2d contracted to 5s3p2d pattern {62111/411/11}
 Group   3 Type P   : 14s9p2d contracted to 5s4p2d pattern {73211/6111/11}
 Group   4 Type S   : 14s9p2d contracted to 5s4p2d pattern {73211/6111/11}
 Group   5 Type H   : 4s1p contracted to 2s1p pattern {31/1}

Atom   0C    basis set group =>   1
Atom   1C    basis set group =>   1
Atom   2O    basis set group =>   2
Atom   3P    basis set group =>   3
Atom   4S    basis set group =>   4
Atom   5O    basis set group =>   2
Atom   6C    basis set group =>   1
Atom   7C    basis set group =>   1
Atom   8S    basis set group =>   4
Atom   9C    basis set group =>   1
Atom  10S    basis set group =>   4
Atom  11P    basis set group =>   3
Atom  12S    basis set group =>   4
Atom  13O    basis set group =>   2
Atom  14C    basis set group =>   1
Atom  15C    basis set group =>   1
Atom  16O    basis set group =>   2
Atom  17C    basis set group =>   1
Atom  18C    basis set group =>   1
Atom  19H    basis set group =>   5
Atom  20H    basis set group =>   5
Atom  21H    basis set group =>   5
Atom  22H    basis set group =>   5
Atom  23H    basis set group =>   5
Atom  24H    basis set group =>   5
Atom  25H    basis set group =>   5
Atom  26H    basis set group =>   5
Atom  27H    basis set group =>   5
Atom  28H    basis set group =>   5
Atom  29H    basis set group =>   5
Atom  30H    basis set group =>   5
Atom  31H    basis set group =>   5
Atom  32H    basis set group =>   5
Atom  33H    basis set group =>   5
Atom  34H    basis set group =>   5
Atom  35H    basis set group =>   5
Atom  36H    basis set group =>   5
Atom  37H    basis set group =>   5
Atom  38H    basis set group =>   5
Atom  39H    basis set group =>   5
Atom  40H    basis set group =>   5
---------------------------------
AUXILIARY/J BASIS SET INFORMATION
---------------------------------
There are 5 groups of distinct atoms

 Group   1 Type C   : 12s5p4d2f1g contracted to 6s4p3d1f1g pattern {711111/2111/211/2/1}
 Group   2 Type O   : 12s5p4d2f1g contracted to 6s4p3d1f1g pattern {711111/2111/211/2/1}
 Group   3 Type P   : 14s5p5d2f1g contracted to 8s4p3d1f1g pattern {71111111/2111/311/2/1}
 Group   4 Type S   : 14s5p5d2f1g contracted to 8s4p3d1f1g pattern {71111111/2111/311/2/1}
 Group   5 Type H   : 5s2p1d contracted to 3s1p1d pattern {311/2/1}

Atom   0C    basis set group =>   1
Atom   1C    basis set group =>   1
Atom   2O    basis set group =>   2
Atom   3P    basis set group =>   3
Atom   4S    basis set group =>   4
Atom   5O    basis set group =>   2
Atom   6C    basis set group =>   1
Atom   7C    basis set group =>   1
Atom   8S    basis set group =>   4
Atom   9C    basis set group =>   1
Atom  10S    basis set group =>   4
Atom  11P    basis set group =>   3
Atom  12S    basis set group =>   4
Atom  13O    basis set group =>   2
Atom  14C    basis set group =>   1
Atom  15C    basis set group =>   1
Atom  16O    basis set group =>   2
Atom  17C    basis set group =>   1
Atom  18C    basis set group =>   1
Atom  19H    basis set group =>   5
Atom  20H    basis set group =>   5
Atom  21H    basis set group =>   5
Atom  22H    basis set group =>   5
Atom  23H    basis set group =>   5
Atom  24H    basis set group =>   5
Atom  25H    basis set group =>   5
Atom  26H    basis set group =>   5
Atom  27H    basis set group =>   5
Atom  28H    basis set group =>   5
Atom  29H    basis set group =>   5
Atom  30H    basis set group =>   5
Atom  31H    basis set group =>   5
Atom  32H    basis set group =>   5
Atom  33H    basis set group =>   5
Atom  34H    basis set group =>   5
Atom  35H    basis set group =>   5
Atom  36H    basis set group =>   5
Atom  37H    basis set group =>   5
Atom  38H    basis set group =>   5
Atom  39H    basis set group =>   5
Atom  40H    basis set group =>   5

Checking for AutoStart:
The File: sp_gas.gbw exists
Trying to determine its content:
     ... Fine, the file contains calculation information
     ... Fine, the calculation information was read
     ... Fine, the file contains a basis set
     ... Fine, the basis set was read
     ... Fine, the file contains a geometry
     ... Fine, the geometry was read
     ... Fine, the file contains a set of orbitals
     ... Fine, the orbitals can be read
     => possible old guess file was deleted
     => GBW file was renamed to GES file
     => GES file is set as startup file
     => Guess is set to MORead
     ... now leaving AutoStart

------------------------------------------------------------------------------
                             ORCA STARTUP CALCULATIONS
                           -- RI-GTO INTEGRALS CHOSEN --
------------------------------------------------------------------------------
------------------------------------------------------------------------------
                   ___                                                        
                  /   \      - P O W E R E D   B Y -                         
                 /     \                                                     
                 |  |  |   _    _      __       _____    __    __             
                 |  |  |  | |  | |    /  \     |  _  \  |  |  /  |          
                  \  \/   | |  | |   /    \    | | | |  |  | /  /          
                 / \  \   | |__| |  /  /\  \   | |_| |  |  |/  /          
                |  |  |   |  __  | /  /__\  \  |    /   |      \           
                |  |  |   | |  | | |   __   |  |    \   |  |\   \          
                \     /   | |  | | |  |  |  |  | |\  \  |  | \   \       
                 \___/    |_|  |_| |__|  |__|  |_| \__\ |__|  \__/        
                                                                              
                      - O R C A' S   B I G   F R I E N D -                    
                                      &                                       
                       - I N T E G R A L  F E E D E R -                       
                                                                              
 v1 FN, 2020, v2 2021, v3 2022-2024                                           
------------------------------------------------------------------------------


----------------------
SHARK INTEGRAL PACKAGE
----------------------

Number of atoms                             ...     41
Number of basis functions                   ...    539
Number of shells                            ...    253
Maximum angular momentum                    ...      2
Integral batch strategy                     ... SHARK/LIBINT Hybrid
RI-J (if used) integral strategy            ... SPLIT-RIJ (Revised 2003 algorithm where possible)
Printlevel                                  ...      1
Contraction scheme used                     ... SEGMENTED contraction
Prescreening option                         ... SCHWARTZ
   Thresh                                   ... 1.000e-10
   Tcut                                     ... 1.000e-11
   Tpresel                                  ... 1.000e-11 
Coulomb Range Separation                    ... NOT USED
Exchange Range Separation                   ... NOT USED
Multipole approximations                    ... NOT USED
Finite Nucleus Model                        ... NOT USED
CABS basis                                  ... NOT available
Auxiliary Coulomb fitting basis             ... AVAILABLE
   # of basis functions in Aux-J            ...   1185
   # of shells in Aux-J                     ...    407
   Maximum angular momentum in Aux-J        ...      4
Auxiliary J/K fitting basis                 ... NOT available
Auxiliary Correlation fitting basis         ... NOT available
Auxiliary 'external' fitting basis          ... NOT available

Checking pre-screening integrals            ... done (  0.0 sec) Dimension = 253
Check shell pair data                       ... done (  0.0 sec)
Shell pair information
Shell pair cut-off parameter TPreSel        ...   1.0e-11
Total number of shell pairs                 ...     32131
Shell pairs after pre-screening             ...     21539
Total number of primitive shell pairs       ...    124843
Primitive shell pairs kept                  ...     50266
          la=0 lb=0:   6121 shell pairs
          la=1 lb=0:   7831 shell pairs
          la=1 lb=1:   2552 shell pairs
          la=2 lb=0:   2857 shell pairs
          la=2 lb=1:   1830 shell pairs
          la=2 lb=2:    348 shell pairs

Calculating one electron integrals          ... done (  0.1 sec)
Calculating RI/J V-Matrix + Cholesky decomp.... done (  0.1 sec)
Calculating Nuclear repulsion               ... done (  0.0 sec) ENN=   2767.821015432552 Eh

Diagonalization of the overlap matrix:
Smallest eigenvalue                        ... 2.536e-04
Time for diagonalization                   ...    0.031 sec
Threshold for overlap eigenvalues          ... 1.000e-07
Number of eigenvalues below threshold      ... 0
Time for construction of square roots      ...    0.053 sec
Total time needed                          ...    0.092 sec

-------------------
DFT GRID GENERATION
-------------------

General Integration Accuracy     IntAcc      ... 4.388
Radial Grid Type                 RadialGrid  ... OptM3 with GC (2021)
Angular Grid (max. ang.)         AngularGrid ... 4 (Lebedev-302)
Angular grid pruning method      GridPruning ... 4 (adaptive)
Weight generation scheme         WeightScheme... mBecke (2022)
Basis function cutoff            BFCut       ... 1.0000e-10
Integration weight cutoff        WCut        ... 1.0000e-14
Partially contracted basis set               ... off
Rotationally invariant grid construction     ... off
Angular grids for H and He will be reduced by one unit
Diffuse basis detected: some atoms will have their outermost
                        angular grid increased by 1.

Total number of grid points                  ...   192456
Total number of batches                      ...     3027
Average number of points per batch           ...       63
Average number of grid points per atom       ...     4694
Initializing property integral containers    ... done (  0.0 sec)

SHARK setup successfully completed in   3.1 seconds

Maximum memory used throughout the entire STARTUP-calculation: 102.0 MB
-------------------------------------------------------------------------------
                                 ORCA GUESS
                   Start orbitals & Density for SCF / CASSCF
-------------------------------------------------------------------------------

------------
SCF SETTINGS
------------
Hamiltonian:
 Density Functional     Method          .... DFT(GTOs)
  Functional kind                       .... Exchange
  Functional name                       .... Re-regularized SCAN exchange by Furness et al
  Functional family                     .... MGGA
  Functional refs                              
    [ 0] J. W. Furness, A. D. Kaplan, J. Ning, J. P. Perdew, and J. Sun.,  J. Phys. Chem. Lett. 11, 8208-8215 (2020), doi: 10.1021/acs.jpclett.0c02405
    [ 1] J. W. Furness, A. D. Kaplan, J. Ning, J. P. Perdew, and J. Sun.,  J. Phys. Chem. Lett. 11, 9248-9248 (2020), doi: 10.1021/acs.jpclett.0c03077
  Functional external parameters        .... 6
    Parameter  0 _c1        =  6.670000e-01 : c1 parameter        
    Parameter  1 _c2        =  8.000000e-01 : c2 parameter        
    Parameter  2 _d         =  1.240000e+00 : d parameter         
    Parameter  3 _k1        =  6.500000e-02 : k1 parameter        
    Parameter  4 _eta       =  1.000000e-03 : eta parameter       
    Parameter  5 _dp2       =  3.610000e-01 : dp2 parameter       
  Functional kind                       .... Correlation
  Functional name                       .... Re-regularized SCAN correlation by Furness et al
  Functional family                     .... MGGA
  Functional refs                              
    [ 0] J. W. Furness, A. D. Kaplan, J. Ning, J. P. Perdew, and J. Sun.,  J. Phys. Chem. Lett. 11, 8208-8215 (2020), doi: 10.1021/acs.jpclett.0c02405
    [ 1] J. W. Furness, A. D. Kaplan, J. Ning, J. P. Perdew, and J. Sun.,  J. Phys. Chem. Lett. 11, 9248-9248 (2020), doi: 10.1021/acs.jpclett.0c03077
  Functional external parameters        .... 1
    Parameter  0 _eta       =  1.000000e-03 : Regularization parameter
 Gradients option       PostSCFGGA      .... off
 RI-approximation to the Coulomb term is turned on
   Number of AuxJ basis functions       .... 1185


General Settings:
 Integral files         IntName         .... sp_gas
 Hartree-Fock type      HFTyp           .... RHF
 Total Charge           Charge          ....    0
 Multiplicity           Mult            ....    1
 Number of Electrons    NEL             ....  202
 Basis Dimension        Dim             ....  539
 Nuclear Repulsion      ENuc            ....   2767.8210154326 Eh

Convergence Acceleration:
 AO-DIIS                CNVDIIS         .... on
   Start iteration      DIISMaxIt       ....    12
   Startup error        DIISStart       ....  0.200000
   # of expansion vecs  DIISMaxEq       ....     5
   Bias factor          DIISBfac        ....   1.050
   Max. coefficient     DIISMaxC        ....  10.000
 MO-DIIS                CNVKDIIS        .... off
 Trust-Rad. Augm. Hess. CNVTRAH         .... auto
   Auto Start mean grad. ratio tolernc. ....  1.125000
   Auto Start start iteration           ....     1
   Auto Start num. interpolation iter.  ....    10
   Max. Number of Micro iterations      ....    24
   Max. Number of Macro iterations      .... Maxiter - #DIIS iter
   Number of Davidson start vectors     ....     2
   Converg. threshold    (grad. norm)   ....   3.330e-04
   Grad. Scal. Fac. for Micro threshold ....   0.100
   Minimum threshold for Micro iter.    ....   1.000e-02
   NR start threshold (gradient norm)   ....   1.000e-04
   Initial trust radius                 ....   0.400
   Minimum AH scaling param. (alpha)    ....   1.000
   Maximum AH scaling param. (alpha)    .... 1000.000
   Quad. conv. algorithm                .... NR
   White noise on init. David. guess    .... on
   Maximum white noise                  ....   0.010
   Pseudo random numbers                .... off
   Inactive MOs                         .... canonical
   Orbital update algorithm             .... Taylor
   Preconditioner                       .... Diag
   Full preconditioner red. dimension   ....   250
   COSX micro iterations for RIJONX calc.... off
 SOSCF                  CNVSOSCF        .... on
   Start iteration      SOSCFMaxIt      ....   150
   Startup grad/error   SOSCFStart      ....  0.003300
   Hessian update       SOSCFHessUp     .... L-BFGS
 Level Shifting         CNVShift        .... on
   Level shift para.    LevelShift      ....    0.2500
   Turn off err/grad.   ShiftErr        ....    0.0010
 Zerner damping         CNVZerner       .... off
 Static damping         CNVDamp         .... on
   Fraction old density DampFac         ....    0.7000
   Max. Damping (<1)    DampMax         ....    0.9800
   Min. Damping (>=0)   DampMin         ....    0.0000
   Turn off err/grad.   DampErr         ....    0.1000

SCF Procedure:
 Maximum # iterations   MaxIter         ....   125
 SCF integral mode      SCFMode         .... Direct
   Integral package                     .... SHARK and LIBINT hybrid scheme
 Reset frequency        DirectResetFreq ....    20
 Integral Threshold     Thresh          ....  1.000e-10 Eh
 Primitive CutOff       TCut            ....  1.000e-11 Eh

Convergence Tolerance:
 Convergence Check Mode ConvCheckMode   .... Total+1el-Energy
 Convergence forced     ConvForced      .... 0
 Energy Change          TolE            ....  1.000e-06 Eh
 1-El. energy change                    ....  1.000e-03 Eh
 Orbital Gradient       TolG            ....  3.330e-04
 Orbital Rotation angle TolX            ....  3.330e-04
 DIIS Error             TolErr          ....  1.000e-06

---------------------
INITIAL GUESS: MOREAD
---------------------
Guess MOs are being read from file: sp_gas.ges
Input Geometry matches current geometry (good)
Atom 0: N(Shells)= 9 and 6 - projection required
Input basis set needs projection
NBasis(read)= 334
NBasis(calc)= 539
Basis set overlap was calculated
Using GuessMode=FMatrix for the initial guess
C*T matrix was formed
Effective Fockian was calculated
Effective Fockian was diagonalized
Initial density was built
                      ------------------
                      INITIAL GUESS DONE (   0.2 sec)
                      ------------------
             **** ENERGY FILE WAS UPDATED (sp_gas.en.tmp) ****
Finished Guess after   0.6 sec
Maximum memory used throughout the entire GUESS-calculation: 59.0 MB

-------------------------------------------------------------------------------------------
                                      ORCA LEAN-SCF
                              memory conserving SCF solver
-------------------------------------------------------------------------------------------

----------------------------------------D-I-I-S--------------------------------------------
Iteration    Energy (Eh)           Delta-E    RMSDP     MaxDP     DIISErr   Damp  Time(sec)
-------------------------------------------------------------------------------------------
               ***  Starting incremental Fock matrix formation  ***
    1    -2932.0076261435669949     0.00e+00  2.23e-03  1.14e-01  6.34e-01  0.700   9.3
    2    -2932.1500740862820749    -1.42e-01  1.82e-03  7.53e-02  4.45e-01  0.700   7.4
    3    -2932.2507031288660073    -1.01e-01  1.33e-03  5.31e-02  3.12e-01  0.700   7.4
    4    -2932.3213027420051731    -7.06e-02  9.54e-04  3.77e-02  2.19e-01  0.700   7.1
                               ***Turning on AO-DIIS***
    5    -2932.3707983131198489    -4.95e-02  6.89e-04  2.69e-02  1.53e-01  0.700   7.3
    6    -2932.4054795150968857    -3.47e-02  4.88e-04  1.90e-02  1.07e-01  0.700   6.9
    7    -2932.4297861249006019    -2.43e-02  3.43e-04  1.33e-02  7.50e-02  0.700   6.8
    8    -2932.4468135443321444    -1.70e-02  8.04e-04  3.12e-02  5.25e-02  0.000   6.6
                              *** Initializing SOSCF ***
---------------------------------------S-O-S-C-F--------------------------------------
Iteration    Energy (Eh)           Delta-E    RMSDP     MaxDP     MaxGrad    Time(sec)
--------------------------------------------------------------------------------------
    9    -2932.4865865864076113    -3.98e-02  4.81e-06  2.00e-04  1.33e-04     7.2
               *** Restarting incremental Fock matrix formation ***
   10    -2932.4865873168719190    -7.30e-07  4.16e-06  1.99e-04  3.07e-05     8.9
                  *** Gradient check signals convergence ***

               *****************************************************
               *                     SUCCESS                       *
               *           SCF CONVERGED AFTER  10 CYCLES          *
               *****************************************************

             **** ENERGY FILE WAS UPDATED (sp_gas.en.tmp) ****

----------------
TOTAL SCF ENERGY
----------------

Total Energy       :      -2932.48658731687192 Eh          -79797.01684 eV

Components:
Nuclear Repulsion  :       2767.82101543255249 Eh           75316.23883 eV
Electronic Energy  :      -5700.30760274942440 Eh         -155113.25568 eV
One Electron Energy:      -9556.24481159882089 Eh         -260038.64143 eV
Two Electron Energy:       3855.93720884939694 Eh          104925.38576 eV

Virial components:
Potential Energy   :      -5856.15053264971812 Eh         -159353.95739 eV
Kinetic Energy     :       2923.66394533284620 Eh           79556.94055 eV
Virial Ratio       :          2.00301766623969

DFT components:
N(Alpha)           :      101.000046863467 electrons
N(Beta)            :      101.000046863467 electrons
N(Total)           :      202.000093726934 electrons
E(X)               :     -233.535477244251 Eh       
E(C)               :       -7.120397646491 Eh       
E(XC)              :     -240.655874890742 Eh       

---------------
SCF CONVERGENCE
---------------

  Last Energy change         ...    7.3046e-07  Tolerance :   1.0000e-06
  Last MAX-Density change    ...    1.9866e-04  Tolerance :   1.0000e-05
  Last RMS-Density change    ...    4.1571e-06  Tolerance :   1.0000e-06
  Last DIIS Error            ...    1.3350e-04  Tolerance :   1.0000e-06
  Last Orbital Gradient      ...    3.0721e-05  Tolerance :   3.3300e-04
  Last Orbital Rotation      ...    7.6827e-05  Tolerance :   3.3300e-04


----------------
ORBITAL ENERGIES
----------------

  NO   OCC          E(Eh)            E(eV) 
   0   2.0000     -88.579733     -2410.3771 
   1   2.0000     -88.574109     -2410.2240 
   2   2.0000     -88.526632     -2408.9321 
   3   2.0000     -88.519204     -2408.7300 
   4   2.0000     -76.918734     -2093.0652 
   5   2.0000     -76.914011     -2092.9366 
   6   2.0000     -18.997057      -516.9362 
   7   2.0000     -18.994223      -516.8591 
   8   2.0000     -18.991125      -516.7748 
   9   2.0000     -18.990927      -516.7694 
  10   2.0000     -10.106539      -275.0129 
  11   2.0000     -10.104649      -274.9615 
  12   2.0000     -10.104491      -274.9572 
  13   2.0000     -10.101438      -274.8741 
  14   2.0000     -10.094728      -274.6915 
  15   2.0000     -10.033457      -273.0242 
  16   2.0000     -10.031697      -272.9763 
  17   2.0000     -10.031231      -272.9637 
  18   2.0000     -10.020005      -272.6582 
  19   2.0000      -7.874045      -214.2637 
  20   2.0000      -7.868428      -214.1108 
  21   2.0000      -7.821342      -212.8295 
  22   2.0000      -7.814049      -212.6311 
  23   2.0000      -6.597329      -179.5224 
  24   2.0000      -6.592211      -179.3832 
  25   2.0000      -5.820877      -158.3941 
  26   2.0000      -5.817972      -158.3151 
  27   2.0000      -5.815316      -158.2428 
  28   2.0000      -5.812238      -158.1590 
  29   2.0000      -5.811135      -158.1290 
  30   2.0000      -5.805568      -157.9775 
  31   2.0000      -5.768956      -156.9813 
  32   2.0000      -5.761861      -156.7882 
  33   2.0000      -5.761728      -156.7846 
  34   2.0000      -5.761290      -156.7727 
  35   2.0000      -5.754345      -156.5837 
  36   2.0000      -5.753859      -156.5705 
  37   2.0000      -4.742807      -129.0584 
  38   2.0000      -4.742205      -129.0420 
  39   2.0000      -4.741113      -129.0122 
  40   2.0000      -4.737904      -128.9249 
  41   2.0000      -4.737301      -128.9085 
  42   2.0000      -4.735663      -128.8639 
  43   2.0000      -1.054413       -28.6920 
  44   2.0000      -1.050455       -28.5843 
  45   2.0000      -1.014729       -27.6122 
  46   2.0000      -1.009119       -27.4595 
  47   2.0000      -0.803110       -21.8537 
  48   2.0000      -0.761560       -20.7231 
  49   2.0000      -0.753003       -20.4903 
  50   2.0000      -0.734286       -19.9809 
  51   2.0000      -0.731737       -19.9116 
  52   2.0000      -0.712699       -19.3935 
  53   2.0000      -0.687322       -18.7030 
  54   2.0000      -0.672660       -18.3040 
  55   2.0000      -0.633449       -17.2370 
  56   2.0000      -0.619214       -16.8497 
  57   2.0000      -0.611679       -16.6446 
  58   2.0000      -0.608567       -16.5600 
  59   2.0000      -0.593576       -16.1520 
  60   2.0000      -0.533600       -14.5200 
  61   2.0000      -0.524198       -14.2642 
  62   2.0000      -0.495344       -13.4790 
  63   2.0000      -0.493769       -13.4361 
  64   2.0000      -0.478182       -13.0120 
  65   2.0000      -0.466421       -12.6920 
  66   2.0000      -0.463321       -12.6076 
  67   2.0000      -0.455155       -12.3854 
  68   2.0000      -0.445778       -12.1302 
  69   2.0000      -0.437275       -11.8989 
  70   2.0000      -0.422269       -11.4905 
  71   2.0000      -0.418785       -11.3957 
  72   2.0000      -0.415707       -11.3120 
  73   2.0000      -0.403449       -10.9784 
  74   2.0000      -0.401213       -10.9175 
  75   2.0000      -0.390286       -10.6202 
  76   2.0000      -0.381620       -10.3844 
  77   2.0000      -0.375276       -10.2118 
  78   2.0000      -0.372226       -10.1288 
  79   2.0000      -0.369122       -10.0443 
  80   2.0000      -0.364641        -9.9224 
  81   2.0000      -0.361151        -9.8274 
  82   2.0000      -0.355569        -9.6755 
  83   2.0000      -0.354852        -9.6560 
  84   2.0000      -0.348284        -9.4773 
  85   2.0000      -0.336889        -9.1672 
  86   2.0000      -0.326258        -8.8779 
  87   2.0000      -0.315224        -8.5777 
  88   2.0000      -0.311704        -8.4819 
  89   2.0000      -0.304617        -8.2890 
  90   2.0000      -0.302185        -8.2229 
  91   2.0000      -0.296377        -8.0648 
  92   2.0000      -0.291822        -7.9409 
  93   2.0000      -0.283016        -7.7013 
  94   2.0000      -0.273428        -7.4403 
  95   2.0000      -0.248904        -6.7730 
  96   2.0000      -0.232189        -6.3182 
  97   2.0000      -0.227664        -6.1950 
  98   2.0000      -0.220543        -6.0013 
  99   2.0000      -0.217549        -5.9198 
 100   2.0000      -0.212884        -5.7929 
 101   0.0000      -0.050057        -1.3621 
 102   0.0000      -0.031444        -0.8556 
 103   0.0000      -0.006700        -0.1823 
 104   0.0000      -0.003363        -0.0915 
 105   0.0000       0.009650         0.2626 
 106   0.0000       0.024114         0.6562 
 107   0.0000       0.031152         0.8477 
 108   0.0000       0.035661         0.9704 
 109   0.0000       0.052073         1.4170 
 110   0.0000       0.068878         1.8743 
 111   0.0000       0.073763         2.0072 
*Only the first 10 virtual orbitals were printed.

                    ********************************
                    * MULLIKEN POPULATION ANALYSIS *
                    ********************************

-----------------------
MULLIKEN ATOMIC CHARGES
-----------------------
   0 C :   -0.462450
   1 C :   -0.122389
   2 O :   -0.273794
   3 P :    0.663328
   4 S :   -0.473308
   5 O :   -0.300425
   6 C :   -0.153462
   7 C :   -0.448499
   8 S :   -0.116504
   9 C :   -0.252551
  10 S :   -0.163933
  11 P :    0.659970
  12 S :   -0.434860
  13 O :   -0.257589
  14 C :   -0.183634
  15 C :   -0.419654
  16 O :   -0.285969
  17 C :   -0.111358
  18 C :   -0.450768
  19 H :    0.145131
  20 H :    0.151254
  21 H :    0.179954
  22 H :    0.158390
  23 H :    0.150315
  24 H :    0.148265
  25 H :    0.172435
  26 H :    0.156730
  27 H :    0.149006
  28 H :    0.174967
  29 H :    0.219823
  30 H :    0.218490
  31 H :    0.144051
  32 H :    0.181604
  33 H :    0.174108
  34 H :    0.151272
  35 H :    0.143110
  36 H :    0.157704
  37 H :    0.141259
  38 H :    0.146111
  39 H :    0.165651
  40 H :    0.158221
Sum of atomic charges:   -0.0000000

--------------------------------
MULLIKEN REDUCED ORBITAL CHARGES
--------------------------------
  0 C s       :     3.326787  s :     3.326787
      pz      :     1.078893  p :     3.110029
      px      :     1.023621
      py      :     1.007515
      dz2     :     0.007658  d :     0.025633
      dxz     :     0.002806
      dyz     :     0.003924
      dx2y2   :     0.006528
      dxy     :     0.004718

  1 C s       :     3.270128  s :     3.270128
      pz      :     1.043348  p :     2.798178
      px      :     1.034579
      py      :     0.720252
      dz2     :     0.013460  d :     0.054083
      dxz     :     0.003633
      dyz     :     0.010096
      dx2y2   :     0.015510
      dxy     :     0.011384

  2 O s       :     3.724458  s :     3.724458
      pz      :     1.573101  p :     4.538505
      px      :     1.684743
      py      :     1.280661
      dz2     :     0.005884  d :     0.010831
      dxz     :     0.007762
      dyz     :    -0.005482
      dx2y2   :    -0.007627
      dxy     :     0.010295

  3 P s       :     5.129787  s :     5.129787
      pz      :     2.826802  p :     8.483323
      px      :     2.821610
      py      :     2.834911
      dz2     :     0.177869  d :     0.723562
      dxz     :     0.148637
      dyz     :     0.133076
      dx2y2   :     0.122275
      dxy     :     0.141705

  4 S s       :     5.914190  s :     5.914190
      pz      :     3.376513  p :    10.492114
      px      :     3.590203
      py      :     3.525398
      dz2     :     0.014906  d :     0.067004
      dxz     :     0.016288
      dyz     :     0.018137
      dx2y2   :     0.007989
      dxy     :     0.009683

  5 O s       :     3.739688  s :     3.739688
      pz      :     1.618949  p :     4.539845
      px      :     1.262683
      py      :     1.658212
      dz2     :     0.004293  d :     0.020893
      dxz     :     0.013691
      dyz     :     0.004366
      dx2y2   :    -0.001424
      dxy     :    -0.000033

  6 C s       :     3.286385  s :     3.286385
      pz      :     1.062519  p :     2.812201
      px      :     0.793174
      py      :     0.956509
      dz2     :     0.006428  d :     0.054876
      dxz     :     0.013247
      dyz     :     0.010252
      dx2y2   :     0.011513
      dxy     :     0.013436

  7 C s       :     3.312669  s :     3.312669
      pz      :     1.058061  p :     3.110090
      px      :     1.093718
      py      :     0.958310
      dz2     :     0.004302  d :     0.025741
      dxz     :     0.005161
      dyz     :     0.006434
      dx2y2   :     0.004222
      dxy     :     0.005622

  8 S s       :     5.908305  s :     5.908305
      pz      :     3.335155  p :    10.100770
      px      :     3.367483
      py      :     3.398132
      dz2     :     0.021309  d :     0.107429
      dxz     :     0.017653
      dyz     :     0.021299
      dx2y2   :     0.013986
      dxy     :     0.033182

  9 C s       :     3.195350  s :     3.195350
      pz      :     0.942548  p :     3.021264
      px      :     1.068424
      py      :     1.010291
      dz2     :     0.005790  d :     0.035937
      dxz     :     0.008204
      dyz     :     0.008235
      dx2y2   :     0.004011
      dxy     :     0.009698

 10 S s       :     5.909582  s :     5.909582
      pz      :     3.732982  p :    10.148531
      px      :     3.149082
      py      :     3.266467
      dz2     :     0.013499  d :     0.105820
      dxz     :     0.017343
      dyz     :     0.016590
      dx2y2   :     0.022049
      dxy     :     0.036338

 11 P s       :     5.147502  s :     5.147502
      pz      :     2.840229  p :     8.479644
      px      :     2.845443
      py      :     2.793971
      dz2     :     0.144040  d :     0.712885
      dxz     :     0.106669
      dyz     :     0.176871
      dx2y2   :     0.099849
      dxy     :     0.185457

 12 S s       :     5.907381  s :     5.907381
      pz      :     3.649465  p :    10.461861
      px      :     3.649822
      py      :     3.162575
      dz2     :     0.008338  d :     0.065618
      dxz     :     0.003855
      dyz     :     0.016033
      dx2y2   :     0.023511
      dxy     :     0.013881

 13 O s       :     3.719181  s :     3.719181
      pz      :     1.147447  p :     4.520126
      px      :     1.614791
      py      :     1.757888
      dz2     :    -0.001604  d :     0.018282
      dxz     :     0.003300
      dyz     :     0.005200
      dx2y2   :     0.005746
      dxy     :     0.005640

 14 C s       :     3.302034  s :     3.302034
      pz      :     0.876488  p :     2.826657
      px      :     0.960797
      py      :     0.989373
      dz2     :     0.009376  d :     0.054943
      dxz     :     0.011936
      dyz     :     0.012938
      dx2y2   :     0.012411
      dxy     :     0.008282

 15 C s       :     3.297378  s :     3.297378
      pz      :     1.079318  p :     3.096712
      px      :     1.092568
      py      :     0.924826
      dz2     :     0.003904  d :     0.025565
      dxz     :     0.004766
      dyz     :     0.005460
      dx2y2   :     0.007629
      dxy     :     0.003805

 16 O s       :     3.734138  s :     3.734138
      pz      :     1.748418  p :     4.544993
      px      :     1.600489
      py      :     1.196086
      dz2     :     0.004622  d :     0.006838
      dxz     :     0.005924
      dyz     :    -0.000517
      dx2y2   :    -0.002949
      dxy     :    -0.000243

 17 C s       :     3.263249  s :     3.263249
      pz      :     1.049299  p :     2.794007
      px      :     1.043534
      py      :     0.701174
      dz2     :     0.011239  d :     0.054103
      dxz     :     0.006559
      dyz     :     0.011312
      dx2y2   :     0.014551
      dxy     :     0.010442

 18 C s       :     3.319146  s :     3.319146
      pz      :     1.007499  p :     3.105978
      px      :     1.029378
      py      :     1.069100
      dz2     :     0.007365  d :     0.025644
      dxz     :     0.006105
      dyz     :     0.002558
      dx2y2   :     0.006560
      dxy     :     0.003057

 19 H s       :     0.836376  s :     0.836376
      pz      :     0.004372  p :     0.018493
      px      :     0.004045
      py      :     0.010075

 20 H s       :     0.830442  s :     0.830442
      pz      :     0.003916  p :     0.018304
      px      :     0.010627
      py      :     0.003761

 21 H s       :     0.801677  s :     0.801677
      pz      :     0.011382  p :     0.018369
      px      :     0.003568
      py      :     0.003419

 22 H s       :     0.823589  s :     0.823589
      pz      :     0.003993  p :     0.018021
      px      :     0.011380
      py      :     0.002648

 23 H s       :     0.832239  s :     0.832239
      pz      :     0.011604  p :     0.017446
      px      :     0.003476
      py      :     0.002366

 24 H s       :     0.834333  s :     0.834333
      pz      :     0.008793  p :     0.017402
      px      :     0.005069
      py      :     0.003541

 25 H s       :     0.809745  s :     0.809745
      pz      :     0.006537  p :     0.017819
      px      :     0.004487
      py      :     0.006795

 26 H s       :     0.825118  s :     0.825118
      pz      :     0.005686  p :     0.018152
      px      :     0.006176
      py      :     0.006290

 27 H s       :     0.832490  s :     0.832490
      pz      :     0.004180  p :     0.018504
      px      :     0.008891
      py      :     0.005432

 28 H s       :     0.806594  s :     0.806594
      pz      :     0.009091  p :     0.018439
      px      :     0.005558
      py      :     0.003790

 29 H s       :     0.760835  s :     0.760835
      pz      :     0.006648  p :     0.019342
      px      :     0.008507
      py      :     0.004187

 30 H s       :     0.761500  s :     0.761500
      pz      :     0.004738  p :     0.020010
      px      :     0.007788
      py      :     0.007484

 31 H s       :     0.838602  s :     0.838602
      pz      :     0.007975  p :     0.017347
      px      :     0.003528
      py      :     0.005844

 32 H s       :     0.799912  s :     0.799912
      pz      :     0.003309  p :     0.018484
      px      :     0.011255
      py      :     0.003920

 33 H s       :     0.806951  s :     0.806951
      pz      :     0.008836  p :     0.018941
      px      :     0.004330
      py      :     0.005775

 34 H s       :     0.830486  s :     0.830486
      pz      :     0.003916  p :     0.018242
      px      :     0.010181
      py      :     0.004145

 35 H s       :     0.838359  s :     0.838359
      pz      :     0.008255  p :     0.018531
      px      :     0.006311
      py      :     0.003965

 36 H s       :     0.824926  s :     0.824926
      pz      :     0.009920  p :     0.017371
      px      :     0.004376
      py      :     0.003075

 37 H s       :     0.840722  s :     0.840722
      pz      :     0.003672  p :     0.018019
      px      :     0.010559
      py      :     0.003788

 38 H s       :     0.835438  s :     0.835438
      pz      :     0.003671  p :     0.018451
      px      :     0.003795
      py      :     0.010985

 39 H s       :     0.815942  s :     0.815942
      pz      :     0.009390  p :     0.018407
      px      :     0.004471
      py      :     0.004546

 40 H s       :     0.823555  s :     0.823555
      pz      :     0.003663  p :     0.018224
      px      :     0.009709
      py      :     0.004853


------------------------
MULLIKEN OVERLAP CHARGES
------------------------
B(  0-C ,  1-C ) :   0.5507 B(  0-C ,  2-O ) :  -0.1252 B(  0-C , 19-H ) :   0.8038 
B(  0-C , 20-H ) :   0.8195 B(  0-C , 21-H ) :   0.8299 B(  0-C , 22-H ) :  -0.0772 
B(  0-C , 23-H ) :  -0.0658 B(  1-C ,  2-O ) :   0.2077 B(  1-C ,  3-P ) :  -0.1185 
B(  1-C , 19-H ) :  -0.0744 B(  1-C , 20-H ) :  -0.0693 B(  1-C , 21-H ) :  -0.0740 
B(  1-C , 22-H ) :   0.8446 B(  1-C , 23-H ) :   0.8153 B(  2-O ,  3-P ) :   0.6325 
B(  2-O ,  4-S ) :  -0.0945 B(  2-O ,  5-O ) :  -0.2393 B(  2-O ,  8-S ) :  -0.1534 
B(  2-O , 22-H ) :  -0.0703 B(  2-O , 23-H ) :  -0.0868 B(  3-P ,  4-S ) :   1.2354 
B(  3-P ,  5-O ) :   0.5298 B(  3-P ,  6-C ) :  -0.1500 B(  3-P ,  8-S ) :   0.7478 
B(  3-P ,  9-C ) :  -0.0990 B(  4-S ,  5-O ) :  -0.1094 B(  4-S ,  8-S ) :  -0.0981 
B(  5-O ,  6-C ) :   0.3583 B(  5-O ,  7-C ) :  -0.1742 B(  5-O ,  8-S ) :  -0.0814 
B(  5-O , 24-H ) :  -0.1076 B(  5-O , 25-H ) :  -0.0829 B(  6-C ,  7-C ) :   0.4370 
B(  6-C , 24-H ) :   0.7931 B(  6-C , 25-H ) :   0.8803 B(  6-C , 26-H ) :  -0.0661 
B(  6-C , 27-H ) :  -0.0520 B(  6-C , 28-H ) :  -0.0831 B(  7-C , 25-H ) :  -0.1154 
B(  7-C , 26-H ) :   0.8071 B(  7-C , 27-H ) :   0.7760 B(  7-C , 28-H ) :   0.8375 
B(  8-S ,  9-C ) :   0.3715 B(  8-S , 10-S ) :  -0.1661 B(  8-S , 29-H ) :  -0.0660 
B(  8-S , 30-H ) :  -0.0694 B(  9-C , 10-S ) :   0.4007 B(  9-C , 11-P ) :  -0.0672 
B(  9-C , 29-H ) :   0.8125 B(  9-C , 30-H ) :   0.7762 B( 10-S , 11-P ) :   0.6166 
B( 10-S , 12-S ) :  -0.1040 B( 10-S , 13-O ) :  -0.1128 B( 10-S , 16-O ) :  -0.1003 
B( 10-S , 29-H ) :  -0.0868 B( 10-S , 30-H ) :  -0.0533 B( 11-P , 12-S ) :   1.2975 
B( 11-P , 13-O ) :   0.4165 B( 11-P , 14-C ) :  -0.1884 B( 11-P , 16-O ) :   0.7729 
B( 11-P , 17-C ) :  -0.1645 B( 12-S , 13-O ) :  -0.0788 B( 12-S , 16-O ) :  -0.1304 
B( 13-O , 14-C ) :   0.2962 B( 13-O , 15-C ) :  -0.1309 B( 13-O , 16-O ) :  -0.2294 
B( 13-O , 31-H ) :  -0.1096 B( 13-O , 32-H ) :  -0.0760 B( 14-C , 15-C ) :   0.4425 
B( 14-C , 31-H ) :   0.8170 B( 14-C , 32-H ) :   0.8429 B( 14-C , 33-H ) :  -0.0532 
B( 14-C , 34-H ) :  -0.0645 B( 14-C , 35-H ) :  -0.0748 B( 15-C , 31-H ) :  -0.0578 
B( 15-C , 32-H ) :  -0.1058 B( 15-C , 33-H ) :   0.8145 B( 15-C , 34-H ) :   0.8121 
B( 15-C , 35-H ) :   0.8016 B( 16-O , 17-C ) :   0.2381 B( 16-O , 18-C ) :  -0.0926 
B( 16-O , 36-H ) :  -0.0909 B( 16-O , 37-H ) :  -0.0846 B( 17-C , 18-C ) :   0.5192 
B( 17-C , 36-H ) :   0.8184 B( 17-C , 37-H ) :   0.8432 B( 17-C , 38-H ) :  -0.0867 
B( 17-C , 39-H ) :  -0.0699 B( 17-C , 40-H ) :  -0.0588 B( 18-C , 36-H ) :  -0.0563 
B( 18-C , 37-H ) :  -0.0871 B( 18-C , 38-H ) :   0.8173 B( 18-C , 39-H ) :   0.8297 
B( 18-C , 40-H ) :   0.8190 B( 24-H , 25-H ) :  -0.0506 B( 31-H , 32-H ) :  -0.0517 



                     *******************************
                     * LOEWDIN POPULATION ANALYSIS *
                     *******************************

----------------------
LOEWDIN ATOMIC CHARGES
----------------------
   0 C :   -0.401558
   1 C :    0.024816
   2 O :   -0.694084
   3 P :    0.375597
   4 S :   -0.130492
   5 O :   -0.659682
   6 C :    0.019771
   7 C :   -0.405645
   8 S :    0.170857
   9 C :   -0.425336
  10 S :    0.138140
  11 P :    0.392202
  12 S :   -0.094935
  13 O :   -0.673096
  14 C :    0.016680
  15 C :   -0.408898
  16 O :   -0.650395
  17 C :    0.027004
  18 C :   -0.392659
  19 H :    0.157885
  20 H :    0.157406
  21 H :    0.167928
  22 H :    0.178420
  23 H :    0.177199
  24 H :    0.179724
  25 H :    0.179772
  26 H :    0.160773
  27 H :    0.159917
  28 H :    0.165163
  29 H :    0.191581
  30 H :    0.195564
  31 H :    0.177313
  32 H :    0.193424
  33 H :    0.167407
  34 H :    0.160442
  35 H :    0.158880
  36 H :    0.182387
  37 H :    0.172884
  38 H :    0.158258
  39 H :    0.166596
  40 H :    0.162791

-------------------------------
LOEWDIN REDUCED ORBITAL CHARGES
-------------------------------
  0 C s       :     2.975528  s :     2.975528
      pz      :     1.151920  p :     3.365399
      px      :     1.124302
      py      :     1.089177
      dz2     :     0.018675  d :     0.060631
      dxz     :     0.006307
      dyz     :     0.008707
      dx2y2   :     0.016193
      dxy     :     0.010749

  1 C s       :     2.876286  s :     2.876286
      pz      :     1.071046  p :     2.978012
      px      :     1.073584
      py      :     0.833382
      dz2     :     0.032057  d :     0.120887
      dxz     :     0.006566
      dyz     :     0.021318
      dx2y2   :     0.034163
      dxy     :     0.026782

  2 O s       :     3.470258  s :     3.470258
      pz      :     1.636091  p :     4.736026
      px      :     1.669766
      py      :     1.430170
      dz2     :     0.086259  d :     0.487799
      dxz     :     0.063992
      dyz     :     0.116451
      dx2y2   :     0.110557
      dxy     :     0.110541

  3 P s       :     4.653967  s :     4.653967
      pz      :     2.822416  p :     8.395344
      px      :     2.769560
      py      :     2.803368
      dz2     :     0.313975  d :     1.575091
      dxz     :     0.353655
      dyz     :     0.330132
      dx2y2   :     0.219376
      dxy     :     0.357951

  4 S s       :     5.568675  s :     5.568675
      pz      :     3.380622  p :    10.423456
      px      :     3.542788
      py      :     3.500047
      dz2     :     0.028100  d :     0.138360
      dxz     :     0.035070
      dyz     :     0.043193
      dx2y2   :     0.012032
      dxy     :     0.019964

  5 O s       :     3.467149  s :     3.467149
      pz      :     1.642057  p :     4.731049
      px      :     1.444863
      py      :     1.644128
      dz2     :     0.063710  d :     0.461484
      dxz     :     0.125325
      dyz     :     0.069933
      dx2y2   :     0.096594
      dxy     :     0.105921

  6 C s       :     2.875035  s :     2.875035
      pz      :     1.075452  p :     2.982102
      px      :     0.880882
      py      :     1.025768
      dz2     :     0.012508  d :     0.123092
      dxz     :     0.032613
      dyz     :     0.024232
      dx2y2   :     0.024757
      dxy     :     0.028981

  7 C s       :     2.976198  s :     2.976198
      pz      :     1.132835  p :     3.368700
      px      :     1.157797
      py      :     1.078068
      dz2     :     0.009671  d :     0.060748
      dxz     :     0.012890
      dyz     :     0.014672
      dx2y2   :     0.009293
      dxy     :     0.014222

  8 S s       :     5.438624  s :     5.438624
      pz      :     3.341648  p :    10.089828
      px      :     3.348484
      py      :     3.399697
      dz2     :     0.062474  d :     0.300692
      dxz     :     0.058929
      dyz     :     0.060339
      dx2y2   :     0.031850
      dxy     :     0.087098

  9 C s       :     3.012741  s :     3.012741
      pz      :     1.080895  p :     3.328924
      px      :     1.134822
      py      :     1.113207
      dz2     :     0.012233  d :     0.083671
      dxz     :     0.019136
      dyz     :     0.019850
      dx2y2   :     0.008597
      dxy     :     0.023854

 10 S s       :     5.440785  s :     5.440785
      pz      :     3.648690  p :    10.119023
      px      :     3.157901
      py      :     3.312432
      dz2     :     0.034686  d :     0.302052
      dxz     :     0.046592
      dyz     :     0.044310
      dx2y2   :     0.070132
      dxy     :     0.106331

 11 P s       :     4.654929  s :     4.654929
      pz      :     2.728676  p :     8.383801
      px      :     2.772589
      py      :     2.882536
      dz2     :     0.346128  d :     1.569069
      dxz     :     0.250208
      dyz     :     0.337580
      dx2y2   :     0.284289
      dxy     :     0.350864

 12 S s       :     5.562890  s :     5.562890
      pz      :     3.597682  p :    10.394423
      px      :     3.578750
      py      :     3.217990
      dz2     :     0.018757  d :     0.137622
      dxz     :     0.007879
      dyz     :     0.032126
      dx2y2   :     0.053896
      dxy     :     0.024965

 13 O s       :     3.464073  s :     3.464073
      pz      :     1.417332  p :     4.738093
      px      :     1.618048
      py      :     1.702713
      dz2     :     0.146836  d :     0.470930
      dxz     :     0.122506
      dyz     :     0.102586
      dx2y2   :     0.056491
      dxy     :     0.042512

 14 C s       :     2.873471  s :     2.873471
      pz      :     0.932739  p :     2.986388
      px      :     0.996314
      py      :     1.057334
      dz2     :     0.022213  d :     0.123461
      dxz     :     0.027130
      dyz     :     0.028396
      dx2y2   :     0.030007
      dxy     :     0.015716

 15 C s       :     2.976236  s :     2.976236
      pz      :     1.154647  p :     3.372031
      px      :     1.159039
      py      :     1.058345
      dz2     :     0.009442  d :     0.060631
      dxz     :     0.012241
      dyz     :     0.012369
      dx2y2   :     0.018123
      dxy     :     0.008456

 16 O s       :     3.466454  s :     3.466454
      pz      :     1.697422  p :     4.724959
      px      :     1.637594
      py      :     1.389943
      dz2     :     0.061892  d :     0.458982
      dxz     :     0.042603
      dyz     :     0.099964
      dx2y2   :     0.129303
      dxy     :     0.125220

 17 C s       :     2.876045  s :     2.876045
      pz      :     1.085418  p :     2.976119
      px      :     1.086958
      py      :     0.803743
      dz2     :     0.023787  d :     0.120832
      dxz     :     0.015454
      dyz     :     0.024852
      dx2y2   :     0.032485
      dxy     :     0.024254

 18 C s       :     2.974243  s :     2.974243
      pz      :     1.105283  p :     3.357772
      px      :     1.120110
      py      :     1.132379
      dz2     :     0.017304  d :     0.060644
      dxz     :     0.014133
      dyz     :     0.005536
      dx2y2   :     0.016476
      dxy     :     0.007195

 19 H s       :     0.798127  s :     0.798127
      pz      :     0.010228  p :     0.043988
      px      :     0.009197
      py      :     0.024563

 20 H s       :     0.799053  s :     0.799053
      pz      :     0.009080  p :     0.043541
      px      :     0.026168
      py      :     0.008293

 21 H s       :     0.787562  s :     0.787562
      pz      :     0.028970  p :     0.044510
      px      :     0.008022
      py      :     0.007518

 22 H s       :     0.779268  s :     0.779268
      pz      :     0.009201  p :     0.042312
      px      :     0.027132
      py      :     0.005980

 23 H s       :     0.782670  s :     0.782670
      pz      :     0.027152  p :     0.040131
      px      :     0.008022
      py      :     0.004957

 24 H s       :     0.780354  s :     0.780354
      pz      :     0.021783  p :     0.039922
      px      :     0.010311
      py      :     0.007829

 25 H s       :     0.777678  s :     0.777678
      pz      :     0.015370  p :     0.042550
      px      :     0.010077
      py      :     0.017103

 26 H s       :     0.795643  s :     0.795643
      pz      :     0.013963  p :     0.043584
      px      :     0.014714
      py      :     0.014907

 27 H s       :     0.795971  s :     0.795971
      pz      :     0.009398  p :     0.044112
      px      :     0.022212
      py      :     0.012502

 28 H s       :     0.790161  s :     0.790161
      pz      :     0.022967  p :     0.044676
      px      :     0.012988
      py      :     0.008721

 29 H s       :     0.759688  s :     0.759688
      pz      :     0.017015  p :     0.048731
      px      :     0.021453
      py      :     0.010263

 30 H s       :     0.753919  s :     0.753919
      pz      :     0.011565  p :     0.050518
      px      :     0.019375
      py      :     0.019578

 31 H s       :     0.783009  s :     0.783009
      pz      :     0.017166  p :     0.039679
      px      :     0.008572
      py      :     0.013941

 32 H s       :     0.761957  s :     0.761957
      pz      :     0.008037  p :     0.044618
      px      :     0.026947
      py      :     0.009634

 33 H s       :     0.786589  s :     0.786589
      pz      :     0.022133  p :     0.046004
      px      :     0.009975
      py      :     0.013896

 34 H s       :     0.796010  s :     0.796010
      pz      :     0.008771  p :     0.043548
      px      :     0.025509
      py      :     0.009268

 35 H s       :     0.797045  s :     0.797045
      pz      :     0.020168  p :     0.044075
      px      :     0.014978
      py      :     0.008929

 36 H s       :     0.777570  s :     0.777570
      pz      :     0.024092  p :     0.040043
      px      :     0.010069
      py      :     0.005882

 37 H s       :     0.785207  s :     0.785207
      pz      :     0.008380  p :     0.041909
      px      :     0.025619
      py      :     0.007910

 38 H s       :     0.797708  s :     0.797708
      pz      :     0.008284  p :     0.044034
      px      :     0.008434
      py      :     0.027316

 39 H s       :     0.788781  s :     0.788781
      pz      :     0.023611  p :     0.044623
      px      :     0.010552
      py      :     0.010461

 40 H s       :     0.793629  s :     0.793629
      pz      :     0.008347  p :     0.043580
      px      :     0.024019
      py      :     0.011214


---------------------------------
LOEWDIN BOND ORDERS (THRESH 0.050000)
---------------------------------
B(  0-C ,  1-C ) :   1.0937 B(  0-C ,  2-O ) :   0.1608 B(  0-C , 19-H ) :   0.9164 
B(  0-C , 20-H ) :   0.9222 B(  0-C , 21-H ) :   0.9173 B(  1-C ,  2-O ) :   1.2764 
B(  1-C ,  3-P ) :   0.1003 B(  1-C , 19-H ) :   0.0510 B(  1-C , 22-H ) :   0.8294 
B(  1-C , 23-H ) :   0.8326 B(  2-O ,  3-P ) :   1.5556 B(  2-O ,  4-S ) :   0.1806 
B(  2-O ,  5-O ) :   0.2238 B(  2-O ,  8-S ) :   0.1718 B(  2-O , 22-H ) :   0.0942 
B(  2-O , 23-H ) :   0.0969 B(  3-P ,  4-S ) :   2.0087 B(  3-P ,  5-O ) :   1.5640 
B(  3-P ,  6-C ) :   0.0939 B(  3-P ,  8-S ) :   1.2459 B(  3-P ,  9-C ) :   0.0953 
B(  4-S ,  5-O ) :   0.1895 B(  4-S ,  8-S ) :   0.1461 B(  4-S ,  9-C ) :   0.0505 
B(  5-O ,  6-C ) :   1.3020 B(  5-O ,  7-C ) :   0.1555 B(  5-O ,  8-S ) :   0.1369 
B(  5-O , 24-H ) :   0.0998 B(  5-O , 25-H ) :   0.0970 B(  6-C ,  7-C ) :   1.0944 
B(  6-C , 24-H ) :   0.8286 B(  6-C , 25-H ) :   0.8270 B(  6-C , 27-H ) :   0.0513 
B(  7-C , 26-H ) :   0.9210 B(  7-C , 27-H ) :   0.9151 B(  7-C , 28-H ) :   0.9148 
B(  8-S ,  9-C ) :   1.2898 B(  8-S , 10-S ) :   0.2161 B(  8-S , 29-H ) :   0.0603 
B(  8-S , 30-H ) :   0.0561 B(  9-C , 10-S ) :   1.3107 B(  9-C , 11-P ) :   0.0873 
B(  9-C , 12-S ) :   0.0643 B(  9-C , 29-H ) :   0.8371 B(  9-C , 30-H ) :   0.8298 
B( 10-S , 11-P ) :   1.1850 B( 10-S , 12-S ) :   0.1515 B( 10-S , 13-O ) :   0.1573 
B( 10-S , 16-O ) :   0.1489 B( 10-S , 29-H ) :   0.0576 B( 10-S , 30-H ) :   0.0599 
B( 11-P , 12-S ) :   2.0609 B( 11-P , 13-O ) :   1.5493 B( 11-P , 14-C ) :   0.0876 
B( 11-P , 16-O ) :   1.5962 B( 11-P , 17-C ) :   0.0960 B( 12-S , 13-O ) :   0.1728 
B( 12-S , 16-O ) :   0.1852 B( 13-O , 14-C ) :   1.3057 B( 13-O , 15-C ) :   0.1539 
B( 13-O , 16-O ) :   0.2244 B( 13-O , 31-H ) :   0.1027 B( 13-O , 32-H ) :   0.0959 
B( 14-C , 15-C ) :   1.0947 B( 14-C , 31-H ) :   0.8267 B( 14-C , 32-H ) :   0.8089 
B( 14-C , 35-H ) :   0.0521 B( 15-C , 33-H ) :   0.9119 B( 15-C , 34-H ) :   0.9207 
B( 15-C , 35-H ) :   0.9150 B( 16-O , 17-C ) :   1.2746 B( 16-O , 18-C ) :   0.1565 
B( 16-O , 36-H ) :   0.0976 B( 16-O , 37-H ) :   0.0943 B( 17-C , 18-C ) :   1.0965 
B( 17-C , 36-H ) :   0.8315 B( 17-C , 37-H ) :   0.8253 B( 17-C , 38-H ) :   0.0511 
B( 18-C , 38-H ) :   0.9166 B( 18-C , 39-H ) :   0.9156 B( 18-C , 40-H ) :   0.9204 


------------------------------------------
LOEWDIN REDUCED ORBITAL POPULATIONS PER MO
-------------------------------------------
THRESHOLD FOR PRINTING IS 0.1%%
                      0         1         2         3         4         5   
                 -88.57973 -88.57411 -88.52663 -88.51920 -76.91873 -76.91401
                   2.00000   2.00000   2.00000   2.00000   2.00000   2.00000
                  --------  --------  --------  --------  --------  --------
 3 P  s               0.0       0.0       0.0       0.0     100.0       0.0
 4 S  s               0.0       0.0     100.0       0.0       0.0       0.0
 8 S  s             100.0       0.0       0.0       0.0       0.0       0.0
10 S  s               0.0     100.0       0.0       0.0       0.0       0.0
11 P  s               0.0       0.0       0.0       0.0       0.0     100.0
12 S  s               0.0       0.0       0.0     100.0       0.0       0.0

                      6         7         8         9        10        11   
                 -18.99706 -18.99422 -18.99113 -18.99093 -10.10654 -10.10465
                   2.00000   2.00000   2.00000   2.00000   2.00000   2.00000
                  --------  --------  --------  --------  --------  --------
 2 O  s               0.0      99.9       0.0       0.0       0.0       0.0
 5 O  s              99.9       0.0       0.0       0.0       0.0       0.0
 9 C  s               0.0       0.0       0.0       0.0       0.0      99.6
13 O  s               0.0       0.0       0.0      99.9       0.0       0.0
16 O  s               0.0       0.0      99.9       0.0       0.0       0.0
16 O  py              0.0       0.0       0.0       0.0       0.1       0.0
16 O  dx2y2           0.0       0.0       0.0       0.0       0.2       0.0
17 C  s               0.0       0.0       0.0       0.0      99.4       0.0

                     12        13        14        15        16        17   
                 -10.10449 -10.10144 -10.09473 -10.03346 -10.03170 -10.03123
                   2.00000   2.00000   2.00000   2.00000   2.00000   2.00000
                  --------  --------  --------  --------  --------  --------
 0 C  s               0.0       0.0       0.0       0.0      99.7       0.0
 1 C  s              99.4       0.0       0.0       0.0       0.0       0.0
 2 O  dx2y2           0.1       0.0       0.0       0.0       0.0       0.0
 5 O  dxy             0.0       0.1       0.0       0.0       0.0       0.0
 6 C  s               0.0      99.4       0.0       0.0       0.0       0.0
 7 C  s               0.0       0.0       0.0       0.0       0.0      99.7
13 O  dxz             0.0       0.0       0.2       0.0       0.0       0.0
14 C  s               0.0       0.0      99.4       0.0       0.0       0.0
[...]
38 H  py              0.3       0.0       0.0       0.0       0.0       0.0

                    522       523       524       525       526       527   
                  18.86729  18.92661  19.13056  19.29165  21.94880  21.97477
                   0.00000   0.00000   0.00000   0.00000   0.00000   0.00000
                  --------  --------  --------  --------  --------  --------
 0 C  s               0.0       0.0       0.0       0.0       0.0       4.3
 1 C  s               0.1       0.0       0.1       0.0       0.2       1.6
 3 P  s               0.2       0.0       0.0       0.0       0.0       0.0
 3 P  pz              0.2       0.0       0.0       0.0       0.0       0.0
 4 S  s              95.9       0.0       0.0       3.0       0.0       0.0
 6 C  s               0.0       0.0       0.0       0.0       0.0       1.0
 7 C  s               0.0       0.0       0.0       0.0       0.0      91.2
 8 S  s               0.9       0.2      77.2      20.5       0.0       0.0
 8 S  py              0.0       0.0       0.1       0.0       0.0       0.0
 9 C  s               0.0       0.0       0.1       1.1       1.1       0.0
10 S  s               2.2       0.5      21.9      74.0       0.0       0.0
11 P  s               0.0       0.1       0.1       0.1       0.0       0.0
11 P  py              0.0       0.3       0.0       0.0       0.0       0.0
12 S  s               0.0      98.1       0.0       0.7       0.0       0.0
12 S  py              0.0       0.1       0.0       0.0       0.0       0.0
14 C  s               0.0       0.0       0.0       0.0       0.1       0.2
15 C  s               0.0       0.0       0.0       0.0       1.8       1.1
17 C  s               0.0       0.1       0.0       0.0       1.8       0.2
18 C  s               0.0       0.0       0.0       0.0      94.7       0.0

                    528       529       530       531       532       533   
                  21.99519  22.00332  22.04562  22.05243  22.05988  22.07867
                   0.00000   0.00000   0.00000   0.00000   0.00000   0.00000
                  --------  --------  --------  --------  --------  --------
 0 C  s              60.9      14.8      14.3       0.5       0.6       4.0
 1 C  s              12.7       1.0       4.1       7.8       0.1      70.7
 6 C  s               0.0       0.5       1.8      79.8       7.8       7.7
 7 C  s               3.3       3.2       0.0       0.5       0.0       1.2
 8 S  s               0.0       0.0       0.1       0.0       0.0       0.1
 9 C  s              13.7       2.7      62.5       0.3       0.6      14.6
10 S  s               0.0       0.0       0.1       0.0       0.0       0.0
14 C  s               0.3       0.3       5.9       2.2       0.0       0.0
15 C  s               7.9      60.8       8.7       0.0      17.6       1.0
17 C  s               0.0      13.0       2.1       8.4      72.3       0.4
18 C  s               0.7       3.4       0.1       0.2       0.5       0.0

                    534       535       536       537       538   
                  22.14893  43.79829  43.80909  43.84079  43.87978
                   0.00000   0.00000   0.00000   0.00000   0.00000
                  --------  --------  --------  --------  --------
 0 C  s               0.3       0.0       0.0       0.0       0.0
 1 C  s               1.3       0.0       0.0       0.0       0.0
 2 O  s               0.0       9.5       0.0       3.1      87.2
 5 O  s               0.0      87.8       2.5       0.0       9.7
 6 C  s               0.9       0.0       0.0       0.0       0.0
 7 C  s               0.3       0.0       0.0       0.0       0.0
 9 C  s               3.8       0.0       0.0       0.0       0.0
11 P  s               0.0       0.0       0.0       0.1       0.0
13 O  s               0.0       2.5      79.1      18.1       0.2
14 C  s              90.6       0.0       0.0       0.0       0.0
15 C  s               0.9       0.0       0.0       0.0       0.0
16 O  s               0.0       0.1      18.4      78.6       2.8
17 C  s               1.4       0.0       0.0       0.0       0.0


                      *****************************
                      * MAYER POPULATION ANALYSIS *
                      *****************************

  NA   - Mulliken gross atomic population
  ZA   - Total nuclear charge
  QA   - Mulliken gross atomic charge
  VA   - Mayer's total valence
  BVA  - Mayer's bonded valence
  FA   - Mayer's free valence

  ATOM       NA         ZA         QA         VA         BVA        FA
  0 C      6.4624     6.0000    -0.4624     3.8178     3.8178     0.0000
  1 C      6.1224     6.0000    -0.1224     3.6769     3.6769    -0.0000
  2 O      8.2738     8.0000    -0.2738     1.8013     1.8013    -0.0000
  3 P     14.3367    15.0000     0.6633     5.1995     5.1995     0.0000
  4 S     16.4733    16.0000    -0.4733     2.0335     2.0335     0.0000
  5 O      8.3004     8.0000    -0.3004     1.8055     1.8055     0.0000
  6 C      6.1535     6.0000    -0.1535     3.7026     3.7026     0.0000
  7 C      6.4485     6.0000    -0.4485     3.7611     3.7611     0.0000
  8 S     16.1165    16.0000    -0.1165     2.2092     2.2092    -0.0000
  9 C      6.2526     6.0000    -0.2526     3.7327     3.7327    -0.0000
 10 S     16.1639    16.0000    -0.1639     2.1565     2.1565     0.0000
 11 P     14.3400    15.0000     0.6600     5.1645     5.1645     0.0000
 12 S     16.4349    16.0000    -0.4349     2.0631     2.0631     0.0000
 13 O      8.2576     8.0000    -0.2576     1.7810     1.7810    -0.0000
 14 C      6.1836     6.0000    -0.1836     3.6850     3.6850     0.0000
 15 C      6.4197     6.0000    -0.4197     3.7766     3.7766    -0.0000
 16 O      8.2860     8.0000    -0.2860     1.8444     1.8444     0.0000
 17 C      6.1114     6.0000    -0.1114     3.6855     3.6855     0.0000
 18 C      6.4508     6.0000    -0.4508     3.8260     3.8260    -0.0000
 19 H      0.8549     1.0000     0.1451     0.9644     0.9644     0.0000
 20 H      0.8487     1.0000     0.1513     0.9598     0.9598     0.0000
 21 H      0.8200     1.0000     0.1800     0.9558     0.9558     0.0000
 22 H      0.8416     1.0000     0.1584     0.9599     0.9599    -0.0000
 23 H      0.8497     1.0000     0.1503     0.9523     0.9523    -0.0000
 24 H      0.8517     1.0000     0.1483     0.9495     0.9495     0.0000
 25 H      0.8276     1.0000     0.1724     0.9528     0.9528     0.0000
 26 H      0.8433     1.0000     0.1567     0.9598     0.9598     0.0000
 27 H      0.8510     1.0000     0.1490     0.9640     0.9640     0.0000
 28 H      0.8250     1.0000     0.1750     0.9579     0.9579     0.0000
 29 H      0.7802     1.0000     0.2198     0.9440     0.9440    -0.0000
 30 H      0.7815     1.0000     0.2185     0.9481     0.9481    -0.0000
 31 H      0.8559     1.0000     0.1441     0.9511     0.9511    -0.0000
 32 H      0.8184     1.0000     0.1816     0.9559     0.9559     0.0000
 33 H      0.8259     1.0000     0.1741     0.9612     0.9612    -0.0000
 34 H      0.8487     1.0000     0.1513     0.9624     0.9624     0.0000
 35 H      0.8569     1.0000     0.1431     0.9642     0.9642    -0.0000
 36 H      0.8423     1.0000     0.1577     0.9519     0.9519    -0.0000
 37 H      0.8587     1.0000     0.1413     0.9629     0.9629     0.0000
 38 H      0.8539     1.0000     0.1461     0.9634     0.9634    -0.0000
 39 H      0.8343     1.0000     0.1657     0.9613     0.9613    -0.0000
 40 H      0.8418     1.0000     0.1582     0.9616     0.9616    -0.0000

  Mayer bond orders larger than 0.100000
B(  0-C ,  1-C ) :   0.9511 B(  0-C , 19-H ) :   0.9635 B(  0-C , 20-H ) :   0.9700 
B(  0-C , 21-H ) :   0.9626 B(  1-C ,  2-O ) :   0.7567 B(  1-C , 22-H ) :   0.9618 
B(  1-C , 23-H ) :   0.9612 B(  2-O ,  3-P ) :   1.1423 B(  3-P ,  4-S ) :   1.7547 
B(  3-P ,  5-O ) :   1.0678 B(  3-P ,  8-S ) :   1.1020 B(  5-O ,  6-C ) :   0.8177 
B(  6-C ,  7-C ) :   0.9227 B(  6-C , 24-H ) :   0.9580 B(  6-C , 25-H ) :   0.9664 
B(  7-C , 26-H ) :   0.9685 B(  7-C , 27-H ) :   0.9587 B(  7-C , 28-H ) :   0.9618 
B(  8-S ,  9-C ) :   0.8997 B(  9-C , 10-S ) :   0.9141 B(  9-C , 29-H ) :   0.9106 
B(  9-C , 30-H ) :   0.8991 B( 10-S , 11-P ) :   0.9800 B( 11-P , 12-S ) :   1.8345 
B( 11-P , 13-O ) :   1.0406 B( 11-P , 16-O ) :   1.1873 B( 13-O , 14-C ) :   0.7963 
B( 14-C , 15-C ) :   0.9335 B( 14-C , 31-H ) :   0.9657 B( 14-C , 32-H ) :   0.9466 
B( 15-C , 33-H ) :   0.9506 B( 15-C , 34-H ) :   0.9694 B( 15-C , 35-H ) :   0.9644 
B( 16-O , 17-C ) :   0.7556 B( 17-C , 18-C ) :   0.9515 B( 17-C , 36-H ) :   0.9624 
B( 17-C , 37-H ) :   0.9643 B( 18-C , 38-H ) :   0.9662 B( 18-C , 39-H ) :   0.9653 
B( 18-C , 40-H ) :   0.9691 

-------
TIMINGS
-------

Total SCF time: 0 days 0 hours 1 min 15 sec 

Total time                  ....      75.951 sec
Sum of individual times     ....      75.372 sec  ( 99.2%)

SCF preparation             ....       0.385 sec  (  0.5%)
Fock matrix formation       ....      71.832 sec  ( 94.6%)
  Startup                   ....       0.152 sec  (  0.2% of F)
  Split-RI-J                ....      24.382 sec  ( 33.9% of F)
  XC integration            ....      45.812 sec  ( 63.8% of F)
    Basis function eval.    ....       7.202 sec  ( 15.7% of XC)
    Density eval.           ....      17.037 sec  ( 37.2% of XC)
    XC-Functional eval.     ....       3.177 sec  (  6.9% of XC)
    XC-Potential eval.      ....      17.040 sec  ( 37.2% of XC)
Diagonalization             ....       0.000 sec  (  0.0%)
Density matrix formation    ....       0.818 sec  (  1.1%)
Total Energy calculation    ....       0.053 sec  (  0.1%)
Population analysis         ....       0.434 sec  (  0.6%)
Orbital Transformation      ....       0.249 sec  (  0.3%)
Orbital Orthonormalization  ....       0.000 sec  (  0.0%)
DIIS solution               ....       1.372 sec  (  1.8%)
  MO trafo                  ....       0.000 sec  (  0.0 % of DIIS)
  Orb grad                  ....       0.000 sec  (  0.0 % of DIIS)
  Energy W gradient         ....       0.000 sec  (  0.0 % of DIIS)
  DIIS error                ....       0.113 sec  (  8.2 % of DIIS)
  DIIS work                 ....       1.105 sec  ( 80.5 % of DIIS)
  Form Q                    ....       0.000 sec  (  0.0 % of DIIS)
  Form QpQm                 ....       0.000 sec  (  0.0 % of DIIS)
  Exp/Cayley                ....       0.000 sec  (  0.0 % of DIIS)
  Orb update                ....       0.000 sec  (  0.0 % of DIIS)
  Wake-sleep                ....       0.026 sec  (  1.9 % of DIIS)
SOSCF solution              ....       0.227 sec  (  0.3%)
  MO trafo                  ....       0.176 sec  ( 77.4 % of SOSCF)
  Orb grad                  ....       0.001 sec  (  0.5 % of SOSCF)
  Rot update                ....       0.000 sec  (  0.1 % of SOSCF)
  Step                      ....       0.050 sec  ( 21.9 % of SOSCF)
Finished LeanSCF after  76.0 sec

Maximum memory used throughout the entire LEANSCF-calculation: 73.6 MB


-------------------------------------------------------------------------------
                          DFT DISPERSION CORRECTION                            
                                                                               
                                DFTD4 V3.4.0                                   
-------------------------------------------------------------------------------
The R2SCAN3C composite method is recognized
Using three-body term ABC
Active option DFTDOPT                   ...         5   

-------------------------   ----------------
Dispersion correction           -0.021756794
-------------------------   ----------------

------------------   -----------------
gCP correction             0.046686797
------------------   -----------------

-------------------------   --------------------
FINAL SINGLE POINT ENERGY     -2932.461657313396
-------------------------   --------------------


------------------------------------------------------------------------------
                              ORCA PROPERTY CALCULATIONS
------------------------------------------------------------------------------

GBWName                                 ... sp_gas.gbw
Number of atoms                         ...     41
Number of basis functions               ...    539
Max core memory                         ...   1024 MB

Electric properties:
Dipole moment                           ... YES
Quadrupole moment                       ...  NO
Static polarizability (Dipole/Dipole)   ...  NO
Static polarizability (Dipole/Quad.)    ...  NO
Static polarizability (Quad./Quad.)     ...  NO
Static polarizability (Velocity)        ...  NO

Atomic electric properties:
Dipole moment                           ...  NO
Quadrupole moment                       ...  NO
Static polarizability                   ...  NO

Choice of electric origin               ... Center of mass
Position of electric origin             ...     0.000003    -0.000002     0.000002

General magnetic properties:
Magnetizability                         ...  NO

EPR properties:
g-Tensor (aka g-matrix)                 ...  NO
Zero-Field splitting spin-orbit         ...  NO
Zero-field splitting spin-spin          ...  NO
Hyperfine couplings                     ...  NO (   0 nuclei)
Quadrupole couplings                    ...  NO (   0 nuclei)
Contact density                         ...  NO (   0 nuclei)

NMR properties:
Chemical shifts                         ...  NO (   0 nuclei)
Spin-rotation constants                 ...  NO (   0 nuclei)
Spin-spin couplings                     ...  NO (   0 nuclei,    0 pairs)

Choice of magnetic origin               ... GIAO
Position of magnetic origin             ...     0.000000     0.000000     0.000000

Properties with geometric perturbations:
SCF Hessian                             ...  NO
IR spectrum                             ...  NO
VCD spectrum                            ...  NO
X-ray spectroscopy properties:
SCF XES/XAS/RIXS spectra                ...  NO


-------------
DIPOLE MOMENT
-------------

Method             : SCF
Type of density    : Electron Density
Multiplicity       :   1
Irrep              :   0
Energy             : -2932.4865873168719190 Eh
Relativity type    : 
Basis              : AO
                                X                 Y                 Z
Electronic contribution:     -0.559811213       7.863951017     -12.529718091
Nuclear contribution   :      1.189282068      -8.963803199      13.872464462
                        -----------------------------------------
Total Dipole Moment    :      0.629470856      -1.099852182       1.342746371
                        -----------------------------------------
Magnitude (a.u.)       :      1.846314219
Magnitude (Debye)      :      4.692957790



--------------------
Rotational spectrum 
--------------------
 
Rotational constants in cm-1:             0.012689             0.005011             0.004529 
Rotational constants in MHz :           380.413481           150.230054           135.779949 

Dipole components along the rotational axes: 
x,y,z [a.u.] :     0.616656    -1.325323    -1.127887 
x,y,z [Debye]:     1.567415    -3.368705    -2.866861 

 

Dipole moment calculation done in   0.0 sec 

Maximum memory used throughout the entire PROP-calculation: 51.8 MB

--------------------------------
SUGGESTED CITATIONS FOR THIS RUN
--------------------------------

Below you find a list of papers that are relevant to this ORCA run
We neither can nor want to force you to cite these papers, but we appreciate if you do
You receive ORCA, which is the product of decades of hard work by many enthusiastic individuals, for free
The only thing we kindly ask in return is that you cite our papers,
We deeply appreciate it, if you show your appreciation for ORCA by not just citing the generic ORCA reference.

Please note that relegating all ORCA citations to the supporting information does *not* help us.
SI sections are not indexed - citations you put there will not count into any citation statistics
But we need these citations in order to attract the funding resources that allow us to do what we are doing

Therefore, if you are a happy ORCA user, please consider citing a few of the papers listed below in the main body of your paper

In addition to the list printed below, the program has created the file sp_gas.bibtex that contains the list in bibtex format
You can import this file easily into all common literature databanks and citation aid programs


List of essential papers. We consider these as the minimum necessary citations

  1. Neese,F.
     Software update: the ORCA program system, version 5.0
     WIRES Comput. Molec. Sci., 2022 12(1)e1606
     doi.org/10.1002/wcms.1606
  2. Grimme,S.; Hansen,A.; Ehlert,S.; Mewes,J.
     r2SCAN-3c: A 'Swiss army knife' composite electronic-structure method
     J. Chem. Phys., 2021 154 064103
     doi.org/10.1063/5.0040021

List of papers to cite with high priority. The work reported in these papers was absolutely
necessary for this run to complete.
Our perspective: the developers of density functionals and basis sets usually get cited in chemistry papers
Good! But without the algorithms to do something with them, the functionals or basis sets would not do anything.
Hence, in our opinion, the algorithm design and method developments papers are equally worthy of getting cited

  1. Neese,F.
     An improvement of the resolution of the identity approximation for the formation of the Coulomb matrix
     J. Comp. Chem., 2003 24(14)1740-1747
     doi.org/10.1002/jcc.10318
  2. Neese,F.
     The SHARK Integral Generation and Digestion System
     J. Comp. Chem., 2022  1-16
     doi.org/10.1002/jcc.26942
  3. Lehtola,S.; Steigemann,C.; Oliveira,M.; Marques,M.
     Recent developments in Libxc - A comprehensive library of functionals for density functional theory
     Software X, 2018 7 
     doi.org/10.1016/j.softx.2017.11.002
  4. Caldeweyher,E.; Bannwarth,C.; Grimme,S.
     Extension of the D3 dispersion coefficient model
     J. Chem. Phys., 2017 147 034112-XXXX
     doi.org/10.1063/1.4993215
  5. Caldeweyher,E.; Ehlert,S.; Hansen,A.; Neugebauer,H.; Spicher,S.; Bannwarth,C.; Grimme,S.
     A generally applicable atomic-charge dependent London dispersion correction
     J. Chem. Phys., 2019 150 154122-XXXX
     doi.org/10.1063/1.5090222
  6. Caldeweyher,E.; Mewes,J.; Ehlert,S.; Grimme,S.
     Extension and evaluation of the D4 London-dispersion model for periodic systems
     Phys. Chem. Chem. Phys., 2020 22(16)8499-8512
     doi.org/10.1039/D0CP00502A

List of suggested additional citations. These are papers that are important in the 'surrounding' of 
of this run, or papers that preceded the highly important papers. If you like your results we are grateful for a citation.

  1. Neese,F.
     The ORCA program system
     WIRES Comput. Molec. Sci., 2012 2(1)73-78
     doi.org/10.1002/wcms.81
  2. Neese,F.
     Software update: the ORCA program system, version 4.0
     WIRES Comput. Molec. Sci., 2018 8(1)1-6
     doi.org/10.1002/wcms.1327
  3. Neese,F.; Wennmohs,F.; Becker,U.; Riplinger,C.
     The ORCA quantum chemistry program package
     J. Chem. Phys., 2020 152 Art. No. L224108
     doi.org/10.1063/5.0004608

List of optional additional citations

  1. Neese,F.
     Approximate second-order SCF convergence for spin unrestricted wavefunctions
     Chem. Phys. Lett., 2000 325(1-3)93-98
     doi.org/10.1016/s0009-2614(00)00662-x

Timings for individual modules:

Sum of individual times          ...       79.965 sec (=   1.333 min)
Startup calculation              ...        3.114 sec (=   0.052 min)   3.9 %
SCF iterations                   ...       76.705 sec (=   1.278 min)  95.9 %
Property calculations            ...        0.146 sec (=   0.002 min)   0.2 %
                             ****ORCA TERMINATED NORMALLY****
TOTAL RUN TIME: 0 days 0 hours 1 minutes 20 seconds 762 msec
