      -----------------------------------------------------------      
     |                   =====================                   |     
     |                           x T B                           |     
     |                   =====================                   |     
     |                         S. Grimme                         |     
     |          Mulliken Center for Theoretical Chemistry        |     
     |                    University of Bonn                     |     
      -----------------------------------------------------------      

   * xtb version 6.7.1 (edcfbbe) compiled by 'albert@albert-system' on 2024-07-22

   xtb is free software: you can redistribute it and/or modify it under
   the terms of the GNU Lesser General Public License as published by
   the Free Software Foundation, either version 3 of the License, or
   (at your option) any later version.
   
   xtb is distributed in the hope that it will be useful,
   but WITHOUT ANY WARRANTY; without even the implied warranty of
   MERCHANTABILITY or FITNESS FOR A PARTICULAR PURPOSE.  See the
   GNU Lesser General Public License for more details.
   
   Cite this work as:
   * C. Bannwarth, E. Caldeweyher, S. Ehlert, A. Hansen, P. Pracht,
     J. Seibert, S. Spicher, S. Grimme, WIREs Comput. Mol. Sci., 2020, 11,
     e01493. DOI: 10.1002/wcms.1493
   
   for GFN2-xTB:
   * C. Bannwarth, S. Ehlert and S. Grimme., J. Chem. Theory Comput., 2019,
     15, 1652-1671. DOI: 10.1021/acs.jctc.8b01176
   for GFN1-xTB:
   * S. Grimme, C. Bannwarth, P. Shushkov, J. Chem. Theory Comput., 2017,
     13, 1989-2009. DOI: 10.1021/acs.jctc.7b00118
   for GFN0-xTB:
   * P. Pracht, E. Caldeweyher, S. Ehlert, S. Grimme, ChemRxiv, 2019, preprint.
     DOI: 10.26434/chemrxiv.8326202.v1
   for GFN-FF:
   * S. Spicher and S. Grimme, Angew. Chem. Int. Ed., 2020, 59, 15665-15673.
     DOI: 10.1002/anie.202004239
   
   for ALPB and GBSA implicit solvation:
   * S. Ehlert, M. Stahn, S. Spicher, S. Grimme, J. Chem. Theory Comput.,
     2021, 17, 4250-4261. DOI: 10.1021/acs.jctc.1c00471
   
   for ddCOSMO and CPCM-X implicit solvation:
   * M. Stahn, S. Ehlert, S. Grimme, J. Phys. Chem. A,
     2023, XX, XXXX-XXXX. DOI: 10.1021/acs.jpca.3c04382
   
   for DFT-D4:
   * E. Caldeweyher, C. Bannwarth and S. Grimme, J. Chem. Phys., 2017,
     147, 034112. DOI: 10.1063/1.4993215
   * E. Caldeweyher, S. Ehlert, A. Hansen, H. Neugebauer, S. Spicher,
     C. Bannwarth and S. Grimme, J. Chem. Phys., 2019, 150, 154122.
     DOI: 10.1063/1.5090222
   * E. Caldeweyher, J.-M. Mewes, S. Ehlert and S. Grimme, Phys. Chem. Chem. Phys.
     2020, 22, 8499-8512. DOI: 10.1039/D0CP00502A
   
   for sTDA-xTB:
   * S. Grimme and C. Bannwarth, J. Chem. Phys., 2016, 145, 054103.
     DOI: 10.1063/1.4959605
   
   in the mass-spec context:
   * V. Asgeirsson, C. Bauer and S. Grimme, Chem. Sci., 2017, 8, 4879.
     DOI: 10.1039/c7sc00601b
   * J. Koopman and S. Grimme, ACS Omega 2019, 4, 12, 15120-15133.
     DOI: 10.1021/acsomega.9b02011
   
   for metadynamics refer to:
   * S. Grimme, J. Chem. Theory Comput., 2019, 155, 2847-2862
     DOI: 10.1021/acs.jctc.9b00143
   
   for SPH calculations refer to:
   * S. Spicher and S. Grimme, J. Chem. Theory Comput., 2021, 17, 1701-1714
     DOI: 10.1021/acs.jctc.0c01306
   
   for ONIOM refer to:
   * C. Plett, A. Katbashev, S. Ehlert, S. Grimme, M. Bursch,
     Phys. Chem. Chem. Phys., 2023, 25, 17860-17868. DOI: 10.1039/D3CP02178E
   
   for DIPRO refer to:
   * J. Kohn, N. Gildemeister, S. Grimme, D. Fazzi, A. Hansen,
     J. Chem. Phys., 2023, just accepted.
   
   for PTB refer to:
   * S. Grimme, M. Mueller, A. Hansen, J. Chem. Phys., 2023, 158, 124111.
     DOI: 10.1063/5.0137838
   
   with help from (in alphabetical order)
   P. Atkinson, C. Bannwarth, F. Bohle, G. Brandenburg, E. Caldeweyher
   M. Checinski, S. Dohm, S. Ehlert, S. Ehrlich, I. Gerasimov, C. Hölzer
   A. Katbashev, J. Kohn, J. Koopman, C. Lavigne, S. Lehtola, F. März, M. Müller,
   F. Musil, H. Neugebauer, J. Pisarek, C. Plett, P. Pracht, F. Pultar,
   J. Seibert, P. Shushkov, S. Spicher, M. Stahn, M. Steiner, T. Strunk,
   J. Stückrath, T. Rose, and J. Unsleber
   
 * started run on 2025/04/03 at 20:33:39.345     
   ID    Z sym.   atoms
    1    6 C      1, 3-6
    2    7 N      2
    3    1 H      7-13

           -------------------------------------------------
          |                Calculation Setup                |
           -------------------------------------------------

          program call               : /srv/scratch/z5358697/.xtb/bin/xtb xtb_opt.coord --opt normal --orca -I xtb_opt-xcontrol-inp
          hostname                   : k162
          coordinate file            : xtb_opt.coord
          omp threads                :                     1

           -------------------------------------------------
          |                   Orca driver                   |
           -------------------------------------------------
orca executable           : /apps/z_install_tree/linux-rocky8-ivybridge/gcc-12.2.0/orca-6.0.0-srtngmq3qlimg2qxbl6avaaiffipurdx/bin/orca
orca input file           : xtb_opt.inp
orca input line           : 
orca parallel             : false
orca number of threads    : 1
                         * ORCA takes the control...
  ------------------------------------------------------------------------

                                 *****************
                                 * O   R   C   A *
                                 *****************

                                            #,                                       
                                            ###                                      
                                            ####                                     
                                            #####                                    
                                            ######                                   
                                           ########,                                 
                                     ,,################,,,,,                         
                               ,,#################################,,                 
                          ,,##########################################,,             
                       ,#########################################, ''#####,          
                    ,#############################################,,   '####,        
                  ,##################################################,,,,####,       
                ,###########''''           ''''###############################       
              ,#####''   ,,,,##########,,,,          '''####'''          '####       
            ,##' ,,,,###########################,,,                        '##       
           ' ,,###''''                  '''############,,,                           
         ,,##''                                '''############,,,,        ,,,,,,###''
      ,#''                                            '''#######################'''  
     '                                                          ''''####''''         
             ,#######,   #######,   ,#######,      ##                                
            ,#'     '#,  ##    ##  ,#'     '#,    #''#        ,####,   ,####,        
            ##       ##  ##   ,#'  ##            #'  '#       #'       #'  '#        
            ##       ##  #######   ##           ,######,      #####,   #    #        
            '#,     ,#'  ##    ##  '#,     ,#' ,#      #,     #,   #   #,  ,#        
             '#######'   ##     ##  '#######'  #'      '#     '####' # '####'        



                #########################################################
                #                        -***-                          #
                #          Department of theory and spectroscopy        #
                #                                                       #
                #                      Frank Neese                      #
                #                                                       #
                #     Directorship, Architecture, Infrastructure        #
                #                    SHARK, DRIVERS                     #
                #        Core code/Algorithms in most modules           #
                #                                                       #
                #        Max Planck Institute fuer Kohlenforschung      #
                #                Kaiser Wilhelm Platz 1                 #
                #                 D-45470 Muelheim/Ruhr                 #
                #                      Germany                          #
                #                                                       #
                #                  All rights reserved                  #
                #                        -***-                          #
                #########################################################


                         Program Version 6.0.0  -   RELEASE  -


 With contributions from (in alphabetic order):
   Daniel Aravena         : Magnetic Suceptibility
   Michael Atanasov       : Ab Initio Ligand Field Theory (pilot matlab implementation)
   Alexander A. Auer      : GIAO ZORA, VPT2 properties, NMR spectrum
   Ute Becker             : All parallelization in ORCA, NUMFREQ, NUMCALC
   Giovanni Bistoni       : ED, misc. LED, open-shell LED, HFLD
   Martin Brehm           : Molecular dynamics
   Dmytro Bykov           : pre 5.0 version of the SCF Hessian
   Marcos Casanova-Páez   : Triplet and SCS-CIS(D). UHF-(DLPNO)-IP/EA/STEOM-CCSD. UHF-CVS-IP/STEOM-CCSD
   Vijay G. Chilkuri      : MRCI spin determinant printing, contributions to CSF-ICE
   Pauline Colinet        : FMM embedding
   Dipayan Datta          : RHF DLPNO-CCSD density
   Achintya Kumar Dutta   : EOM-CC, STEOM-CC
   Nicolas Foglia         : Exact transition moments, OPA infrastructure, MCD improvements
   Dmitry Ganyushin       : Spin-Orbit,Spin-Spin,Magnetic field MRCI
   Miquel Garcia          : C-PCM and meta-GGA Hessian, CCSD/C-PCM, Gaussian charge scheme
   Tiago L. C. Gouveia    : GS-ROHF, GS-ROCIS
   Yang Guo               : DLPNO-NEVPT2, F12-NEVPT2, CIM, IAO-localization
   Andreas Hansen         : Spin unrestricted coupled pair/coupled cluster methods
   Ingolf Harden          : AUTO-CI MPn and infrastructure 
   Benjamin Helmich-Paris : MC-RPA, TRAH-(SCF,CASSCF), AVAS, COSX integrals, SCF dyn. polar.
   Lee Huntington         : MR-EOM, pCC
   Robert Izsak           : Overlap fitted RIJCOSX, COSX-SCS-MP3, EOM
   Riya Kayal             : Wick's Theorem for AUTO-CI, AUTO-CI UHF-CCSDT
   Emily Kempfer          : AUTO-CI, RHF CISDT and CCSDT
   Christian Kollmar      : KDIIS, OOCD, Brueckner-CCSD(T), CCSD density, CASPT2, CASPT2-K, improved NEVPT2
   Axel Koslowski         : Symmetry handling
   Simone Kossmann        : Meta GGA functionals, TD-DFT gradient, OOMP2, (MP2 Hessian; deprecated post 5.0)
   Lucas Lang             : DCDCAS
   Marvin Lechner         : AUTO-CI (C++ implementation), FIC-MRCC
   Spencer Leger          : CASSCF response
   Dagmar Lenk            : GEPOL surface, SMD, ORCA-2-JSON
   Dimitrios Liakos       : Extrapolation schemes; Compound Job, initial MDCI parallelization
   Dimitrios Manganas     : Further ROCIS development; embedding schemes. LFT, Crystal Embedding
   Dimitrios Pantazis     : SARC Basis sets
   Anastasios Papadopoulos: AUTO-CI, single reference methods and gradients
   Taras Petrenko         : pre 6.0 DFT Hessian and TD-DFT gradient, (ASA, deprecated), ECA, 1-Electron XAS/XES, NRVS
   Peter Pinski           : DLPNO-MP2, DLPNO-MP2 Gradient
   Christoph Reimann      : Effective Core Potentials
   Marius Retegan         : Local ZFS, SOC
   Christoph Riplinger    : Optimizer, TS searches, QM/MM, DLPNO-CCSD(T), (RO)-DLPNO pert. Triples
   Michael Roemelt        : Original ROCIS implementation
   Masaaki Saitow         : Open-shell DLPNO-CCSD energy and density
   Barbara Sandhoefer     : DKH picture change effects
   Kantharuban Sivalingam : CASSCF convergence/infrastructure, NEVPT2 and variants, FIC-MRCI
   Bernardo de Souza      : ESD, SOC TD-DFT
   Georgi Stoychev        : AutoAux, RI-MP2 NMR, DLPNO-MP2 response, X2C
   Van Anh Tran           : RI-MP2 g-tensors
   Willem Van den Heuvel  : Paramagnetic NMR
   Zikuan Wang            : NOTCH, Electric field optimization 
   Frank Wennmohs         : Technical directorship and infrastructure
   Hang Xu                : AUTO-CI-Response properties 


 We gratefully acknowledge several colleagues who have allowed us to
 interface, adapt or use parts of their codes:
   Stefan Grimme, W. Hujo, H. Kruse, P. Pracht,  : VdW corrections, initial TS optimization,
                  C. Bannwarth, S. Ehlert,         DFT functionals, gCP, sTDA/sTD-DF
                  L. Wittmann, M. Mueller
   Ed Valeev, F. Pavosevic, A. Kumar             : LibInt (2-el integral package), F12 methods
   Garnet Chan, S. Sharma, J. Yang, R. Olivares  : DMRG
   Ulf Ekstrom                                   : XCFun DFT Library
   Mihaly Kallay                                 : mrcc  (arbitrary order and MRCC methods)
   Frank Weinhold                                : gennbo (NPA and NBO analysis)
   Simon Mueller                                 : openCOSMO-RS
   Christopher J. Cramer and Donald G. Truhlar   : smd solvation model
   Lars Goerigk                                  : TD-DFT with DH, B97 family of functionals
   V. Asgeirsson, H. Jonsson                     : NEB implementation
   FAccTs GmbH                                   : IRC, NEB, NEB-TS, DLPNO-Multilevel, CI-OPT
                                                   MM, QMMM, 2- and 3-layer-ONIOM, Crystal-QMMM,
                                                   LR-CPCM, SF, NACMEs, symmetry and pop. for TD-DFT,
                                                   nearIR, NL-DFT gradient (VV10), updates on ESD,
                                                   ML-optimized integration grids, MBIS, APM,
                                                   GOAT, DOCKER, SOLVATOR, interface openCOSMO-RS
   S Lehtola, MJT Oliveira, MAL Marques          : LibXC Library
   Liviu Ungur et al                             : ANISO software


 Your calculation uses the libint2 library for the computation of 2-el integrals
 For citations please refer to: http://libint.valeyev.net

 Your ORCA version has been built with support for libXC version: 6.2.2
 For citations please refer to: https://libxc.gitlab.io

 This ORCA versions uses:
   CBLAS   interface :  Fast vector & matrix operations
   LAPACKE interface :  Fast linear algebra routines
   SCALAPACK package :  Parallel linear algebra routines
   Shared memory     :  Shared parallel matrices
   BLAS/LAPACK       :  OpenBLAS 0.3.27  USE64BITINT DYNAMIC_ARCH NO_AFFINITY SapphireRapids SINGLE_THREADED
        Core in use  :  SapphireRapids
   Copyright (c) 2011-2014, The OpenBLAS Project




***************************************
The coordinates will be read from file: xtb_opt.xyz
***************************************


Your calculation utilizes the geometrical counterpoise correction gCP
Please cite in your paper:
H.Kruse, S. Grimme J.Chem.Phys., 136, (2012), 154101 
   

Your calculation utilizes the atom-pairwise dispersion correction
based on EEQ partial charges (D4)


Your calculation utilizes the SMD solvation module
Please cite in your paper:
A.V. Marenich, C.J. Cramer, D.G. Truhlar J. Phys. Chem. B, 113, (2009), 6378 

================================================================================

----- Orbital basis set information -----
Your calculation utilizes the basis: def2-mTZVPP
   Stefan Grimme, Andreas Hansen, Sebastian Ehlert, and Jan-Michael Mewes 
   J. Chem. Phys. 154, 064103 (2021). DOI: 10.1063/5.0040021

----- AuxJ basis set information -----
Your calculation utilizes the auxiliary basis: def2/J
   F. Weigend, Phys. Chem. Chem. Phys. 8, 1057 (2006).

================================================================================
                                        WARNINGS
                       Please study these warnings very carefully!
================================================================================

Using LibXC functional ID 497 : Re-regularized SCAN exchange by Furness et al
[ 1]  J. W. Furness, A. D. Kaplan, J. Ning, J. P. Perdew, and J. Sun.,  J. Phys. Chem. Lett. 11, 8208-8215 (2020)
[ 2]  J. W. Furness, A. D. Kaplan, J. Ning, J. P. Perdew, and J. Sun.,  J. Phys. Chem. Lett. 11, 9248-9248 (2020)
Using LibXC functional ID 498 : Re-regularized SCAN correlation by Furness et al
[ 1]  J. W. Furness, A. D. Kaplan, J. Ning, J. P. Perdew, and J. Sun.,  J. Phys. Chem. Lett. 11, 8208-8215 (2020)
[ 2]  J. W. Furness, A. D. Kaplan, J. Ning, J. P. Perdew, and J. Sun.,  J. Phys. Chem. Lett. 11, 9248-9248 (2020)
Using LibXC functional ID 497 : Re-regularized SCAN exchange by Furness et al
[ 1]  J. W. Furness, A. D. Kaplan, J. Ning, J. P. Perdew, and J. Sun.,  J. Phys. Chem. Lett. 11, 8208-8215 (2020)
[ 2]  J. W. Furness, A. D. Kaplan, J. Ning, J. P. Perdew, and J. Sun.,  J. Phys. Chem. Lett. 11, 9248-9248 (2020)
Using LibXC functional ID 498 : Re-regularized SCAN correlation by Furness et al
[ 1]  J. W. Furness, A. D. Kaplan, J. Ning, J. P. Perdew, and J. Sun.,  J. Phys. Chem. Lett. 11, 8208-8215 (2020)
[ 2]  J. W. Furness, A. D. Kaplan, J. Ning, J. P. Perdew, and J. Sun.,  J. Phys. Chem. Lett. 11, 9248-9248 (2020)

================================================================================
                                       INPUT FILE
================================================================================
NAME = xtb_opt.inp
|  1> ! r2scan-3c def2/J RI DEFGRID2 scfconv7 ENGRAD tightSCF miniprint
|  2> %cpcm
|  3>     smd true
|  4>     smdsolvent "water"
|  5> end
|  6> * xyzfile 0 1 xtb_opt.xyz
|  7> 
|  8>                          ****END OF INPUT****
================================================================================

                     *******************************
                     * Energy+Gradient Calculation *
                     *******************************

---------------------------------
CARTESIAN COORDINATES (ANGSTROEM)
---------------------------------
  C      2.095800    0.000006    0.012380
  N      0.658702    0.000359   -0.017479
  C     -0.131807    1.102266   -0.005076
  C     -1.442380    0.703350    0.006630
  C     -1.441970   -0.703933    0.006743
  C     -0.131199   -1.102076   -0.005098
  H      2.462296   -0.022605    1.041691
  H      2.472729   -0.875805   -0.513293
  H      2.471255    0.898611   -0.473986
  H      0.288191    2.088803   -0.010040
  H     -2.303923    1.342735    0.011630
  H     -2.303170   -1.343828    0.011711
  H      0.289535   -2.088293   -0.010457

----------------------------
CARTESIAN COORDINATES (A.U.)
----------------------------
  NO LB      ZA    FRAG     MASS         X           Y           Z
   0 C     6.0000    0    12.011    3.960489    0.000012    0.023395
   1 N     7.0000    0    14.007    1.244766    0.000679   -0.033031
   2 C     6.0000    0    12.011   -0.249080    2.082980   -0.009593
   3 C     6.0000    0    12.011   -2.725703    1.329139    0.012529
   4 C     6.0000    0    12.011   -2.724929   -1.330240    0.012742
   5 C     6.0000    0    12.011   -0.247931   -2.082622   -0.009633
   6 H     1.0000    0     1.008    4.653065   -0.042717    1.968511
   7 H     1.0000    0     1.008    4.672782   -1.655031   -0.969983
   8 H     1.0000    0     1.008    4.669995    1.698129   -0.895704
   9 H     1.0000    0     1.008    0.544602    3.947266   -0.018974
  10 H     1.0000    0     1.008   -4.353783    2.537401    0.021977
  11 H     1.0000    0     1.008   -4.352360   -2.539466    0.022131
  12 H     1.0000    0     1.008    0.547142   -3.946301   -0.019761

------------------------------------------------------------------------------
                   ___                                                        
                  /   \      - P O W E R E D   B Y -                         
                 /     \                                                     
                 |  |  |   _    _      __       _____    __    __             
                 |  |  |  | |  | |    /  \     |  _  \  |  |  /  |          
                  \  \/   | |  | |   /    \    | | | |  |  | /  /          
                 / \  \   | |__| |  /  /\  \   | |_| |  |  |/  /          
                |  |  |   |  __  | /  /__\  \  |    /   |      \           
                |  |  |   | |  | | |   __   |  |    \   |  |\   \          
                \     /   | |  | | |  |  |  |  | |\  \  |  | \   \       
                 \___/    |_|  |_| |__|  |__|  |_| \__\ |__|  \__/        
                                                                              
                      - O R C A' S   B I G   F R I E N D -                    
                                      &                                       
                       - I N T E G R A L  F E E D E R -                       
                                                                              
 v1 FN, 2020, v2 2021, v3 2022-2024                                           
------------------------------------------------------------------------------


----------------------
SHARK INTEGRAL PACKAGE
----------------------

Number of atoms                             ...     13
Number of basis functions                   ...    154
Number of shells                            ...     76
Maximum angular momentum                    ...      2
Integral batch strategy                     ... SHARK/LIBINT Hybrid
RI-J (if used) integral strategy            ... SPLIT-RIJ (Revised 2003 algorithm where possible)
Printlevel                                  ...      1
Contraction scheme used                     ... SEGMENTED contraction
Prescreening option                         ... SCHWARTZ
   Thresh                                   ... 3.000e-11
   Tcut                                     ... 1.000e-12
   Tpresel                                  ... 1.000e-12 
Coulomb Range Separation                    ... NOT USED
Exchange Range Separation                   ... NOT USED
Multipole approximations                    ... NOT USED
Finite Nucleus Model                        ... NOT USED
CABS basis                                  ... NOT available
Auxiliary Coulomb fitting basis             ... AVAILABLE
   # of basis functions in Aux-J            ...    371
   # of shells in Aux-J                     ...    125
   Maximum angular momentum in Aux-J        ...      4
Auxiliary J/K fitting basis                 ... NOT available
Auxiliary Correlation fitting basis         ... NOT available
Auxiliary 'external' fitting basis          ... NOT available

Checking pre-screening integrals            ... done (  0.0 sec) Dimension = 76
Check shell pair data                       ... done (  0.0 sec)
Shell pair information
Shell pair cut-off parameter TPreSel        ...   1.0e-12
Total number of shell pairs                 ...      2926
Shell pairs after pre-screening             ...      2801
Total number of primitive shell pairs       ...     10593
Primitive shell pairs kept                  ...      7660
          la=0 lb=0:    931 shell pairs
          la=1 lb=0:   1050 shell pairs
          la=1 lb=1:    315 shell pairs
          la=2 lb=0:    304 shell pairs
          la=2 lb=1:    173 shell pairs
          la=2 lb=2:     28 shell pairs

Calculating one electron integrals          ... done (  0.0 sec)
Calculating RI/J V-Matrix + Cholesky decomp.... done (  0.2 sec)
Calculating Nuclear repulsion               ... done (  0.0 sec) ENN=    225.692608758271 Eh

Diagonalization of the overlap matrix:
Smallest eigenvalue                        ... 8.933e-05
Time for diagonalization                   ...    0.001 sec
Threshold for overlap eigenvalues          ... 1.000e-07
Number of eigenvalues below threshold      ... 0
Time for construction of square roots      ...    0.014 sec
Total time needed                          ...    0.023 sec

-------------------
DFT GRID GENERATION
-------------------

General Integration Accuracy     IntAcc      ... 4.388
Radial Grid Type                 RadialGrid  ... OptM3 with GC (2021)
Angular Grid (max. ang.)         AngularGrid ... 4 (Lebedev-302)
Angular grid pruning method      GridPruning ... 4 (adaptive)
Weight generation scheme         WeightScheme... mBecke (2022)
Basis function cutoff            BFCut       ... 1.0000e-11
Integration weight cutoff        WCut        ... 1.0000e-14
Partially contracted basis set               ... off
Rotationally invariant grid construction     ... off
Angular grids for H and He will be reduced by one unit

Total number of grid points                  ...    58735
Total number of batches                      ...      924
Average number of points per batch           ...       63
Average number of grid points per atom       ...     4518
Initializing property integral containers    ... done (  0.0 sec)

SHARK setup successfully completed in   1.4 seconds

Maximum memory used throughout the entire STARTUP-calculation: 25.8 MB
Occupation numbers will be reassigned to an Aufbau configuration
             **** ENERGY FILE WAS UPDATED (xtb_opt.en.tmp) ****
Finished Guess after   0.4 sec
Maximum memory used throughout the entire GUESS-calculation: 10.7 MB
--------------------
CPCM SOLVATION MODEL
--------------------
CPCM parameters:
  Epsilon                                         ...      78.3550
  Refrac                                          ...       1.3328
  Rsolv                                           ...       1.3000
  Surface type                                    ... GAUSSIAN VDW
  Discretization scheme                           ... Constant charge density
    Threshold for H atoms                         ...       5.0000 (charges/Ang^2)
    Threshold for non-H atoms                     ...       5.0000 (charges/Ang^2)
  Epsilon function type                           ...         CPCM
Solvent:                                          ... WATER
SMD-CDS solvent descriptors:
  Soln                                            ...       1.3328
  Soln25                                          ...       1.3323
  Sola                                            ...       0.0000
  Solb                                            ...       0.0000
  Solg                                            ...       0.0000
  Solc                                            ...       0.0000
  Solh                                            ...       0.0000
Radii:
  Scheme                                          ... Element-dependent radii
  Radius for C  used is    3.4960 Bohr (=   1.8500 Ang.)
  Radius for N  used is    3.5716 Bohr (=   1.8900 Ang.)
  Radius for H  used is    2.2677 Bohr (=   1.2000 Ang.)
Calculating surface                               ...        done! (  0.0s)
Cavity surface points                             ...         1048
Cavity Volume                                     ...     643.0866
Cavity Surface-area                               ...     417.4167
Calculating surface distance matrix               ...        done! (  0.0s)
Performing Cholesky decomposition & store         ...        done! (  0.1s)
Overall time for CPCM initialization              ...                 0.1s

----------------------------------------D-I-I-S--------------------------------------------
Iteration    Energy (Eh)           Delta-E    RMSDP     MaxDP     DIISErr   Damp  Time(sec)
-------------------------------------------------------------------------------------------
               ***  Starting incremental Fock matrix formation  ***
                              *** Initializing SOSCF ***
---------------------------------------S-O-S-C-F--------------------------------------
Iteration    Energy (Eh)           Delta-E    RMSDP     MaxDP     MaxGrad    Time(sec)
--------------------------------------------------------------------------------------
    1    -249.4176389093299520     0.00e+00  3.01e-06  8.03e-05  1.43e-05     1.9
               *** Restarting incremental Fock matrix formation ***
    2    -249.4176389079351850     1.39e-09  3.83e-06  1.31e-04  3.13e-05     1.9
    3    -249.4176388523748926     5.56e-08  2.64e-06  9.12e-05  7.43e-05     1.5
                 **** Energy Check signals convergence ****

               *****************************************************
               *                     SUCCESS                       *
               *           SCF CONVERGED AFTER   3 CYCLES          *
               *****************************************************


SMD CDS free energy correction energy :                 3.78612     Kcal/mol
Total Energy after SMD CDS correction =              -249.411605286 Eh
             **** ENERGY FILE WAS UPDATED (xtb_opt.en.tmp) ****

----------------
TOTAL SCF ENERGY
----------------

Total Energy       :       -249.41160528589273 Eh           -6786.83482 eV

Components:
Nuclear Repulsion  :        225.69260875827123 Eh            6141.40811 eV
Electronic Energy  :       -475.09772181408357 Eh          -12928.06626 eV
One Electron Energy:       -782.44892070072729 Eh          -21291.51757 eV
Two Electron Energy:        307.35119888664372 Eh            8363.45131 eV
CPCM Dielectric    :         -0.01252579656257 Eh              -0.34084 eV
SMD CDS (Gcds)     :          0.00603356648217 Eh               0.16418 eV

Virial components:
Potential Energy   :       -497.89885394702276 Eh          -13548.51661 eV
Kinetic Energy     :        248.48724866113000 Eh            6761.68179 eV
Virial Ratio       :          2.00371993585081

DFT components:
N(Alpha)           :       21.999973251538 electrons
N(Beta)            :       21.999973251538 electrons
N(Total)           :       43.999946503076 electrons
E(X)               :      -35.205075102042 Eh       
E(C)               :       -1.410932420683 Eh       
E(XC)              :      -36.616007522725 Eh       

CPCM Solvation Model Properties:
Surface-charge          :         -0.03990677956611
Corrected charge        :         -0.00000000000000
Outlying charge corr.   :          0.00013947804414 Eh               0.00380 eV
Free-energy (cav+disp)  :          0.00603356648217 Eh               0.16418 eV

---------------
SCF CONVERGENCE
---------------

  Last Energy change         ...   -5.5560e-08  Tolerance :   1.0000e-07
  Last MAX-Density change    ...    9.1208e-05  Tolerance :   1.0000e-07
  Last RMS-Density change    ...    2.6437e-06  Tolerance :   5.0000e-09
  Last DIIS Error            ...    1.0400e-04  Tolerance :   1.0000e-07
  Last Orbital Gradient      ...    7.4256e-05  Tolerance :   1.0000e-04
  Last Orbital Rotation      ...    1.1062e-04  Tolerance :   1.0000e-04


----------------
ORBITAL ENERGIES
----------------

  NO   OCC          E(Eh)            E(eV) 
   0   2.0000     -14.207446      -386.6043 
   1   2.0000     -10.057091      -273.6674 
   2   2.0000     -10.040594      -273.2184 
   3   2.0000     -10.040485      -273.2155 
   4   2.0000     -10.010553      -272.4010 
   5   2.0000     -10.010162      -272.3903 
   6   2.0000      -0.956582       -26.0299 
   7   2.0000      -0.768863       -20.9218 
   8   2.0000      -0.687946       -18.7200 
   9   2.0000      -0.652440       -17.7538 
  10   2.0000      -0.540167       -14.6987 
  11   2.0000      -0.515026       -14.0146 
  12   2.0000      -0.494327       -13.4513 
  13   2.0000      -0.427012       -11.6196 
  14   2.0000      -0.400630       -10.9017 
  15   2.0000      -0.385524       -10.4907 
  16   2.0000      -0.366437        -9.9713 
  17   2.0000      -0.342690        -9.3251 
  18   2.0000      -0.339570        -9.2402 
  19   2.0000      -0.339333        -9.2337 
  20   2.0000      -0.217067        -5.9067 
  21   2.0000      -0.195388        -5.3168 
  22   0.0000       0.009054         0.2464 
  23   0.0000       0.047481         1.2920 
  24   0.0000       0.091743         2.4965 
  25   0.0000       0.111626         3.0375 
  26   0.0000       0.129646         3.5278 
  27   0.0000       0.145681         3.9642 
  28   0.0000       0.147350         4.0096 
  29   0.0000       0.152606         4.1526 
  30   0.0000       0.165275         4.4974 
  31   0.0000       0.172639         4.6978 
  32   0.0000       0.178077         4.8457 
*Only the first 10 virtual orbitals were printed.
Total SCF time: 0 days 0 hours 0 min 5 sec 
Finished LeanSCF after   6.0 sec

Maximum memory used throughout the entire LEANSCF-calculation: 17.3 MB


-------------------------------------------------------------------------------
                          DFT DISPERSION CORRECTION                            
                                                                               
                                DFTD4 V3.4.0                                   
-------------------------------------------------------------------------------
-------------------------   ----------------
Dispersion correction           -0.003394516
-------------------------   ----------------

------------------   -----------------
gCP correction             0.008722689
------------------   -----------------

-------------------------   --------------------
FINAL SINGLE POINT ENERGY      -249.406277112504
-------------------------   --------------------

------------------------------------------------------------------------------
                         ORCA SCF GRADIENT CALCULATION
------------------------------------------------------------------------------

Nuc. rep. gradient        (SHARK) ... done (  0.0 sec)
HCore & Overlap gradient  (SHARK) ... done (  0.1 sec)
Split-RIJ-J gradient      (SHARK) ... done (  0.5 sec)
XC gradient                       ... done (  1.9 sec)
CPCM gradient                     ... done (  0.3 sec)
SMD gradient                      ... done (  0.0 sec)
Dispersion correction             ... done (  0.0 sec)

-------------------
DISPERSION GRADIENT
-------------------

   1   C   :    0.000077453   -0.000000034    0.000000819
   2   N   :    0.000012256    0.000000010   -0.000000392
   3   C   :   -0.000020622    0.000004836   -0.000000291
   4   C   :   -0.000047511    0.000010605   -0.000000102
   5   C   :   -0.000047531   -0.000010638   -0.000000101
   6   C   :   -0.000020598   -0.000004785   -0.000000293
   7   H   :    0.000034184   -0.000000189    0.000007951
   8   H   :    0.000032707   -0.000006870   -0.000003659
   9   H   :    0.000032646    0.000007033   -0.000003371
  10   H   :   -0.000000164    0.000029450   -0.000000435
  11   H   :   -0.000026345    0.000016005    0.000000156
  12   H   :   -0.000026339   -0.000016021    0.000000157
  13   H   :   -0.000000135   -0.000029401   -0.000000440

Difference to translation invariance:
           :    0.0000000000    0.0000000000    0.0000000000

Difference to rotation invariance:
           :   -0.0000000000    0.0000000000   -0.0000000000

Norm of the Dispersion gradient    ...    0.0001375123
RMS gradient                       ...    0.0000220196
MAX gradient                       ...    0.0000774529
gCP correction                   ... done

------------------
CARTESIAN GRADIENT
------------------

   1   C   :   -0.008600881    0.000096159   -0.003005699
   2   N   :   -0.000134296    0.000022172    0.002663976
   3   C   :   -0.000277471   -0.015100960   -0.000095770
   4   C   :    0.006794503   -0.003001109   -0.000606981
   5   C   :    0.006785834    0.002990308   -0.000570481
   6   C   :   -0.000337067    0.015060865   -0.000084611
   7   H   :   -0.001821802    0.000017236   -0.001495367
   8   H   :   -0.001365104    0.001421911    0.001373784
   9   H   :   -0.001344342   -0.001514010    0.001315478
  10   H   :   -0.003758408   -0.005499058    0.000109901
  11   H   :    0.003913801   -0.004452612    0.000148669
  12   H   :    0.003899373    0.004443635    0.000149309
  13   H   :   -0.003754139    0.005515463    0.000097792

Difference to translation invariance:
           :   -0.0000000000    0.0000000000   -0.0000000000

Difference to rotation invariance:
           :   -0.0000077961    0.0001538849   -0.0000003006

Norm of the Cartesian gradient     ...    0.0288489613
RMS gradient                       ...    0.0046195309
MAX gradient                       ...    0.0151009604

-------
TIMINGS
-------

Total SCF gradient time     ....        3.054 sec

Densities                   ....       0.000 sec  (  0.0%)
One electron gradient       ....       0.067 sec  (  2.2%)
RI-J Coulomb gradient       ....       0.469 sec  ( 15.4%)
XC gradient                 ....       1.893 sec  ( 62.0%)
CPCM gradient               ....       0.316 sec  ( 10.4%)
   A-Matrix (El+Nuc)        ....       0.023 sec  (  0.8%)
   Potential                ....       0.293 sec  (  9.6%)
SMD gradient                ....       0.012 sec  (  0.4%)

Maximum memory used throughout the entire SCFGRAD-calculation: 30.7 MB

------------------------------------------------------------------------------
                              ORCA PROPERTY CALCULATIONS
------------------------------------------------------------------------------

GBWName                                 ... xtb_opt.gbw
Number of atoms                         ...     13
Number of basis functions               ...    154
Max core memory                         ...   1024 MB

Electric properties:
Dipole moment                           ... YES
Quadrupole moment                       ...  NO
Static polarizability (Dipole/Dipole)   ...  NO
Static polarizability (Dipole/Quad.)    ...  NO
Static polarizability (Quad./Quad.)     ...  NO
Static polarizability (Velocity)        ...  NO

Atomic electric properties:
Dipole moment                           ...  NO
Quadrupole moment                       ...  NO
Static polarizability                   ...  NO

Choice of electric origin               ... Center of mass
Position of electric origin             ...     0.000003    -0.000000     0.000000

General magnetic properties:
Magnetizability                         ...  NO

EPR properties:
g-Tensor (aka g-matrix)                 ...  NO
Zero-Field splitting spin-orbit         ...  NO
Zero-field splitting spin-spin          ...  NO
Hyperfine couplings                     ...  NO (   0 nuclei)
Quadrupole couplings                    ...  NO (   0 nuclei)
Contact density                         ...  NO (   0 nuclei)

NMR properties:
Chemical shifts                         ...  NO (   0 nuclei)
Spin-rotation constants                 ...  NO (   0 nuclei)
Spin-spin couplings                     ...  NO (   0 nuclei,    0 pairs)

Choice of magnetic origin               ... GIAO
Position of magnetic origin             ...     0.000000     0.000000     0.000000

Properties with geometric perturbations:
SCF Hessian                             ...  NO
IR spectrum                             ...  NO
VCD spectrum                            ...  NO
X-ray spectroscopy properties:
SCF XES/XAS/RIXS spectra                ...  NO


-------------
DIPOLE MOMENT
-------------

Method             : SCF
Type of density    : Electron Density
Multiplicity       :   1
Irrep              :   0
Energy             :  -249.4116052858927333 Eh
Relativity type    : 
Basis              : AO
                                X                 Y                 Z
Electronic contribution:     -1.917548793       0.001298235      -0.058801969
Nuclear contribution   :      3.171759479      -0.000355386       0.053619655
                        -----------------------------------------
Total Dipole Moment    :      1.254210686       0.000942849      -0.005182314
                        -----------------------------------------
Magnitude (a.u.)       :      1.254221747
Magnitude (Debye)      :      3.187978327



--------------------
Rotational spectrum 
--------------------
 
Rotational constants in cm-1:             0.297374             0.120323             0.087073 
Rotational constants in MHz :          8915.050992          3607.200587          2610.390474 

Dipole components along the rotational axes: 
x,y,z [a.u.] :     1.254211    -0.000943    -0.005182 
x,y,z [Debye]:     3.187950    -0.002397    -0.013172 

 

Dipole moment calculation done in   0.0 sec 

Maximum memory used throughout the entire PROP-calculation: 9.0 MB

--------------------------------
SUGGESTED CITATIONS FOR THIS RUN
--------------------------------

Below you find a list of papers that are relevant to this ORCA run
We neither can nor want to force you to cite these papers, but we appreciate if you do
You receive ORCA, which is the product of decades of hard work by many enthusiastic individuals, for free
The only thing we kindly ask in return is that you cite our papers,
We deeply appreciate it, if you show your appreciation for ORCA by not just citing the generic ORCA reference.

Please note that relegating all ORCA citations to the supporting information does *not* help us.
SI sections are not indexed - citations you put there will not count into any citation statistics
But we need these citations in order to attract the funding resources that allow us to do what we are doing

Therefore, if you are a happy ORCA user, please consider citing a few of the papers listed below in the main body of your paper

In addition to the list printed below, the program has created the file xtb_opt.bibtex that contains the list in bibtex format
You can import this file easily into all common literature databanks and citation aid programs


List of essential papers. We consider these as the minimum necessary citations

  1. Neese,F.
     Software update: the ORCA program system, version 5.0
     WIRES Comput. Molec. Sci., 2022 12(1)e1606
     doi.org/10.1002/wcms.1606
  2. Grimme,S.; Hansen,A.; Ehlert,S.; Mewes,J.
     r2SCAN-3c: A 'Swiss army knife' composite electronic-structure method
     J. Chem. Phys., 2021 154 064103
     doi.org/10.1063/5.0040021

List of papers to cite with high priority. The work reported in these papers was absolutely
necessary for this run to complete.
Our perspective: the developers of density functionals and basis sets usually get cited in chemistry papers
Good! But without the algorithms to do something with them, the functionals or basis sets would not do anything.
Hence, in our opinion, the algorithm design and method developments papers are equally worthy of getting cited

  1. Neese,F.
     An improvement of the resolution of the identity approximation for the formation of the Coulomb matrix
     J. Comp. Chem., 2003 24(14)1740-1747
     doi.org/10.1002/jcc.10318
  2. Garcia-Rates,M.; Neese,F.
     Effect of the Solute Cavity on the Solvation Energy and its Derivatives within the Framework of the Gaussian Charge Scheme
     J. Comput. Chem., 2020 41 922-939
     doi.org/10.1002/jcc.26139
  3. Neese,F.
     The SHARK Integral Generation and Digestion System
     J. Comp. Chem., 2022  1-16
     doi.org/10.1002/jcc.26942
  4. Lehtola,S.; Steigemann,C.; Oliveira,M.; Marques,M.
     Recent developments in Libxc - A comprehensive library of functionals for density functional theory
     Software X, 2018 7 
     doi.org/10.1016/j.softx.2017.11.002
  5. Caldeweyher,E.; Bannwarth,C.; Grimme,S.
     Extension of the D3 dispersion coefficient model
     J. Chem. Phys., 2017 147 034112-XXXX
     doi.org/10.1063/1.4993215
  6. Caldeweyher,E.; Ehlert,S.; Hansen,A.; Neugebauer,H.; Spicher,S.; Bannwarth,C.; Grimme,S.
     A generally applicable atomic-charge dependent London dispersion correction
     J. Chem. Phys., 2019 150 154122-XXXX
     doi.org/10.1063/1.5090222
  7. Caldeweyher,E.; Mewes,J.; Ehlert,S.; Grimme,S.
     Extension and evaluation of the D4 London-dispersion model for periodic systems
     Phys. Chem. Chem. Phys., 2020 22(16)8499-8512
     doi.org/10.1039/D0CP00502A

List of suggested additional citations. These are papers that are important in the 'surrounding' of 
of this run, or papers that preceded the highly important papers. If you like your results we are grateful for a citation.

  1. Neese,F.
     The ORCA program system
     WIRES Comput. Molec. Sci., 2012 2(1)73-78
     doi.org/10.1002/wcms.81
  2. Neese,F.
     Software update: the ORCA program system, version 4.0
     WIRES Comput. Molec. Sci., 2018 8(1)1-6
     doi.org/10.1002/wcms.1327
  3. Neese,F.; Wennmohs,F.; Becker,U.; Riplinger,C.
     The ORCA quantum chemistry program package
     J. Chem. Phys., 2020 152 Art. No. L224108
     doi.org/10.1063/5.0004608

List of optional additional citations

  1. Neese,F.
     Approximate second-order SCF convergence for spin unrestricted wavefunctions
     Chem. Phys. Lett., 2000 325(1-3)93-98
     doi.org/10.1016/s0009-2614(00)00662-x

Timings for individual modules:

Sum of individual times          ...       11.151 sec (=   0.186 min)
Startup calculation              ...        1.425 sec (=   0.024 min)  12.8 %
SCF iterations                   ...        6.511 sec (=   0.109 min)  58.4 %
Property calculations            ...        0.093 sec (=   0.002 min)   0.8 %
SCF Gradient evaluation          ...        3.122 sec (=   0.052 min)  28.0 %
                             ****ORCA TERMINATED NORMALLY****
TOTAL RUN TIME: 0 days 0 hours 0 minutes 12 seconds 40 msec
  ------------------------------------------------------------------------
          * successful ORCA run, taking over control again...

         :::::::::::::::::::::::::::::::::::::::::::::::::::::
         ::                  ORCA SUMMARY                   ::
         :::::::::::::::::::::::::::::::::::::::::::::::::::::
         :: total energy            -249.406277112504 Eh    ::
         :: gradient norm              0.028848961339 Eh/a0 ::
         :: HOMO-LUMO gap              0.000000000000 eV    ::
         :::::::::::::::::::::::::::::::::::::::::::::::::::::

      ----------------------------------------------------------- 
     |                       L-ANC optimizer                     |
      ----------------------------------------------------------- 
          low memory version by Sebastian Ehlert

          ...................................................
          :                      SETUP                      :
          :.................................................:
          :   energy convergence        0.5000000E-05 Eh    :
          :   grad. convergence         0.1000000E-02 Eh/a0 :
          :   optimization log               true           :
          :   writing optlog all                1     steps :
          :   Hessian reset                    20     steps :
          :   maximium step len.        1.0000000     a0    :
          :   LBFGS images                     20           :
          ...................................................
 * calculating model hessian...
Using Lindh-Hessian (1995)
 Shifting diagonal of input Hessian by   1.000000000000000E-002
 Lowest  eigenvalues of input Hessian
    0.000000    0.000000    0.000000    0.000000    0.000000    0.000000
    0.020445    0.021987    0.030733    0.035345    0.040458    0.067788
    0.073263    0.094712    0.111711    0.122148    0.127009    0.131662
 Highest eigenvalues
    1.195978    1.637659    1.877578    1.918183    2.044565    2.106442
 

........................................................................
.............................. CYCLE    1 ..............................
........................................................................
                         * ORCA takes the control...
  ------------------------------------------------------------------------

                                 *****************
                                 * O   R   C   A *
                                 *****************

                                            #,                                       
                                            ###                                      
                                            ####                                     
                                            #####                                    
                                            ######                                   
                                           ########,                                 
                                     ,,################,,,,,                         
                               ,,#################################,,                 
                          ,,##########################################,,             
                       ,#########################################, ''#####,          
                    ,#############################################,,   '####,        
                  ,##################################################,,,,####,       
                ,###########''''           ''''###############################       
              ,#####''   ,,,,##########,,,,          '''####'''          '####       
            ,##' ,,,,###########################,,,                        '##       
           ' ,,###''''                  '''############,,,                           
         ,,##''                                '''############,,,,        ,,,,,,###''
      ,#''                                            '''#######################'''  
     '                                                          ''''####''''         
             ,#######,   #######,   ,#######,      ##                                
            ,#'     '#,  ##    ##  ,#'     '#,    #''#        ,####,   ,####,        
            ##       ##  ##   ,#'  ##            #'  '#       #'       #'  '#        
            ##       ##  #######   ##           ,######,      #####,   #    #        
            '#,     ,#'  ##    ##  '#,     ,#' ,#      #,     #,   #   #,  ,#        
             '#######'   ##     ##  '#######'  #'      '#     '####' # '####'        



                #########################################################
                #                        -***-                          #
                #          Department of theory and spectroscopy        #
                #                                                       #
                #                      Frank Neese                      #
                #                                                       #
                #     Directorship, Architecture, Infrastructure        #
                #                    SHARK, DRIVERS                     #
                #        Core code/Algorithms in most modules           #
                #                                                       #
                #        Max Planck Institute fuer Kohlenforschung      #
                #                Kaiser Wilhelm Platz 1                 #
                #                 D-45470 Muelheim/Ruhr                 #
                #                      Germany                          #
                #                                                       #
                #                  All rights reserved                  #
                #                        -***-                          #
                #########################################################


                         Program Version 6.0.0  -   RELEASE  -


 With contributions from (in alphabetic order):
   Daniel Aravena         : Magnetic Suceptibility
   Michael Atanasov       : Ab Initio Ligand Field Theory (pilot matlab implementation)
   Alexander A. Auer      : GIAO ZORA, VPT2 properties, NMR spectrum
   Ute Becker             : All parallelization in ORCA, NUMFREQ, NUMCALC
   Giovanni Bistoni       : ED, misc. LED, open-shell LED, HFLD
   Martin Brehm           : Molecular dynamics
   Dmytro Bykov           : pre 5.0 version of the SCF Hessian
   Marcos Casanova-Páez   : Triplet and SCS-CIS(D). UHF-(DLPNO)-IP/EA/STEOM-CCSD. UHF-CVS-IP/STEOM-CCSD
   Vijay G. Chilkuri      : MRCI spin determinant printing, contributions to CSF-ICE
   Pauline Colinet        : FMM embedding
   Dipayan Datta          : RHF DLPNO-CCSD density
   Achintya Kumar Dutta   : EOM-CC, STEOM-CC
   Nicolas Foglia         : Exact transition moments, OPA infrastructure, MCD improvements
   Dmitry Ganyushin       : Spin-Orbit,Spin-Spin,Magnetic field MRCI
   Miquel Garcia          : C-PCM and meta-GGA Hessian, CCSD/C-PCM, Gaussian charge scheme
   Tiago L. C. Gouveia    : GS-ROHF, GS-ROCIS
   Yang Guo               : DLPNO-NEVPT2, F12-NEVPT2, CIM, IAO-localization
   Andreas Hansen         : Spin unrestricted coupled pair/coupled cluster methods
   Ingolf Harden          : AUTO-CI MPn and infrastructure 
   Benjamin Helmich-Paris : MC-RPA, TRAH-(SCF,CASSCF), AVAS, COSX integrals, SCF dyn. polar.
   Lee Huntington         : MR-EOM, pCC
   Robert Izsak           : Overlap fitted RIJCOSX, COSX-SCS-MP3, EOM
   Riya Kayal             : Wick's Theorem for AUTO-CI, AUTO-CI UHF-CCSDT
   Emily Kempfer          : AUTO-CI, RHF CISDT and CCSDT
   Christian Kollmar      : KDIIS, OOCD, Brueckner-CCSD(T), CCSD density, CASPT2, CASPT2-K, improved NEVPT2
   Axel Koslowski         : Symmetry handling
   Simone Kossmann        : Meta GGA functionals, TD-DFT gradient, OOMP2, (MP2 Hessian; deprecated post 5.0)
   Lucas Lang             : DCDCAS
   Marvin Lechner         : AUTO-CI (C++ implementation), FIC-MRCC
   Spencer Leger          : CASSCF response
   Dagmar Lenk            : GEPOL surface, SMD, ORCA-2-JSON
   Dimitrios Liakos       : Extrapolation schemes; Compound Job, initial MDCI parallelization
   Dimitrios Manganas     : Further ROCIS development; embedding schemes. LFT, Crystal Embedding
   Dimitrios Pantazis     : SARC Basis sets
   Anastasios Papadopoulos: AUTO-CI, single reference methods and gradients
   Taras Petrenko         : pre 6.0 DFT Hessian and TD-DFT gradient, (ASA, deprecated), ECA, 1-Electron XAS/XES, NRVS
   Peter Pinski           : DLPNO-MP2, DLPNO-MP2 Gradient
   Christoph Reimann      : Effective Core Potentials
   Marius Retegan         : Local ZFS, SOC
   Christoph Riplinger    : Optimizer, TS searches, QM/MM, DLPNO-CCSD(T), (RO)-DLPNO pert. Triples
   Michael Roemelt        : Original ROCIS implementation
   Masaaki Saitow         : Open-shell DLPNO-CCSD energy and density
   Barbara Sandhoefer     : DKH picture change effects
   Kantharuban Sivalingam : CASSCF convergence/infrastructure, NEVPT2 and variants, FIC-MRCI
   Bernardo de Souza      : ESD, SOC TD-DFT
   Georgi Stoychev        : AutoAux, RI-MP2 NMR, DLPNO-MP2 response, X2C
   Van Anh Tran           : RI-MP2 g-tensors
   Willem Van den Heuvel  : Paramagnetic NMR
   Zikuan Wang            : NOTCH, Electric field optimization 
   Frank Wennmohs         : Technical directorship and infrastructure
   Hang Xu                : AUTO-CI-Response properties 


 We gratefully acknowledge several colleagues who have allowed us to
 interface, adapt or use parts of their codes:
   Stefan Grimme, W. Hujo, H. Kruse, P. Pracht,  : VdW corrections, initial TS optimization,
                  C. Bannwarth, S. Ehlert,         DFT functionals, gCP, sTDA/sTD-DF
                  L. Wittmann, M. Mueller
   Ed Valeev, F. Pavosevic, A. Kumar             : LibInt (2-el integral package), F12 methods
   Garnet Chan, S. Sharma, J. Yang, R. Olivares  : DMRG
   Ulf Ekstrom                                   : XCFun DFT Library
   Mihaly Kallay                                 : mrcc  (arbitrary order and MRCC methods)
   Frank Weinhold                                : gennbo (NPA and NBO analysis)
   Simon Mueller                                 : openCOSMO-RS
   Christopher J. Cramer and Donald G. Truhlar   : smd solvation model
   Lars Goerigk                                  : TD-DFT with DH, B97 family of functionals
   V. Asgeirsson, H. Jonsson                     : NEB implementation
   FAccTs GmbH                                   : IRC, NEB, NEB-TS, DLPNO-Multilevel, CI-OPT
                                                   MM, QMMM, 2- and 3-layer-ONIOM, Crystal-QMMM,
                                                   LR-CPCM, SF, NACMEs, symmetry and pop. for TD-DFT,
                                                   nearIR, NL-DFT gradient (VV10), updates on ESD,
                                                   ML-optimized integration grids, MBIS, APM,
                                                   GOAT, DOCKER, SOLVATOR, interface openCOSMO-RS
   S Lehtola, MJT Oliveira, MAL Marques          : LibXC Library
   Liviu Ungur et al                             : ANISO software


 Your calculation uses the libint2 library for the computation of 2-el integrals
 For citations please refer to: http://libint.valeyev.net

 Your ORCA version has been built with support for libXC version: 6.2.2
 For citations please refer to: https://libxc.gitlab.io

 This ORCA versions uses:
   CBLAS   interface :  Fast vector & matrix operations
   LAPACKE interface :  Fast linear algebra routines
   SCALAPACK package :  Parallel linear algebra routines
   Shared memory     :  Shared parallel matrices
   BLAS/LAPACK       :  OpenBLAS 0.3.27  USE64BITINT DYNAMIC_ARCH NO_AFFINITY SapphireRapids SINGLE_THREADED
        Core in use  :  SapphireRapids
   Copyright (c) 2011-2014, The OpenBLAS Project




***************************************
The coordinates will be read from file: xtb_opt.xyz
***************************************


Your calculation utilizes the geometrical counterpoise correction gCP
Please cite in your paper:
H.Kruse, S. Grimme J.Chem.Phys., 136, (2012), 154101 
   

Your calculation utilizes the atom-pairwise dispersion correction
based on EEQ partial charges (D4)


Your calculation utilizes the SMD solvation module
Please cite in your paper:
A.V. Marenich, C.J. Cramer, D.G. Truhlar J. Phys. Chem. B, 113, (2009), 6378 

================================================================================

----- Orbital basis set information -----
Your calculation utilizes the basis: def2-mTZVPP
   Stefan Grimme, Andreas Hansen, Sebastian Ehlert, and Jan-Michael Mewes 
   J. Chem. Phys. 154, 064103 (2021). DOI: 10.1063/5.0040021

----- AuxJ basis set information -----
Your calculation utilizes the auxiliary basis: def2/J
   F. Weigend, Phys. Chem. Chem. Phys. 8, 1057 (2006).

================================================================================
                                        WARNINGS
                       Please study these warnings very carefully!
================================================================================

WARNING: Old DensityContainer found on disk!
         Will remove this file - 
         If you want to keep old densities, please start your calculation with a different basename. 

Using LibXC functional ID 497 : Re-regularized SCAN exchange by Furness et al
[ 1]  J. W. Furness, A. D. Kaplan, J. Ning, J. P. Perdew, and J. Sun.,  J. Phys. Chem. Lett. 11, 8208-8215 (2020)
[ 2]  J. W. Furness, A. D. Kaplan, J. Ning, J. P. Perdew, and J. Sun.,  J. Phys. Chem. Lett. 11, 9248-9248 (2020)
Using LibXC functional ID 498 : Re-regularized SCAN correlation by Furness et al
[ 1]  J. W. Furness, A. D. Kaplan, J. Ning, J. P. Perdew, and J. Sun.,  J. Phys. Chem. Lett. 11, 8208-8215 (2020)
[ 2]  J. W. Furness, A. D. Kaplan, J. Ning, J. P. Perdew, and J. Sun.,  J. Phys. Chem. Lett. 11, 9248-9248 (2020)
Using LibXC functional ID 497 : Re-regularized SCAN exchange by Furness et al
[ 1]  J. W. Furness, A. D. Kaplan, J. Ning, J. P. Perdew, and J. Sun.,  J. Phys. Chem. Lett. 11, 8208-8215 (2020)
[ 2]  J. W. Furness, A. D. Kaplan, J. Ning, J. P. Perdew, and J. Sun.,  J. Phys. Chem. Lett. 11, 9248-9248 (2020)
Using LibXC functional ID 498 : Re-regularized SCAN correlation by Furness et al
[ 1]  J. W. Furness, A. D. Kaplan, J. Ning, J. P. Perdew, and J. Sun.,  J. Phys. Chem. Lett. 11, 8208-8215 (2020)
[ 2]  J. W. Furness, A. D. Kaplan, J. Ning, J. P. Perdew, and J. Sun.,  J. Phys. Chem. Lett. 11, 9248-9248 (2020)

================================================================================
                                       INPUT FILE
================================================================================
NAME = xtb_opt.inp
|  1> ! r2scan-3c def2/J RI DEFGRID2 scfconv7 ENGRAD tightSCF miniprint
|  2> %cpcm
|  3>     smd true
|  4>     smdsolvent "water"
|  5> end
|  6> * xyzfile 0 1 xtb_opt.xyz
|  7> 
|  8>                          ****END OF INPUT****
================================================================================

                     *******************************
                     * Energy+Gradient Calculation *
                     *******************************

---------------------------------
CARTESIAN COORDINATES (ANGSTROEM)
---------------------------------
  C      2.104639   -0.000086    0.015853
  N      0.656198    0.000281   -0.022903
  C     -0.135282    1.114290   -0.007572
  C     -1.453145    0.708950    0.009279
  C     -1.452743   -0.709489    0.009198
  C     -0.134702   -1.114173   -0.007634
  H      2.475162   -0.022529    1.046040
  H      2.484982   -0.875771   -0.512982
  H      2.483080    0.898731   -0.473710
  H      0.294160    2.104656   -0.013020
  H     -2.317196    1.355707    0.013105
  H     -2.316466   -1.356703    0.012998
  H      0.295372   -2.104273   -0.013297

----------------------------
CARTESIAN COORDINATES (A.U.)
----------------------------
  NO LB      ZA    FRAG     MASS         X           Y           Z
   0 C     6.0000    0    12.011    3.977192   -0.000162    0.029958
   1 N     7.0000    0    14.007    1.240035    0.000532   -0.043280
   2 C     6.0000    0    12.011   -0.255645    2.105704   -0.014309
   3 C     6.0000    0    12.011   -2.746046    1.339721    0.017534
   4 C     6.0000    0    12.011   -2.745286   -1.340740    0.017382
   5 C     6.0000    0    12.011   -0.254550   -2.105482   -0.014426
   6 H     1.0000    0     1.008    4.677379   -0.042574    1.976730
   7 H     1.0000    0     1.008    4.695936   -1.654967   -0.969395
   8 H     1.0000    0     1.008    4.692340    1.698356   -0.895182
   9 H     1.0000    0     1.008    0.555882    3.977223   -0.024605
  10 H     1.0000    0     1.008   -4.378866    2.561914    0.024765
  11 H     1.0000    0     1.008   -4.377486   -2.563798    0.024563
  12 H     1.0000    0     1.008    0.558171   -3.976499   -0.025127

------------------------------------------------------------------------------
                   ___                                                        
                  /   \      - P O W E R E D   B Y -                         
                 /     \                                                     
                 |  |  |   _    _      __       _____    __    __             
                 |  |  |  | |  | |    /  \     |  _  \  |  |  /  |          
                  \  \/   | |  | |   /    \    | | | |  |  | /  /          
                 / \  \   | |__| |  /  /\  \   | |_| |  |  |/  /          
                |  |  |   |  __  | /  /__\  \  |    /   |      \           
                |  |  |   | |  | | |   __   |  |    \   |  |\   \          
                \     /   | |  | | |  |  |  |  | |\  \  |  | \   \       
                 \___/    |_|  |_| |__|  |__|  |_| \__\ |__|  \__/        
                                                                              
                      - O R C A' S   B I G   F R I E N D -                    
                                      &                                       
                       - I N T E G R A L  F E E D E R -                       
                                                                              
 v1 FN, 2020, v2 2021, v3 2022-2024                                           
------------------------------------------------------------------------------


----------------------
SHARK INTEGRAL PACKAGE
----------------------

Number of atoms                             ...     13
Number of basis functions                   ...    154
Number of shells                            ...     76
Maximum angular momentum                    ...      2
Integral batch strategy                     ... SHARK/LIBINT Hybrid
RI-J (if used) integral strategy            ... SPLIT-RIJ (Revised 2003 algorithm where possible)
Printlevel                                  ...      1
Contraction scheme used                     ... SEGMENTED contraction
Prescreening option                         ... SCHWARTZ
   Thresh                                   ... 3.000e-11
   Tcut                                     ... 1.000e-12
   Tpresel                                  ... 1.000e-12 
Coulomb Range Separation                    ... NOT USED
Exchange Range Separation                   ... NOT USED
Multipole approximations                    ... NOT USED
Finite Nucleus Model                        ... NOT USED
CABS basis                                  ... NOT available
Auxiliary Coulomb fitting basis             ... AVAILABLE
   # of basis functions in Aux-J            ...    371
   # of shells in Aux-J                     ...    125
   Maximum angular momentum in Aux-J        ...      4
Auxiliary J/K fitting basis                 ... NOT available
Auxiliary Correlation fitting basis         ... NOT available
Auxiliary 'external' fitting basis          ... NOT available

Checking pre-screening integrals            ... done (  0.0 sec) Dimension = 76
Check shell pair data                       ... done (  0.0 sec)
Shell pair information
Shell pair cut-off parameter TPreSel        ...   1.0e-12
Total number of shell pairs                 ...      2926
Shell pairs after pre-screening             ...      2801
Total number of primitive shell pairs       ...     10593
Primitive shell pairs kept                  ...      7653
          la=0 lb=0:    931 shell pairs
          la=1 lb=0:   1050 shell pairs
          la=1 lb=1:    315 shell pairs
          la=2 lb=0:    304 shell pairs
          la=2 lb=1:    173 shell pairs
          la=2 lb=2:     28 shell pairs

Calculating one electron integrals          ... done (  0.0 sec)
Calculating RI/J V-Matrix + Cholesky decomp.... done (  0.1 sec)
Calculating Nuclear repulsion               ... done (  0.0 sec) ENN=    224.176090231852 Eh

Diagonalization of the overlap matrix:
Smallest eigenvalue                        ... 9.348e-05
Time for diagonalization                   ...    0.001 sec
Threshold for overlap eigenvalues          ... 1.000e-07
Number of eigenvalues below threshold      ... 0
Time for construction of square roots      ...    0.014 sec
Total time needed                          ...    0.024 sec

-------------------
DFT GRID GENERATION
-------------------

General Integration Accuracy     IntAcc      ... 4.388
Radial Grid Type                 RadialGrid  ... OptM3 with GC (2021)
Angular Grid (max. ang.)         AngularGrid ... 4 (Lebedev-302)
Angular grid pruning method      GridPruning ... 4 (adaptive)
Weight generation scheme         WeightScheme... mBecke (2022)
Basis function cutoff            BFCut       ... 1.0000e-11
Integration weight cutoff        WCut        ... 1.0000e-14
Partially contracted basis set               ... off
Rotationally invariant grid construction     ... off
Angular grids for H and He will be reduced by one unit

Total number of grid points                  ...    58764
Total number of batches                      ...      926
Average number of points per batch           ...       63
Average number of grid points per atom       ...     4520
Initializing property integral containers    ... done (  0.0 sec)

SHARK setup successfully completed in   1.3 seconds

Maximum memory used throughout the entire STARTUP-calculation: 25.8 MB
Occupation numbers will be reassigned to an Aufbau configuration
             **** ENERGY FILE WAS UPDATED (xtb_opt.en.tmp) ****
Finished Guess after   0.2 sec
Maximum memory used throughout the entire GUESS-calculation: 10.7 MB
--------------------
CPCM SOLVATION MODEL
--------------------
CPCM parameters:
  Epsilon                                         ...      78.3550
  Refrac                                          ...       1.3328
  Rsolv                                           ...       1.3000
  Surface type                                    ... GAUSSIAN VDW
  Discretization scheme                           ... Constant charge density
    Threshold for H atoms                         ...       5.0000 (charges/Ang^2)
    Threshold for non-H atoms                     ...       5.0000 (charges/Ang^2)
  Epsilon function type                           ...         CPCM
Solvent:                                          ... WATER
SMD-CDS solvent descriptors:
  Soln                                            ...       1.3328
  Soln25                                          ...       1.3323
  Sola                                            ...       0.0000
  Solb                                            ...       0.0000
  Solg                                            ...       0.0000
  Solc                                            ...       0.0000
  Solh                                            ...       0.0000
Radii:
  Scheme                                          ... Element-dependent radii
  Radius for C  used is    3.4960 Bohr (=   1.8500 Ang.)
  Radius for N  used is    3.5716 Bohr (=   1.8900 Ang.)
  Radius for H  used is    2.2677 Bohr (=   1.2000 Ang.)
Calculating surface                               ...        done! (  0.0s)
Cavity surface points                             ...         1046
Cavity Volume                                     ...     647.3049
Cavity Surface-area                               ...     420.0465
Calculating surface distance matrix               ...        done! (  0.0s)
Performing Cholesky decomposition & store         ...        done! (  0.1s)
Overall time for CPCM initialization              ...                 0.1s

----------------------------------------D-I-I-S--------------------------------------------
Iteration    Energy (Eh)           Delta-E    RMSDP     MaxDP     DIISErr   Damp  Time(sec)
-------------------------------------------------------------------------------------------
               ***  Starting incremental Fock matrix formation  ***
    1    -249.4186798175159367     0.00e+00  7.95e-05  1.64e-03  5.71e-03  0.700   1.7
    2    -249.4187540493311701    -7.42e-05  6.42e-05  1.47e-03  3.59e-03  0.700   1.7
                               ***Turning on AO-DIIS***
                              *** Initializing SOSCF ***
---------------------------------------S-O-S-C-F--------------------------------------
Iteration    Energy (Eh)           Delta-E    RMSDP     MaxDP     MaxGrad    Time(sec)
--------------------------------------------------------------------------------------
    3    -249.4188023102131240    -4.83e-05  1.46e-04  3.14e-03  2.19e-03     1.4
               *** Restarting incremental Fock matrix formation ***
    4    -249.4189089285491434    -1.07e-04  3.99e-05  1.07e-03  2.87e-04     1.7
    5    -249.4189048553627401     4.07e-06  2.41e-05  7.90e-04  6.05e-04     1.2
    6    -249.4189108586399186    -6.00e-06  9.19e-06  1.50e-04  7.40e-05     1.6
    7    -249.4189106902122433     1.68e-07  5.64e-06  9.85e-05  1.04e-04     2.0
    8    -249.4189109717569011    -2.82e-07  1.09e-06  2.05e-05  8.86e-06     1.5
                  *** Gradient check signals convergence ***

               *****************************************************
               *                     SUCCESS                       *
               *           SCF CONVERGED AFTER   8 CYCLES          *
               *****************************************************


SMD CDS free energy correction energy :                 3.82018     Kcal/mol
Total Energy after SMD CDS correction =              -249.412823131 Eh
             **** ENERGY FILE WAS UPDATED (xtb_opt.en.tmp) ****

----------------
TOTAL SCF ENERGY
----------------

Total Energy       :       -249.41282313083011 Eh           -6786.86796 eV

Components:
Nuclear Repulsion  :        224.17609023185153 Eh            6100.14154 eV
Electronic Energy  :       -473.58210933762712 Eh          -12886.82435 eV
One Electron Energy:       -779.47854998579942 Eh          -21210.68968 eV
Two Electron Energy:        305.89644064817230 Eh            8323.86533 eV
CPCM Dielectric    :         -0.01289186598132 Eh              -0.35081 eV
SMD CDS (Gcds)     :          0.00608784092679 Eh               0.16566 eV

Virial components:
Potential Energy   :       -497.70112439394802 Eh          -13543.13611 eV
Kinetic Energy     :        248.28830126311792 Eh            6756.26816 eV
Virial Ratio       :          2.00452909727116

DFT components:
N(Alpha)           :       21.999972381906 electrons
N(Beta)            :       21.999972381906 electrons
N(Total)           :       43.999944763811 electrons
E(X)               :      -35.158860704191 Eh       
E(C)               :       -1.408499622746 Eh       
E(XC)              :      -36.567360326937 Eh       

CPCM Solvation Model Properties:
Surface-charge          :         -0.04010657072406
Corrected charge        :         -0.00000000000000
Outlying charge corr.   :          0.00014047348874 Eh               0.00382 eV
Free-energy (cav+disp)  :          0.00608784092679 Eh               0.16566 eV

---------------
SCF CONVERGENCE
---------------

  Last Energy change         ...    2.8154e-07  Tolerance :   1.0000e-07
  Last MAX-Density change    ...    2.0495e-05  Tolerance :   1.0000e-07
  Last RMS-Density change    ...    1.0852e-06  Tolerance :   5.0000e-09
  Last DIIS Error            ...    2.1919e-03  Tolerance :   1.0000e-07
  Last Orbital Gradient      ...    8.8609e-06  Tolerance :   1.0000e-04
  Last Orbital Rotation      ...    3.1807e-05  Tolerance :   1.0000e-04


----------------
ORBITAL ENERGIES
----------------

  NO   OCC          E(Eh)            E(eV) 
   0   2.0000     -14.209440      -386.6585 
   1   2.0000     -10.058589      -273.7081 
   2   2.0000     -10.044505      -273.3249 
   3   2.0000     -10.044399      -273.3220 
   4   2.0000     -10.014727      -272.5146 
   5   2.0000     -10.014373      -272.5050 
   6   2.0000      -0.950258       -25.8578 
   7   2.0000      -0.764392       -20.8002 
   8   2.0000      -0.686323       -18.6758 
   9   2.0000      -0.650342       -17.6967 
  10   2.0000      -0.538187       -14.6448 
  11   2.0000      -0.514152       -13.9908 
  12   2.0000      -0.491746       -13.3811 
  13   2.0000      -0.423767       -11.5313 
  14   2.0000      -0.399806       -10.8793 
  15   2.0000      -0.382670       -10.4130 
  16   2.0000      -0.366869        -9.9830 
  17   2.0000      -0.341687        -9.2978 
  18   2.0000      -0.339726        -9.2444 
  19   2.0000      -0.338728        -9.2173 
  20   2.0000      -0.216619        -5.8945 
  21   2.0000      -0.195887        -5.3304 
  22   0.0000       0.005968         0.1624 
  23   0.0000       0.044076         1.1994 
  24   0.0000       0.091105         2.4791 
  25   0.0000       0.109632         2.9832 
  26   0.0000       0.127612         3.4725 
  27   0.0000       0.142851         3.8872 
  28   0.0000       0.145724         3.9654 
  29   0.0000       0.152716         4.1556 
  30   0.0000       0.164113         4.4657 
  31   0.0000       0.170285         4.6337 
  32   0.0000       0.178148         4.8476 
*Only the first 10 virtual orbitals were printed.
Total SCF time: 0 days 0 hours 0 min 13 sec 
Finished LeanSCF after  13.6 sec

Maximum memory used throughout the entire LEANSCF-calculation: 17.3 MB


-------------------------------------------------------------------------------
                          DFT DISPERSION CORRECTION                            
                                                                               
                                DFTD4 V3.4.0                                   
-------------------------------------------------------------------------------
-------------------------   ----------------
Dispersion correction           -0.003383485
-------------------------   ----------------

------------------   -----------------
gCP correction             0.008555595
------------------   -----------------

-------------------------   --------------------
FINAL SINGLE POINT ENERGY      -249.407651021029
-------------------------   --------------------

------------------------------------------------------------------------------
                         ORCA SCF GRADIENT CALCULATION
------------------------------------------------------------------------------

Nuc. rep. gradient        (SHARK) ... done (  0.0 sec)
HCore & Overlap gradient  (SHARK) ... done (  0.1 sec)
Split-RIJ-J gradient      (SHARK) ... done (  0.5 sec)
XC gradient                       ... done (  1.9 sec)
CPCM gradient                     ... done (  0.3 sec)
SMD gradient                      ... done (  0.0 sec)
Dispersion correction             ... done (  0.0 sec)

-------------------
DISPERSION GRADIENT
-------------------

   1   C   :    0.000079247   -0.000000027    0.000000862
   2   N   :    0.000016828    0.000000008   -0.000000574
   3   C   :   -0.000016141    0.000027637   -0.000000407
   4   C   :   -0.000055288    0.000019166    0.000000003
   5   C   :   -0.000055276   -0.000019177    0.000000000
   6   C   :   -0.000016098   -0.000027610   -0.000000409
   7   H   :    0.000034262   -0.000000184    0.000007861
   8   H   :    0.000032663   -0.000006653   -0.000003511
   9   H   :    0.000032598    0.000006809   -0.000003231
  10   H   :    0.000000070    0.000030298   -0.000000494
  11   H   :   -0.000026485    0.000016326    0.000000199
  12   H   :   -0.000026478   -0.000016340    0.000000198
  13   H   :    0.000000096   -0.000030254   -0.000000498

Difference to translation invariance:
           :   -0.0000000000   -0.0000000000   -0.0000000000

Difference to rotation invariance:
           :    0.0000000000    0.0000000000    0.0000000000

Norm of the Dispersion gradient    ...    0.0001506858
RMS gradient                       ...    0.0000241290
MAX gradient                       ...    0.0000792465
gCP correction                   ... done

------------------
CARTESIAN GRADIENT
------------------

   1   C   :   -0.004548414    0.000019947   -0.001035559
   2   N   :   -0.000285354    0.000028739    0.001432594
   3   C   :    0.001324909   -0.005370332   -0.000315066
   4   C   :    0.001879348   -0.000085021   -0.000230206
   5   C   :    0.001885963    0.000088075   -0.000242540
   6   C   :    0.001308892    0.005344559   -0.000281914
   7   H   :    0.000106273   -0.000001496   -0.000378416
   8   H   :   -0.000216711    0.000366631    0.000382636
   9   H   :   -0.000210285   -0.000396656    0.000374044
  10   H   :   -0.001250418   -0.000570805    0.000089748
  11   H   :    0.000623588   -0.001110875    0.000060516
  12   H   :    0.000623108    0.001109150    0.000059373
  13   H   :   -0.001240901    0.000578083    0.000084789

Difference to translation invariance:
           :   -0.0000000000    0.0000000000    0.0000000000

Difference to rotation invariance:
           :   -0.0000065425    0.0001426187    0.0000048683

Norm of the Cartesian gradient     ...    0.0100007045
RMS gradient                       ...    0.0016013944
MAX gradient                       ...    0.0053703319

-------
TIMINGS
-------

Total SCF gradient time     ....        3.053 sec

Densities                   ....       0.000 sec  (  0.0%)
One electron gradient       ....       0.069 sec  (  2.3%)
[...]
----------------

Total Energy       :       -249.41295343085011 Eh           -6786.87150 eV

Components:
Nuclear Repulsion  :        223.53938113240989 Eh            6082.81580 eV
Electronic Energy  :       -472.94539727387445 Eh          -12869.49853 eV
One Electron Energy:       -778.23479242270457 Eh          -21176.84531 eV
Two Electron Energy:        305.28939514883012 Eh            8307.34678 eV
CPCM Dielectric    :         -0.01303292052813 Eh              -0.35464 eV
SMD CDS (Gcds)     :          0.00609563114258 Eh               0.16587 eV

Virial components:
Potential Energy   :       -497.62944913164779 Eh          -13541.18573 eV
Kinetic Energy     :        248.21649570079765 Eh            6754.31423 eV
Virial Ratio       :          2.00482021844146

DFT components:
N(Alpha)           :       21.999981497347 electrons
N(Beta)            :       21.999981497347 electrons
N(Total)           :       43.999962994695 electrons
E(X)               :      -35.142080915628 Eh       
E(C)               :       -1.407478618989 Eh       
E(XC)              :      -36.549559534618 Eh       

CPCM Solvation Model Properties:
Surface-charge          :         -0.04010616588022
Corrected charge        :         -0.00000000000000
Outlying charge corr.   :          0.00014031439130 Eh               0.00382 eV
Free-energy (cav+disp)  :          0.00609563114258 Eh               0.16587 eV

---------------
SCF CONVERGENCE
---------------

  Last Energy change         ...   -6.7145e-08  Tolerance :   1.0000e-07
  Last MAX-Density change    ...    8.6673e-05  Tolerance :   1.0000e-07
  Last RMS-Density change    ...    2.8168e-06  Tolerance :   5.0000e-09
  Last DIIS Error            ...    7.7881e-05  Tolerance :   1.0000e-07
  Last Orbital Gradient      ...    9.4516e-05  Tolerance :   1.0000e-04
  Last Orbital Rotation      ...    1.3452e-04  Tolerance :   1.0000e-04


----------------
ORBITAL ENERGIES
----------------

  NO   OCC          E(Eh)            E(eV) 
   0   2.0000     -14.209132      -386.6501 
   1   2.0000     -10.059343      -273.7286 
   2   2.0000     -10.045782      -273.3596 
   3   2.0000     -10.045690      -273.3571 
   4   2.0000     -10.016384      -272.5597 
   5   2.0000     -10.016041      -272.5503 
   6   2.0000      -0.946484       -25.7551 
   7   2.0000      -0.762364       -20.7450 
   8   2.0000      -0.685464       -18.6524 
   9   2.0000      -0.649552       -17.6752 
  10   2.0000      -0.537335       -14.6216 
  11   2.0000      -0.513695       -13.9784 
  12   2.0000      -0.490374       -13.3438 
  13   2.0000      -0.422122       -11.4865 
  14   2.0000      -0.399009       -10.8576 
  15   2.0000      -0.381092       -10.3700 
  16   2.0000      -0.366957        -9.9854 
  17   2.0000      -0.342167        -9.3108 
  18   2.0000      -0.340054        -9.2533 
  19   2.0000      -0.338741        -9.2176 
  20   2.0000      -0.216524        -5.8919 
  21   2.0000      -0.196082        -5.3357 
  22   0.0000       0.004635         0.1261 
  23   0.0000       0.043006         1.1702 
  24   0.0000       0.090307         2.4574 
  25   0.0000       0.109169         2.9707 
  26   0.0000       0.126782         3.4499 
  27   0.0000       0.141537         3.8514 
  28   0.0000       0.145331         3.9547 
  29   0.0000       0.152853         4.1593 
  30   0.0000       0.164024         4.4633 
  31   0.0000       0.170260         4.6330 
  32   0.0000       0.178444         4.8557 
*Only the first 10 virtual orbitals were printed.
Total SCF time: 0 days 0 hours 0 min 4 sec 
Finished LeanSCF after   5.0 sec

Maximum memory used throughout the entire LEANSCF-calculation: 17.3 MB


-------------------------------------------------------------------------------
                          DFT DISPERSION CORRECTION                            
                                                                               
                                DFTD4 V3.4.0                                   
-------------------------------------------------------------------------------
-------------------------   ----------------
Dispersion correction           -0.003379007
-------------------------   ----------------

------------------   -----------------
gCP correction             0.008506411
------------------   -----------------

-------------------------   --------------------
FINAL SINGLE POINT ENERGY      -249.407826027024
-------------------------   --------------------

------------------------------------------------------------------------------
                         ORCA SCF GRADIENT CALCULATION
------------------------------------------------------------------------------

Nuc. rep. gradient        (SHARK) ... done (  0.0 sec)
HCore & Overlap gradient  (SHARK) ... done (  0.1 sec)
Split-RIJ-J gradient      (SHARK) ... done (  0.5 sec)
XC gradient                       ... done (  1.9 sec)
CPCM gradient                     ... done (  0.3 sec)
SMD gradient                      ... done (  0.0 sec)
Dispersion correction             ... done (  0.0 sec)

-------------------
DISPERSION GRADIENT
-------------------

   1   C   :    0.000079778   -0.000000012    0.000001185
   2   N   :    0.000018182    0.000000006   -0.000001008
   3   C   :   -0.000015370    0.000032645   -0.000000580
   4   C   :   -0.000057157    0.000021096    0.000000136
   5   C   :   -0.000057143   -0.000021108    0.000000124
   6   C   :   -0.000015340   -0.000032628   -0.000000594
   7   H   :    0.000034321   -0.000000175    0.000007903
   8   H   :    0.000032663   -0.000006551   -0.000003392
   9   H   :    0.000032599    0.000006701   -0.000003127
  10   H   :    0.000000231    0.000030487   -0.000000707
  11   H   :   -0.000026510    0.000016447    0.000000394
  12   H   :   -0.000026502   -0.000016458    0.000000386
  13   H   :    0.000000250   -0.000030451   -0.000000721

Difference to translation invariance:
           :   -0.0000000000   -0.0000000000    0.0000000000

Difference to rotation invariance:
           :    0.0000000000    0.0000000000    0.0000000000

Norm of the Dispersion gradient    ...    0.0001549404
RMS gradient                       ...    0.0000248103
MAX gradient                       ...    0.0000797775
gCP correction                   ... done

------------------
CARTESIAN GRADIENT
------------------

   1   C   :    0.000515668    0.000000495   -0.000009086
   2   N   :   -0.000083387   -0.000003031    0.000146383
   3   C   :   -0.000368022    0.000208382   -0.000051254
   4   C   :    0.000067849   -0.000206133   -0.000001197
   5   C   :    0.000068247    0.000206127   -0.000023727
   6   C   :   -0.000366360   -0.000204589   -0.000025817
   7   H   :   -0.000035895   -0.000006654   -0.000047401
   8   H   :   -0.000057139    0.000012475   -0.000017475
   9   H   :   -0.000060618   -0.000005788   -0.000004776
  10   H   :    0.000092931   -0.000107163    0.000017051
  11   H   :    0.000067254    0.000010330   -0.000002577
  12   H   :    0.000067316   -0.000010231   -0.000002558
  13   H   :    0.000092155    0.000105779    0.000022433

Difference to translation invariance:
           :    0.0000000000    0.0000000000   -0.0000000000

Difference to rotation invariance:
           :   -0.0000022468    0.0001324507    0.0000049791

Norm of the Cartesian gradient     ...    0.0008990756
RMS gradient                       ...    0.0001439673
MAX gradient                       ...    0.0005156684

-------
TIMINGS
-------

Total SCF gradient time     ....        3.008 sec

Densities                   ....       0.000 sec  (  0.0%)
One electron gradient       ....       0.077 sec  (  2.5%)
RI-J Coulomb gradient       ....       0.463 sec  ( 15.4%)
XC gradient                 ....       1.859 sec  ( 61.8%)
CPCM gradient               ....       0.314 sec  ( 10.4%)
   A-Matrix (El+Nuc)        ....       0.023 sec  (  0.8%)
   Potential                ....       0.290 sec  (  9.7%)
SMD gradient                ....       0.010 sec  (  0.3%)

Maximum memory used throughout the entire SCFGRAD-calculation: 30.7 MB

------------------------------------------------------------------------------
                              ORCA PROPERTY CALCULATIONS
------------------------------------------------------------------------------

GBWName                                 ... xtb_opt.gbw
Number of atoms                         ...     13
Number of basis functions               ...    154
Max core memory                         ...   1024 MB

Electric properties:
Dipole moment                           ... YES
Quadrupole moment                       ...  NO
Static polarizability (Dipole/Dipole)   ...  NO
Static polarizability (Dipole/Quad.)    ...  NO
Static polarizability (Quad./Quad.)     ...  NO
Static polarizability (Velocity)        ...  NO

Atomic electric properties:
Dipole moment                           ...  NO
Quadrupole moment                       ...  NO
Static polarizability                   ...  NO

Choice of electric origin               ... Center of mass
Position of electric origin             ...    -0.009254    -0.000139    -0.008135

General magnetic properties:
Magnetizability                         ...  NO

EPR properties:
g-Tensor (aka g-matrix)                 ...  NO
Zero-Field splitting spin-orbit         ...  NO
Zero-field splitting spin-spin          ...  NO
Hyperfine couplings                     ...  NO (   0 nuclei)
Quadrupole couplings                    ...  NO (   0 nuclei)
Contact density                         ...  NO (   0 nuclei)

NMR properties:
Chemical shifts                         ...  NO (   0 nuclei)
Spin-rotation constants                 ...  NO (   0 nuclei)
Spin-spin couplings                     ...  NO (   0 nuclei,    0 pairs)

Choice of magnetic origin               ... GIAO
Position of magnetic origin             ...     0.000000     0.000000     0.000000

Properties with geometric perturbations:
SCF Hessian                             ...  NO
IR spectrum                             ...  NO
VCD spectrum                            ...  NO
X-ray spectroscopy properties:
SCF XES/XAS/RIXS spectra                ...  NO


-------------
DIPOLE MOMENT
-------------

Method             : SCF
Type of density    : Electron Density
Multiplicity       :   1
Irrep              :   0
Energy             :  -249.4129534308501093 Eh
Relativity type    : 
Basis              : AO
                                X                 Y                 Z
Electronic contribution:     -1.968722124       0.000339066      -0.103987708
Nuclear contribution   :      3.237114617       0.000599650       0.106771817
                        -----------------------------------------
Total Dipole Moment    :      1.268392494       0.000938716       0.002784109
                        -----------------------------------------
Magnitude (a.u.)       :      1.268395896
Magnitude (Debye)      :      3.224006153



--------------------
Rotational spectrum 
--------------------
 
Rotational constants in cm-1:             0.289913             0.118391             0.085467 
Rotational constants in MHz :          8691.371565          3549.278239          2562.233271 

Dipole components along the rotational axes: 
x,y,z [a.u.] :    -1.268379     0.000920     0.006429 
x,y,z [Debye]:    -3.223964     0.002338     0.016342 

 

Dipole moment calculation done in   0.0 sec 

Maximum memory used throughout the entire PROP-calculation: 9.0 MB

--------------------------------
SUGGESTED CITATIONS FOR THIS RUN
--------------------------------

Below you find a list of papers that are relevant to this ORCA run
We neither can nor want to force you to cite these papers, but we appreciate if you do
You receive ORCA, which is the product of decades of hard work by many enthusiastic individuals, for free
The only thing we kindly ask in return is that you cite our papers,
We deeply appreciate it, if you show your appreciation for ORCA by not just citing the generic ORCA reference.

Please note that relegating all ORCA citations to the supporting information does *not* help us.
SI sections are not indexed - citations you put there will not count into any citation statistics
But we need these citations in order to attract the funding resources that allow us to do what we are doing

Therefore, if you are a happy ORCA user, please consider citing a few of the papers listed below in the main body of your paper

In addition to the list printed below, the program has created the file xtb_opt.bibtex that contains the list in bibtex format
You can import this file easily into all common literature databanks and citation aid programs


List of essential papers. We consider these as the minimum necessary citations

  1. Neese,F.
     Software update: the ORCA program system, version 5.0
     WIRES Comput. Molec. Sci., 2022 12(1)e1606
     doi.org/10.1002/wcms.1606
  2. Grimme,S.; Hansen,A.; Ehlert,S.; Mewes,J.
     r2SCAN-3c: A 'Swiss army knife' composite electronic-structure method
     J. Chem. Phys., 2021 154 064103
     doi.org/10.1063/5.0040021

List of papers to cite with high priority. The work reported in these papers was absolutely
necessary for this run to complete.
Our perspective: the developers of density functionals and basis sets usually get cited in chemistry papers
Good! But without the algorithms to do something with them, the functionals or basis sets would not do anything.
Hence, in our opinion, the algorithm design and method developments papers are equally worthy of getting cited

  1. Neese,F.
     An improvement of the resolution of the identity approximation for the formation of the Coulomb matrix
     J. Comp. Chem., 2003 24(14)1740-1747
     doi.org/10.1002/jcc.10318
  2. Garcia-Rates,M.; Neese,F.
     Effect of the Solute Cavity on the Solvation Energy and its Derivatives within the Framework of the Gaussian Charge Scheme
     J. Comput. Chem., 2020 41 922-939
     doi.org/10.1002/jcc.26139
  3. Neese,F.
     The SHARK Integral Generation and Digestion System
     J. Comp. Chem., 2022  1-16
     doi.org/10.1002/jcc.26942
  4. Lehtola,S.; Steigemann,C.; Oliveira,M.; Marques,M.
     Recent developments in Libxc - A comprehensive library of functionals for density functional theory
     Software X, 2018 7 
     doi.org/10.1016/j.softx.2017.11.002
  5. Caldeweyher,E.; Bannwarth,C.; Grimme,S.
     Extension of the D3 dispersion coefficient model
     J. Chem. Phys., 2017 147 034112-XXXX
     doi.org/10.1063/1.4993215
  6. Caldeweyher,E.; Ehlert,S.; Hansen,A.; Neugebauer,H.; Spicher,S.; Bannwarth,C.; Grimme,S.
     A generally applicable atomic-charge dependent London dispersion correction
     J. Chem. Phys., 2019 150 154122-XXXX
     doi.org/10.1063/1.5090222
  7. Caldeweyher,E.; Mewes,J.; Ehlert,S.; Grimme,S.
     Extension and evaluation of the D4 London-dispersion model for periodic systems
     Phys. Chem. Chem. Phys., 2020 22(16)8499-8512
     doi.org/10.1039/D0CP00502A

List of suggested additional citations. These are papers that are important in the 'surrounding' of 
of this run, or papers that preceded the highly important papers. If you like your results we are grateful for a citation.

  1. Neese,F.
     The ORCA program system
     WIRES Comput. Molec. Sci., 2012 2(1)73-78
     doi.org/10.1002/wcms.81
  2. Neese,F.
     Software update: the ORCA program system, version 4.0
     WIRES Comput. Molec. Sci., 2018 8(1)1-6
     doi.org/10.1002/wcms.1327
  3. Neese,F.; Wennmohs,F.; Becker,U.; Riplinger,C.
     The ORCA quantum chemistry program package
     J. Chem. Phys., 2020 152 Art. No. L224108
     doi.org/10.1063/5.0004608

List of optional additional citations

  1. Neese,F.
     Approximate second-order SCF convergence for spin unrestricted wavefunctions
     Chem. Phys. Lett., 2000 325(1-3)93-98
     doi.org/10.1016/s0009-2614(00)00662-x

Timings for individual modules:

Sum of individual times          ...        9.731 sec (=   0.162 min)
Startup calculation              ...        1.129 sec (=   0.019 min)  11.6 %
SCF iterations                   ...        5.443 sec (=   0.091 min)  55.9 %
Property calculations            ...        0.082 sec (=   0.001 min)   0.8 %
SCF Gradient evaluation          ...        3.077 sec (=   0.051 min)  31.6 %
                             ****ORCA TERMINATED NORMALLY****
TOTAL RUN TIME: 0 days 0 hours 0 minutes 10 seconds 740 msec
  ------------------------------------------------------------------------
          * successful ORCA run, taking over control again...

         :::::::::::::::::::::::::::::::::::::::::::::::::::::
         ::                  ORCA SUMMARY                   ::
         :::::::::::::::::::::::::::::::::::::::::::::::::::::
         :: total energy            -249.407826027024 Eh    ::
         :: gradient norm              0.000899075552 Eh/a0 ::
         :: HOMO-LUMO gap              0.000000000000 eV    ::
         :::::::::::::::::::::::::::::::::::::::::::::::::::::

           -------------------------------------------------
          |                Property Printout                |
           -------------------------------------------------
           -------------------------------------------------
          |                Geometry Summary                 |
           -------------------------------------------------

      molecular mass/u    :       81.1159680
   center of mass at/Å    :       -0.0048982      -0.0000738      -0.0043049
  moments of inertia/u·Å² :        0.5814541E+02   0.1423851E+03   0.1972359E+03
rotational constants/cm⁻¹ :        0.2899220E+00   0.1183946E+00   0.8546940E-01

 * 13 selected distances

     #   Z          #   Z                                           value/Å
     1   6 C        2   7 N                                       1.4575337 (max)
     2   7 N        3   6 C                                       1.3722225
     3   6 C        4   6 C                                       1.3814939
     4   6 C        5   6 C                                       1.4213283
     2   7 N        6   6 C                                       1.3722091
     5   6 C        6   6 C                                       1.3814865
     1   6 C        7   1 H                                       1.0949788
     1   6 C        8   1 H                                       1.0920694
     1   6 C        9   1 H                                       1.0919227
     3   6 C       10   1 H                                       1.0807514 (min)
     4   6 C       11   1 H                                       1.0809445
     5   6 C       12   1 H                                       1.0809526
     6   6 C       13   1 H                                       1.0807665

 * 3 distinct bonds (by element types)

   Z      Z             #   av. dist./Å        max./Å        min./Å
   1 H    6 C           7     1.0860551     1.0949788     1.0807514
   6 C    6 C           3     1.3947696     1.4213283     1.3814865
   6 C    7 N           3     1.4006551     1.4575337     1.3722091


optimized geometry written to: xtbopt.coord


           -------------------------------------------------
          | TOTAL ENERGY             -249.407826027024 Eh   |
          | GRADIENT NORM               0.000899075552 Eh/α |
           -------------------------------------------------

------------------------------------------------------------------------
 * finished run on 2025/04/03 at 20:35:10.701     
------------------------------------------------------------------------
 total:
 * wall-time:     0 d,  0 h,  1 min, 31.355 sec
 *  cpu-time:     0 d,  0 h,  0 min,  0.010 sec
 * ratio c/w:     0.000 speedup
 SCF:
 * wall-time:     0 d,  0 h,  0 min, 12.077 sec
 *  cpu-time:     0 d,  0 h,  0 min,  0.001 sec
 * ratio c/w:     0.000 speedup
 ANC optimizer:
 * wall-time:     0 d,  0 h,  1 min, 19.268 sec
 *  cpu-time:     0 d,  0 h,  0 min,  0.008 sec
 * ratio c/w:     0.000 speedup

