
                                 *****************
                                 * O   R   C   A *
                                 *****************

                                            #,                                       
                                            ###                                      
                                            ####                                     
                                            #####                                    
                                            ######                                   
                                           ########,                                 
                                     ,,################,,,,,                         
                               ,,#################################,,                 
                          ,,##########################################,,             
                       ,#########################################, ''#####,          
                    ,#############################################,,   '####,        
                  ,##################################################,,,,####,       
                ,###########''''           ''''###############################       
              ,#####''   ,,,,##########,,,,          '''####'''          '####       
            ,##' ,,,,###########################,,,                        '##       
           ' ,,###''''                  '''############,,,                           
         ,,##''                                '''############,,,,        ,,,,,,###''
      ,#''                                            '''#######################'''  
     '                                                          ''''####''''         
             ,#######,   #######,   ,#######,      ##                                
            ,#'     '#,  ##    ##  ,#'     '#,    #''#        ,####,   ,####,        
            ##       ##  ##   ,#'  ##            #'  '#       #'       #'  '#        
            ##       ##  #######   ##           ,######,      #####,   #    #        
            '#,     ,#'  ##    ##  '#,     ,#' ,#      #,     #,   #   #,  ,#        
             '#######'   ##     ##  '#######'  #'      '#     '####' # '####'        



                #########################################################
                #                        -***-                          #
                #          Department of theory and spectroscopy        #
                #                                                       #
                #                      Frank Neese                      #
                #                                                       #
                #     Directorship, Architecture, Infrastructure        #
                #                    SHARK, DRIVERS                     #
                #        Core code/Algorithms in most modules           #
                #                                                       #
                #        Max Planck Institute fuer Kohlenforschung      #
                #                Kaiser Wilhelm Platz 1                 #
                #                 D-45470 Muelheim/Ruhr                 #
                #                      Germany                          #
                #                                                       #
                #                  All rights reserved                  #
                #                        -***-                          #
                #########################################################


                         Program Version 6.0.0  -   RELEASE  -


 With contributions from (in alphabetic order):
   Daniel Aravena         : Magnetic Suceptibility
   Michael Atanasov       : Ab Initio Ligand Field Theory (pilot matlab implementation)
   Alexander A. Auer      : GIAO ZORA, VPT2 properties, NMR spectrum
   Ute Becker             : All parallelization in ORCA, NUMFREQ, NUMCALC
   Giovanni Bistoni       : ED, misc. LED, open-shell LED, HFLD
   Martin Brehm           : Molecular dynamics
   Dmytro Bykov           : pre 5.0 version of the SCF Hessian
   Marcos Casanova-Páez   : Triplet and SCS-CIS(D). UHF-(DLPNO)-IP/EA/STEOM-CCSD. UHF-CVS-IP/STEOM-CCSD
   Vijay G. Chilkuri      : MRCI spin determinant printing, contributions to CSF-ICE
   Pauline Colinet        : FMM embedding
   Dipayan Datta          : RHF DLPNO-CCSD density
   Achintya Kumar Dutta   : EOM-CC, STEOM-CC
   Nicolas Foglia         : Exact transition moments, OPA infrastructure, MCD improvements
   Dmitry Ganyushin       : Spin-Orbit,Spin-Spin,Magnetic field MRCI
   Miquel Garcia          : C-PCM and meta-GGA Hessian, CCSD/C-PCM, Gaussian charge scheme
   Tiago L. C. Gouveia    : GS-ROHF, GS-ROCIS
   Yang Guo               : DLPNO-NEVPT2, F12-NEVPT2, CIM, IAO-localization
   Andreas Hansen         : Spin unrestricted coupled pair/coupled cluster methods
   Ingolf Harden          : AUTO-CI MPn and infrastructure 
   Benjamin Helmich-Paris : MC-RPA, TRAH-(SCF,CASSCF), AVAS, COSX integrals, SCF dyn. polar.
   Lee Huntington         : MR-EOM, pCC
   Robert Izsak           : Overlap fitted RIJCOSX, COSX-SCS-MP3, EOM
   Riya Kayal             : Wick's Theorem for AUTO-CI, AUTO-CI UHF-CCSDT
   Emily Kempfer          : AUTO-CI, RHF CISDT and CCSDT
   Christian Kollmar      : KDIIS, OOCD, Brueckner-CCSD(T), CCSD density, CASPT2, CASPT2-K, improved NEVPT2
   Axel Koslowski         : Symmetry handling
   Simone Kossmann        : Meta GGA functionals, TD-DFT gradient, OOMP2, (MP2 Hessian; deprecated post 5.0)
   Lucas Lang             : DCDCAS
   Marvin Lechner         : AUTO-CI (C++ implementation), FIC-MRCC
   Spencer Leger          : CASSCF response
   Dagmar Lenk            : GEPOL surface, SMD, ORCA-2-JSON
   Dimitrios Liakos       : Extrapolation schemes; Compound Job, initial MDCI parallelization
   Dimitrios Manganas     : Further ROCIS development; embedding schemes. LFT, Crystal Embedding
   Dimitrios Pantazis     : SARC Basis sets
   Anastasios Papadopoulos: AUTO-CI, single reference methods and gradients
   Taras Petrenko         : pre 6.0 DFT Hessian and TD-DFT gradient, (ASA, deprecated), ECA, 1-Electron XAS/XES, NRVS
   Peter Pinski           : DLPNO-MP2, DLPNO-MP2 Gradient
   Christoph Reimann      : Effective Core Potentials
   Marius Retegan         : Local ZFS, SOC
   Christoph Riplinger    : Optimizer, TS searches, QM/MM, DLPNO-CCSD(T), (RO)-DLPNO pert. Triples
   Michael Roemelt        : Original ROCIS implementation
   Masaaki Saitow         : Open-shell DLPNO-CCSD energy and density
   Barbara Sandhoefer     : DKH picture change effects
   Kantharuban Sivalingam : CASSCF convergence/infrastructure, NEVPT2 and variants, FIC-MRCI
   Bernardo de Souza      : ESD, SOC TD-DFT
   Georgi Stoychev        : AutoAux, RI-MP2 NMR, DLPNO-MP2 response, X2C
   Van Anh Tran           : RI-MP2 g-tensors
   Willem Van den Heuvel  : Paramagnetic NMR
   Zikuan Wang            : NOTCH, Electric field optimization 
   Frank Wennmohs         : Technical directorship and infrastructure
   Hang Xu                : AUTO-CI-Response properties 


 We gratefully acknowledge several colleagues who have allowed us to
 interface, adapt or use parts of their codes:
   Stefan Grimme, W. Hujo, H. Kruse, P. Pracht,  : VdW corrections, initial TS optimization,
                  C. Bannwarth, S. Ehlert,         DFT functionals, gCP, sTDA/sTD-DF
                  L. Wittmann, M. Mueller
   Ed Valeev, F. Pavosevic, A. Kumar             : LibInt (2-el integral package), F12 methods
   Garnet Chan, S. Sharma, J. Yang, R. Olivares  : DMRG
   Ulf Ekstrom                                   : XCFun DFT Library
   Mihaly Kallay                                 : mrcc  (arbitrary order and MRCC methods)
   Frank Weinhold                                : gennbo (NPA and NBO analysis)
   Simon Mueller                                 : openCOSMO-RS
   Christopher J. Cramer and Donald G. Truhlar   : smd solvation model
   Lars Goerigk                                  : TD-DFT with DH, B97 family of functionals
   V. Asgeirsson, H. Jonsson                     : NEB implementation
   FAccTs GmbH                                   : IRC, NEB, NEB-TS, DLPNO-Multilevel, CI-OPT
                                                   MM, QMMM, 2- and 3-layer-ONIOM, Crystal-QMMM,
                                                   LR-CPCM, SF, NACMEs, symmetry and pop. for TD-DFT,
                                                   nearIR, NL-DFT gradient (VV10), updates on ESD,
                                                   ML-optimized integration grids, MBIS, APM,
                                                   GOAT, DOCKER, SOLVATOR, interface openCOSMO-RS
   S Lehtola, MJT Oliveira, MAL Marques          : LibXC Library
   Liviu Ungur et al                             : ANISO software


 Your calculation uses the libint2 library for the computation of 2-el integrals
 For citations please refer to: http://libint.valeyev.net

 Your ORCA version has been built with support for libXC version: 6.2.2
 For citations please refer to: https://libxc.gitlab.io

 This ORCA versions uses:
   CBLAS   interface :  Fast vector & matrix operations
   LAPACKE interface :  Fast linear algebra routines
   SCALAPACK package :  Parallel linear algebra routines
   Shared memory     :  Shared parallel matrices
   BLAS/LAPACK       :  OpenBLAS 0.3.27  USE64BITINT DYNAMIC_ARCH NO_AFFINITY SapphireRapids SINGLE_THREADED
        Core in use  :  SapphireRapids
   Copyright (c) 2011-2014, The OpenBLAS Project


Your calculation utilizes the geometrical counterpoise correction gCP
Please cite in your paper:
H.Kruse, S. Grimme J.Chem.Phys., 136, (2012), 154101 
   

Your calculation utilizes the atom-pairwise dispersion correction
based on EEQ partial charges (D4)


================================================================================

----- Orbital basis set information -----
Your calculation utilizes the basis: def2-mTZVPP
   Stefan Grimme, Andreas Hansen, Sebastian Ehlert, and Jan-Michael Mewes 
   J. Chem. Phys. 154, 064103 (2021). DOI: 10.1063/5.0040021

----- AuxJ basis set information -----
Your calculation utilizes the auxiliary basis: def2/J
   F. Weigend, Phys. Chem. Chem. Phys. 8, 1057 (2006).

================================================================================
                                        WARNINGS
                       Please study these warnings very carefully!
================================================================================

Using LibXC functional ID 497 : Re-regularized SCAN exchange by Furness et al
[ 1]  J. W. Furness, A. D. Kaplan, J. Ning, J. P. Perdew, and J. Sun.,  J. Phys. Chem. Lett. 11, 8208-8215 (2020)
[ 2]  J. W. Furness, A. D. Kaplan, J. Ning, J. P. Perdew, and J. Sun.,  J. Phys. Chem. Lett. 11, 9248-9248 (2020)
Using LibXC functional ID 498 : Re-regularized SCAN correlation by Furness et al
[ 1]  J. W. Furness, A. D. Kaplan, J. Ning, J. P. Perdew, and J. Sun.,  J. Phys. Chem. Lett. 11, 8208-8215 (2020)
[ 2]  J. W. Furness, A. D. Kaplan, J. Ning, J. P. Perdew, and J. Sun.,  J. Phys. Chem. Lett. 11, 9248-9248 (2020)
Using LibXC functional ID 497 : Re-regularized SCAN exchange by Furness et al
[ 1]  J. W. Furness, A. D. Kaplan, J. Ning, J. P. Perdew, and J. Sun.,  J. Phys. Chem. Lett. 11, 8208-8215 (2020)
[ 2]  J. W. Furness, A. D. Kaplan, J. Ning, J. P. Perdew, and J. Sun.,  J. Phys. Chem. Lett. 11, 9248-9248 (2020)
Using LibXC functional ID 498 : Re-regularized SCAN correlation by Furness et al
[ 1]  J. W. Furness, A. D. Kaplan, J. Ning, J. P. Perdew, and J. Sun.,  J. Phys. Chem. Lett. 11, 8208-8215 (2020)
[ 2]  J. W. Furness, A. D. Kaplan, J. Ning, J. P. Perdew, and J. Sun.,  J. Phys. Chem. Lett. 11, 9248-9248 (2020)

================================================================================
                                       INPUT FILE
================================================================================
NAME = sp_gas.inp
|  1> ! r2scan-3c def2/J RI DEFGRID2 scfconv6 printgap
|  2> %output
|  3>     printlevel normal
|  4> end
|  5> * xyz 0 1
|  6> C 1.4702939145 2.8884809175 1.5044908512
|  7> C 2.2291516429 1.5811529532 1.5973714044
|  8> O 1.4915682405 0.6012528642 0.8346791664
|  9> P 1.8894351103 -0.9286261524 0.8402767534
| 10> S 2.1827152453 -1.7447081306 2.5967316289
| 11> O 3.1794537241 -0.9188956031 -0.1052943561
| 12> C 4.1169809179 -2.0074872627 -0.1128862544
| 13> C 3.5356067902 -3.247768389 -0.7613644705
| 14> S 0.3014219304 -1.69246412 -0.3169261688
| 15> C 0.5033669227 -0.7114039837 -1.8310704981
| 16> S -0.0020050406 1.0312891109 -1.6858290232
| 17> P -1.8727749359 0.7236128299 -0.7919943825
| 18> S -2.9457341191 -0.7959711425 -1.4282932649
| 19> O -2.590571313 2.1341456079 -0.9498556314
| 20> C -3.2455398126 2.5268966198 -2.1737914139
| 21> C -4.2614696211 3.6001557221 -1.8383014048
| 22> O -1.5108684328 0.7468755355 0.7491997187
| 23> C -2.3944304496 0.2158064004 1.7603195688
| 24> C -1.5624921474 -0.1719041047 2.9651115927
| 25> H 0.4570922417 2.7563984711 1.8748925759
| 26> H 1.97778712 3.641849163 2.0979660309
| 27> H 1.4188689325 3.2137064051 0.4688981093
| 28> H 2.3077657301 1.2252173358 2.630067925
| 29> H 3.2314979306 1.6675186085 1.1705885996
| 30> H 4.9708221934 -1.6197990828 -0.6701118125
| 31> H 4.4092734856 -2.218343598 0.9206726257
| 32> H 4.2912171135 -4.0262651289 -0.7884936995
| 33> H 2.6844636013 -3.6035495841 -0.1807482264
| 34> H 3.205075053 -3.0341693782 -1.7745650891
| 35> H -0.1235653069 -1.2050265917 -2.5719880773
| 36> H 1.5476258502 -0.7012555567 -2.1335706492
| 37> H -2.4816246858 2.9002920224 -2.8603601901
| 38> H -3.7236923837 1.6440421858 -2.6113712364
| 39> H -3.7671459067 4.4418169121 -1.361899935
| 40> H -4.7409957908 3.9338454777 -2.7526049981
| 41> H -5.0148532373 3.2050967939 -1.1625351802
| 42> H -3.1200657886 0.9930835076 2.0115854522
| 43> H -2.9223855367 -0.6496167546 1.3443163015
| 44> H -2.2141650282 -0.5678222706 3.737090945
| 45> H -0.832793272 -0.9335964634 2.6960807652
| 46> H -1.0322198082 0.6940987119 3.3515542271
| 47> *
| 48> 
| 49>                          ****END OF INPUT****
================================================================================

                       ****************************
                       * Single Point Calculation *
                       ****************************

---------------------------------
CARTESIAN COORDINATES (ANGSTROEM)
---------------------------------
  C      1.470294    2.888481    1.504491
  C      2.229152    1.581153    1.597371
  O      1.491568    0.601253    0.834679
  P      1.889435   -0.928626    0.840277
  S      2.182715   -1.744708    2.596732
  O      3.179454   -0.918896   -0.105294
  C      4.116981   -2.007487   -0.112886
  C      3.535607   -3.247768   -0.761364
  S      0.301422   -1.692464   -0.316926
  C      0.503367   -0.711404   -1.831070
  S     -0.002005    1.031289   -1.685829
  P     -1.872775    0.723613   -0.791994
  S     -2.945734   -0.795971   -1.428293
  O     -2.590571    2.134146   -0.949856
  C     -3.245540    2.526897   -2.173791
  C     -4.261470    3.600156   -1.838301
  O     -1.510868    0.746876    0.749200
  C     -2.394430    0.215806    1.760320
  C     -1.562492   -0.171904    2.965112
  H      0.457092    2.756398    1.874893
  H      1.977787    3.641849    2.097966
  H      1.418869    3.213706    0.468898
  H      2.307766    1.225217    2.630068
  H      3.231498    1.667519    1.170589
  H      4.970822   -1.619799   -0.670112
  H      4.409273   -2.218344    0.920673
  H      4.291217   -4.026265   -0.788494
  H      2.684464   -3.603550   -0.180748
  H      3.205075   -3.034169   -1.774565
  H     -0.123565   -1.205027   -2.571988
  H      1.547626   -0.701256   -2.133571
  H     -2.481625    2.900292   -2.860360
  H     -3.723692    1.644042   -2.611371
  H     -3.767146    4.441817   -1.361900
  H     -4.740996    3.933845   -2.752605
  H     -5.014853    3.205097   -1.162535
  H     -3.120066    0.993084    2.011585
  H     -2.922386   -0.649617    1.344316
  H     -2.214165   -0.567822    3.737091
  H     -0.832793   -0.933596    2.696081
  H     -1.032220    0.694099    3.351554

----------------------------
CARTESIAN COORDINATES (A.U.)
----------------------------
  NO LB      ZA    FRAG     MASS         X           Y           Z
   0 C     6.0000    0    12.011    2.778453    5.458438    2.843076
   1 C     6.0000    0    12.011    4.212486    2.987946    3.018594
   2 O     8.0000    0    15.999    2.818655    1.136203    1.577315
   3 P    15.0000    0    30.974    3.570515   -1.754849    1.587893
   4 S    16.0000    0    32.060    4.124734   -3.297021    4.907112
   5 O     8.0000    0    15.999    6.008297   -1.736461   -0.198977
   6 C     6.0000    0    12.011    7.779966   -3.793601   -0.213324
   7 C     6.0000    0    12.011    6.681329   -6.137393   -1.438770
   8 S    16.0000    0    32.060    0.569605   -3.198294   -0.598904
   9 C     6.0000    0    12.011    0.951226   -1.344359   -3.460222
  10 S    16.0000    0    32.060   -0.003789    1.948854   -3.185755
  11 P    15.0000    0    30.974   -3.539032    1.367430   -1.496652
  12 S    16.0000    0    32.060   -5.566631   -1.504167   -2.699083
  13 O     8.0000    0    15.999   -4.895470    4.032951   -1.794967
  14 C     6.0000    0    12.011   -6.133181    4.775143   -4.107870
  15 C     6.0000    0    12.011   -8.053011    6.803308   -3.473886
  16 O     8.0000    0    15.999   -2.855128    1.411390    1.415782
  17 C     6.0000    0    12.011   -4.524818    0.407815    3.326522
  18 C     6.0000    0    12.011   -2.952682   -0.324852    5.603249
  19 H     1.0000    0     1.008    0.863779    5.208838    3.543033
  20 H     1.0000    0     1.008    3.737476    6.882098    3.964581
  21 H     1.0000    0     1.008    2.681274    6.073025    0.886089
  22 H     1.0000    0     1.008    4.361045    2.315325    4.970108
  23 H     1.0000    0     1.008    6.106646    3.151153    2.212092
  24 H     1.0000    0     1.008    9.393493   -3.060977   -1.266328
  25 H     1.0000    0     1.008    8.332319   -4.192062    1.739819
  26 H     1.0000    0     1.008    8.109225   -7.608538   -1.490037
  27 H     1.0000    0     1.008    5.072901   -6.809722   -0.341565
  28 H     1.0000    0     1.008    6.056714   -5.733749   -3.353442
  29 H     1.0000    0     1.008   -0.233505   -2.277170   -4.860353
  30 H     1.0000    0     1.008    2.924589   -1.325181   -4.031864
  31 H     1.0000    0     1.008   -4.689591    5.480758   -5.405297
  32 H     1.0000    0     1.008   -7.036759    3.106789   -4.934776
  33 H     1.0000    0     1.008   -7.118874    8.393818   -2.573618
  34 H     1.0000    0     1.008   -8.959184    7.433891   -5.201670
  35 H     1.0000    0     1.008   -9.476699    6.056755   -2.196873
  36 H     1.0000    0     1.008   -5.896070    1.876656    3.801346
  37 H     1.0000    0     1.008   -5.522508   -1.227598    2.540390
  38 H     1.0000    0     1.008   -4.184166   -1.073029    7.062078
  39 H     1.0000    0     1.008   -1.573751   -1.764242    5.094854
  40 H     1.0000    0     1.008   -1.950613    1.311656    6.333520

--------------------------------
INTERNAL COORDINATES (ANGSTROEM)
--------------------------------
 C      0   0   0     0.000000000000     0.00000000     0.00000000
 C      1   0   0     1.514463025417     0.00000000     0.00000000
 O      2   1   0     1.444275911945   107.30114821     0.00000000
 P      3   2   1     1.580778031381   121.75032632   187.31225948
 S      4   3   2     1.958861088081   116.36284902    48.88768124
 O      4   3   2     1.599483488712   101.24547812   284.33148786
 C      6   4   3     1.436679044667   121.65631489   162.26566159
 C      7   6   4     1.515525369425   111.84084283    71.04388727
 S      4   3   2     2.108163395810    99.15600955   175.26825192
 C      9   4   3     1.815459672067   100.26626597    57.19552131
 S     10   9   4     1.820295341226   114.82981648   286.68411693
 P     11  10   9     2.096040328802    98.12237186   311.35231605
 S     12  11  10     1.966024701201   117.55094037   320.74370150
 O     12  11  10     1.590520207572   103.31419859   194.21384453
 C     14  12  11     1.442655846867   122.04110278    81.72528851
 C     15  14  12     1.515437897993   108.01976806   157.46264414
 O     12  11  10     1.583286685358   102.05982371    89.92629065
 C     17  12  11     1.443980475995   122.43517977   197.61689021
 C     18  17  12     1.514583967724   108.36376130   155.19753037
 H      1   2   3     1.086839841040   109.95702933    57.65920852
 H      1   2   3     1.085046476367   109.35690010   177.93716285
 H      1   2   3     1.086677722986   109.90789069   298.30307588
 H      2   1   3     1.095140375522   111.98492218   241.27828287
 H      2   1   3     1.092840642250   111.55605166   118.59951604
 H      7   6   4     1.090801251916   104.13464531   192.03023751
 H      7   6   4     1.094595495104   108.37457837   309.09842543
 H      8   7   6     1.085237361031   109.30947317   177.27881363
 H      8   7   6     1.090018444665   109.80022234   296.60212086
 H      8   7   6     1.086945840529   110.77443155    56.86661446
 H     10   9   4     1.088882986738   104.98011832   166.78726640
 H     10   9   4     1.087237802714   110.11669110    46.54837033
 H     15  14  12     1.092871050074   107.97782399   278.11745453
 H     15  14  12     1.095234191368   108.52472448    36.42232400
 H     16  15  14     1.086143569607   109.92559300    58.04183049
 H     16  15  14     1.085009336891   109.11947447   178.03580866
 H     16  15  14     1.086424604020   110.18498396   297.97015302
 H     18  17  12     1.092630262597   107.80416287   275.82076444
 H     18  17  12     1.095788542379   108.62915316    34.05578784
 H     19  18  17     1.085071821603   109.23523991   179.66278131
 H     19  18  17     1.088583154475   110.53152941   299.40463850
 H     19  18  17     1.086502435230   110.30228176    59.47978714

---------------------------
INTERNAL COORDINATES (A.U.)
---------------------------
 C      0   0   0     0.000000000000     0.00000000     0.00000000
 C      1   0   0     2.861920357988     0.00000000     0.00000000
 O      2   1   0     2.729285935395   107.30114821     0.00000000
 P      3   2   1     2.987237557830   121.75032632   187.31225948
 S      4   3   2     3.701710990867   116.36284902    48.88768124
 O      4   3   2     3.022585749394   101.24547812   284.33148786
 C      6   4   3     2.714929936764   121.65631489   162.26566159
 C      7   6   4     2.863927897223   111.84084283    71.04388727
 S      4   3   2     3.983851463638    99.15600955   175.26825192
 C      9   4   3     3.430721587386   100.26626597    57.19552131
 S     10   9   4     3.439859677769   114.82981648   286.68411693
 P     11  10   9     3.960942187091    98.12237186   311.35231605
 S     12  11  10     3.715248257794   117.55094037   320.74370150
 O     12  11  10     3.005647602778   103.31419859   194.21384453
 C     14  12  11     2.726224456080   122.04110278    81.72528851
 C     15  14  12     2.863762600173   108.01976806   157.46264414
 O     12  11  10     2.991978226810   102.05982371    89.92629065
 C     17  12  11     2.728727642359   122.43517977   197.61689021
 C     18  17  12     2.862148905825   108.36376130   155.19753037
 H      1   2   3     2.053829651001   109.95702933    57.65920852
 H      1   2   3     2.050440682910   109.35690010   177.93716285
 H      1   2   3     2.053523292277   109.90789069   298.30307588
 H      2   1   3     2.069515387937   111.98492218   241.27828287
 H      2   1   3     2.065169521872   111.55605166   118.59951604
 H      7   6   4     2.061315632660   104.13464531   192.03023751
 H      7   6   4     2.068485713171   108.37457837   309.09842543
 H      8   7   6     2.050801402649   109.30947317   177.27881363
 H      8   7   6     2.059836341340   109.80022234   296.60212086
 H      8   7   6     2.054029961004   110.77443155    56.86661446
 H     10   9   4     2.057690636821   104.98011832   166.78726640
 H     10   9   4     2.054581689575   110.11669110    46.54837033
 H     15  14  12     2.065226984330   107.97782399   278.11745453
 H     15  14  12     2.069692674193   108.52472448    36.42232400
 H     16  15  14     2.052513888676   109.92559300    58.04183049
 H     16  15  14     2.050370499472   109.11947447   178.03580866
 H     16  15  14     2.053044966751   110.18498396   297.97015302
 H     18  17  12     2.064771961944   107.80416287   275.82076444
 H     18  17  12     2.070740245785   108.62915316    34.05578784
 H     19  18  17     2.050488578465   109.23523991   179.66278131
 H     19  18  17     2.057124035958   110.53152941   299.40463850
 H     19  18  17     2.053192046424   110.30228176    59.47978714

---------------------
BASIS SET INFORMATION
---------------------
There are 5 groups of distinct atoms

 Group   1 Type C   : 11s6p1d contracted to 5s3p1d pattern {62111/411/1}
 Group   2 Type O   : 11s6p2d contracted to 5s3p2d pattern {62111/411/11}
 Group   3 Type P   : 14s9p2d contracted to 5s4p2d pattern {73211/6111/11}
 Group   4 Type S   : 14s9p2d contracted to 5s4p2d pattern {73211/6111/11}
 Group   5 Type H   : 4s1p contracted to 2s1p pattern {31/1}

Atom   0C    basis set group =>   1
Atom   1C    basis set group =>   1
Atom   2O    basis set group =>   2
Atom   3P    basis set group =>   3
Atom   4S    basis set group =>   4
Atom   5O    basis set group =>   2
Atom   6C    basis set group =>   1
Atom   7C    basis set group =>   1
Atom   8S    basis set group =>   4
Atom   9C    basis set group =>   1
Atom  10S    basis set group =>   4
Atom  11P    basis set group =>   3
Atom  12S    basis set group =>   4
Atom  13O    basis set group =>   2
Atom  14C    basis set group =>   1
Atom  15C    basis set group =>   1
Atom  16O    basis set group =>   2
Atom  17C    basis set group =>   1
Atom  18C    basis set group =>   1
Atom  19H    basis set group =>   5
Atom  20H    basis set group =>   5
Atom  21H    basis set group =>   5
Atom  22H    basis set group =>   5
Atom  23H    basis set group =>   5
Atom  24H    basis set group =>   5
Atom  25H    basis set group =>   5
Atom  26H    basis set group =>   5
Atom  27H    basis set group =>   5
Atom  28H    basis set group =>   5
Atom  29H    basis set group =>   5
Atom  30H    basis set group =>   5
Atom  31H    basis set group =>   5
Atom  32H    basis set group =>   5
Atom  33H    basis set group =>   5
Atom  34H    basis set group =>   5
Atom  35H    basis set group =>   5
Atom  36H    basis set group =>   5
Atom  37H    basis set group =>   5
Atom  38H    basis set group =>   5
Atom  39H    basis set group =>   5
Atom  40H    basis set group =>   5
---------------------------------
AUXILIARY/J BASIS SET INFORMATION
---------------------------------
There are 5 groups of distinct atoms

 Group   1 Type C   : 12s5p4d2f1g contracted to 6s4p3d1f1g pattern {711111/2111/211/2/1}
 Group   2 Type O   : 12s5p4d2f1g contracted to 6s4p3d1f1g pattern {711111/2111/211/2/1}
 Group   3 Type P   : 14s5p5d2f1g contracted to 8s4p3d1f1g pattern {71111111/2111/311/2/1}
 Group   4 Type S   : 14s5p5d2f1g contracted to 8s4p3d1f1g pattern {71111111/2111/311/2/1}
 Group   5 Type H   : 5s2p1d contracted to 3s1p1d pattern {311/2/1}

Atom   0C    basis set group =>   1
Atom   1C    basis set group =>   1
Atom   2O    basis set group =>   2
Atom   3P    basis set group =>   3
Atom   4S    basis set group =>   4
Atom   5O    basis set group =>   2
Atom   6C    basis set group =>   1
Atom   7C    basis set group =>   1
Atom   8S    basis set group =>   4
Atom   9C    basis set group =>   1
Atom  10S    basis set group =>   4
Atom  11P    basis set group =>   3
Atom  12S    basis set group =>   4
Atom  13O    basis set group =>   2
Atom  14C    basis set group =>   1
Atom  15C    basis set group =>   1
Atom  16O    basis set group =>   2
Atom  17C    basis set group =>   1
Atom  18C    basis set group =>   1
Atom  19H    basis set group =>   5
Atom  20H    basis set group =>   5
Atom  21H    basis set group =>   5
Atom  22H    basis set group =>   5
Atom  23H    basis set group =>   5
Atom  24H    basis set group =>   5
Atom  25H    basis set group =>   5
Atom  26H    basis set group =>   5
Atom  27H    basis set group =>   5
Atom  28H    basis set group =>   5
Atom  29H    basis set group =>   5
Atom  30H    basis set group =>   5
Atom  31H    basis set group =>   5
Atom  32H    basis set group =>   5
Atom  33H    basis set group =>   5
Atom  34H    basis set group =>   5
Atom  35H    basis set group =>   5
Atom  36H    basis set group =>   5
Atom  37H    basis set group =>   5
Atom  38H    basis set group =>   5
Atom  39H    basis set group =>   5
Atom  40H    basis set group =>   5

Checking for AutoStart:
The File: sp_gas.gbw exists
Trying to determine its content:
     ... Fine, the file contains calculation information
     ... Fine, the calculation information was read
     ... Fine, the file contains a basis set
     ... Fine, the basis set was read
     ... Fine, the file contains a geometry
     ... Fine, the geometry was read
     ... Fine, the file contains a set of orbitals
     ... Fine, the orbitals can be read
     => possible old guess file was deleted
     => GBW file was renamed to GES file
     => GES file is set as startup file
     => Guess is set to MORead
     ... now leaving AutoStart

------------------------------------------------------------------------------
                             ORCA STARTUP CALCULATIONS
                           -- RI-GTO INTEGRALS CHOSEN --
------------------------------------------------------------------------------
------------------------------------------------------------------------------
                   ___                                                        
                  /   \      - P O W E R E D   B Y -                         
                 /     \                                                     
                 |  |  |   _    _      __       _____    __    __             
                 |  |  |  | |  | |    /  \     |  _  \  |  |  /  |          
                  \  \/   | |  | |   /    \    | | | |  |  | /  /          
                 / \  \   | |__| |  /  /\  \   | |_| |  |  |/  /          
                |  |  |   |  __  | /  /__\  \  |    /   |      \           
                |  |  |   | |  | | |   __   |  |    \   |  |\   \          
                \     /   | |  | | |  |  |  |  | |\  \  |  | \   \       
                 \___/    |_|  |_| |__|  |__|  |_| \__\ |__|  \__/        
                                                                              
                      - O R C A' S   B I G   F R I E N D -                    
                                      &                                       
                       - I N T E G R A L  F E E D E R -                       
                                                                              
 v1 FN, 2020, v2 2021, v3 2022-2024                                           
------------------------------------------------------------------------------


----------------------
SHARK INTEGRAL PACKAGE
----------------------

Number of atoms                             ...     41
Number of basis functions                   ...    539
Number of shells                            ...    253
Maximum angular momentum                    ...      2
Integral batch strategy                     ... SHARK/LIBINT Hybrid
RI-J (if used) integral strategy            ... SPLIT-RIJ (Revised 2003 algorithm where possible)
Printlevel                                  ...      1
Contraction scheme used                     ... SEGMENTED contraction
Prescreening option                         ... SCHWARTZ
   Thresh                                   ... 1.000e-10
   Tcut                                     ... 1.000e-11
   Tpresel                                  ... 1.000e-11 
Coulomb Range Separation                    ... NOT USED
Exchange Range Separation                   ... NOT USED
Multipole approximations                    ... NOT USED
Finite Nucleus Model                        ... NOT USED
CABS basis                                  ... NOT available
Auxiliary Coulomb fitting basis             ... AVAILABLE
   # of basis functions in Aux-J            ...   1185
   # of shells in Aux-J                     ...    407
   Maximum angular momentum in Aux-J        ...      4
Auxiliary J/K fitting basis                 ... NOT available
Auxiliary Correlation fitting basis         ... NOT available
Auxiliary 'external' fitting basis          ... NOT available

Checking pre-screening integrals            ... done (  0.0 sec) Dimension = 253
Check shell pair data                       ... done (  0.0 sec)
Shell pair information
Shell pair cut-off parameter TPreSel        ...   1.0e-11
Total number of shell pairs                 ...     32131
Shell pairs after pre-screening             ...     21609
Total number of primitive shell pairs       ...    124843
Primitive shell pairs kept                  ...     50465
          la=0 lb=0:   6118 shell pairs
          la=1 lb=0:   7825 shell pairs
          la=1 lb=1:   2578 shell pairs
          la=2 lb=0:   2880 shell pairs
          la=2 lb=1:   1847 shell pairs
          la=2 lb=2:    361 shell pairs

Calculating one electron integrals          ... done (  0.1 sec)
Calculating RI/J V-Matrix + Cholesky decomp.... done (  0.1 sec)
Calculating Nuclear repulsion               ... done (  0.0 sec) ENN=   2793.861779972877 Eh

Diagonalization of the overlap matrix:
Smallest eigenvalue                        ... 2.697e-04
Time for diagonalization                   ...    0.031 sec
Threshold for overlap eigenvalues          ... 1.000e-07
Number of eigenvalues below threshold      ... 0
Time for construction of square roots      ...    0.056 sec
Total time needed                          ...    0.098 sec

-------------------
DFT GRID GENERATION
-------------------

General Integration Accuracy     IntAcc      ... 4.388
Radial Grid Type                 RadialGrid  ... OptM3 with GC (2021)
Angular Grid (max. ang.)         AngularGrid ... 4 (Lebedev-302)
Angular grid pruning method      GridPruning ... 4 (adaptive)
Weight generation scheme         WeightScheme... mBecke (2022)
Basis function cutoff            BFCut       ... 1.0000e-10
Integration weight cutoff        WCut        ... 1.0000e-14
Partially contracted basis set               ... off
Rotationally invariant grid construction     ... off
Angular grids for H and He will be reduced by one unit
Diffuse basis detected: some atoms will have their outermost
                        angular grid increased by 1.

Total number of grid points                  ...   192639
Total number of batches                      ...     3032
Average number of points per batch           ...       63
Average number of grid points per atom       ...     4699
Initializing property integral containers    ... done (  0.0 sec)

SHARK setup successfully completed in   3.0 seconds

Maximum memory used throughout the entire STARTUP-calculation: 102.2 MB
-------------------------------------------------------------------------------
                                 ORCA GUESS
                   Start orbitals & Density for SCF / CASSCF
-------------------------------------------------------------------------------

------------
SCF SETTINGS
------------
Hamiltonian:
 Density Functional     Method          .... DFT(GTOs)
  Functional kind                       .... Exchange
  Functional name                       .... Re-regularized SCAN exchange by Furness et al
  Functional family                     .... MGGA
  Functional refs                              
    [ 0] J. W. Furness, A. D. Kaplan, J. Ning, J. P. Perdew, and J. Sun.,  J. Phys. Chem. Lett. 11, 8208-8215 (2020), doi: 10.1021/acs.jpclett.0c02405
    [ 1] J. W. Furness, A. D. Kaplan, J. Ning, J. P. Perdew, and J. Sun.,  J. Phys. Chem. Lett. 11, 9248-9248 (2020), doi: 10.1021/acs.jpclett.0c03077
  Functional external parameters        .... 6
    Parameter  0 _c1        =  6.670000e-01 : c1 parameter        
    Parameter  1 _c2        =  8.000000e-01 : c2 parameter        
    Parameter  2 _d         =  1.240000e+00 : d parameter         
    Parameter  3 _k1        =  6.500000e-02 : k1 parameter        
    Parameter  4 _eta       =  1.000000e-03 : eta parameter       
    Parameter  5 _dp2       =  3.610000e-01 : dp2 parameter       
  Functional kind                       .... Correlation
  Functional name                       .... Re-regularized SCAN correlation by Furness et al
  Functional family                     .... MGGA
  Functional refs                              
    [ 0] J. W. Furness, A. D. Kaplan, J. Ning, J. P. Perdew, and J. Sun.,  J. Phys. Chem. Lett. 11, 8208-8215 (2020), doi: 10.1021/acs.jpclett.0c02405
    [ 1] J. W. Furness, A. D. Kaplan, J. Ning, J. P. Perdew, and J. Sun.,  J. Phys. Chem. Lett. 11, 9248-9248 (2020), doi: 10.1021/acs.jpclett.0c03077
  Functional external parameters        .... 1
    Parameter  0 _eta       =  1.000000e-03 : Regularization parameter
 Gradients option       PostSCFGGA      .... off
 RI-approximation to the Coulomb term is turned on
   Number of AuxJ basis functions       .... 1185


General Settings:
 Integral files         IntName         .... sp_gas
 Hartree-Fock type      HFTyp           .... RHF
 Total Charge           Charge          ....    0
 Multiplicity           Mult            ....    1
 Number of Electrons    NEL             ....  202
 Basis Dimension        Dim             ....  539
 Nuclear Repulsion      ENuc            ....   2793.8617799729 Eh

Convergence Acceleration:
 AO-DIIS                CNVDIIS         .... on
   Start iteration      DIISMaxIt       ....    12
   Startup error        DIISStart       ....  0.200000
   # of expansion vecs  DIISMaxEq       ....     5
   Bias factor          DIISBfac        ....   1.050
   Max. coefficient     DIISMaxC        ....  10.000
 MO-DIIS                CNVKDIIS        .... off
 Trust-Rad. Augm. Hess. CNVTRAH         .... auto
   Auto Start mean grad. ratio tolernc. ....  1.125000
   Auto Start start iteration           ....     1
   Auto Start num. interpolation iter.  ....    10
   Max. Number of Micro iterations      ....    24
   Max. Number of Macro iterations      .... Maxiter - #DIIS iter
   Number of Davidson start vectors     ....     2
   Converg. threshold    (grad. norm)   ....   3.330e-04
   Grad. Scal. Fac. for Micro threshold ....   0.100
   Minimum threshold for Micro iter.    ....   1.000e-02
   NR start threshold (gradient norm)   ....   1.000e-04
   Initial trust radius                 ....   0.400
   Minimum AH scaling param. (alpha)    ....   1.000
   Maximum AH scaling param. (alpha)    .... 1000.000
   Quad. conv. algorithm                .... NR
   White noise on init. David. guess    .... on
   Maximum white noise                  ....   0.010
   Pseudo random numbers                .... off
   Inactive MOs                         .... canonical
   Orbital update algorithm             .... Taylor
   Preconditioner                       .... Diag
   Full preconditioner red. dimension   ....   250
   COSX micro iterations for RIJONX calc.... off
 SOSCF                  CNVSOSCF        .... on
   Start iteration      SOSCFMaxIt      ....   150
   Startup grad/error   SOSCFStart      ....  0.003300
   Hessian update       SOSCFHessUp     .... L-BFGS
 Level Shifting         CNVShift        .... on
   Level shift para.    LevelShift      ....    0.2500
   Turn off err/grad.   ShiftErr        ....    0.0010
 Zerner damping         CNVZerner       .... off
 Static damping         CNVDamp         .... on
   Fraction old density DampFac         ....    0.7000
   Max. Damping (<1)    DampMax         ....    0.9800
   Min. Damping (>=0)   DampMin         ....    0.0000
   Turn off err/grad.   DampErr         ....    0.1000

SCF Procedure:
 Maximum # iterations   MaxIter         ....   125
 SCF integral mode      SCFMode         .... Direct
   Integral package                     .... SHARK and LIBINT hybrid scheme
 Reset frequency        DirectResetFreq ....    20
 Integral Threshold     Thresh          ....  1.000e-10 Eh
 Primitive CutOff       TCut            ....  1.000e-11 Eh

Convergence Tolerance:
 Convergence Check Mode ConvCheckMode   .... Total+1el-Energy
 Convergence forced     ConvForced      .... 0
 Energy Change          TolE            ....  1.000e-06 Eh
 1-El. energy change                    ....  1.000e-03 Eh
 Orbital Gradient       TolG            ....  3.330e-04
 Orbital Rotation angle TolX            ....  3.330e-04
 DIIS Error             TolErr          ....  1.000e-06

---------------------
INITIAL GUESS: MOREAD
---------------------
Guess MOs are being read from file: sp_gas.ges
Input Geometry matches current geometry (good)
Atom 0: N(Shells)= 9 and 6 - projection required
Input basis set needs projection
NBasis(read)= 334
NBasis(calc)= 539
Basis set overlap was calculated
Using GuessMode=FMatrix for the initial guess
C*T matrix was formed
Effective Fockian was calculated
Effective Fockian was diagonalized
Initial density was built
                      ------------------
                      INITIAL GUESS DONE (   0.2 sec)
                      ------------------
             **** ENERGY FILE WAS UPDATED (sp_gas.en.tmp) ****
Finished Guess after   0.5 sec
Maximum memory used throughout the entire GUESS-calculation: 59.4 MB

-------------------------------------------------------------------------------------------
                                      ORCA LEAN-SCF
                              memory conserving SCF solver
-------------------------------------------------------------------------------------------

----------------------------------------D-I-I-S--------------------------------------------
Iteration    Energy (Eh)           Delta-E    RMSDP     MaxDP     DIISErr   Damp  Time(sec)
-------------------------------------------------------------------------------------------
               ***  Starting incremental Fock matrix formation  ***
    1    -2932.0044738057113136     0.00e+00  2.20e-03  8.76e-02  6.36e-01  0.700   9.2
    2    -2932.1476777898669752    -1.43e-01  1.79e-03  7.07e-02  4.47e-01  0.700   7.9
    3    -2932.2488680676842705    -1.01e-01  1.32e-03  5.13e-02  3.14e-01  0.700   7.7
    4    -2932.3198641296148708    -7.10e-02  9.41e-04  3.64e-02  2.20e-01  0.700   7.1
                               ***Turning on AO-DIIS***
    5    -2932.3696374601031494    -4.98e-02  6.80e-04  2.67e-02  1.54e-01  0.700   7.0
    6    -2932.4045136629110857    -3.49e-02  4.82e-04  1.91e-02  1.07e-01  0.700   6.9
    7    -2932.4289563540041854    -2.44e-02  3.39e-04  1.36e-02  7.53e-02  0.700   6.8
    8    -2932.4460790718921999    -1.71e-02  7.96e-04  3.23e-02  5.27e-02  0.000   6.9
                              *** Initializing SOSCF ***
---------------------------------------S-O-S-C-F--------------------------------------
Iteration    Energy (Eh)           Delta-E    RMSDP     MaxDP     MaxGrad    Time(sec)
--------------------------------------------------------------------------------------
    9    -2932.4860746920057863    -4.00e-02  5.24e-06  2.53e-04  1.32e-04     7.5
               *** Restarting incremental Fock matrix formation ***
   10    -2932.4860754210694722    -7.29e-07  5.42e-06  2.31e-04  3.15e-05     9.1
                  *** Gradient check signals convergence ***

               *****************************************************
               *                     SUCCESS                       *
               *           SCF CONVERGED AFTER  10 CYCLES          *
               *****************************************************

             **** ENERGY FILE WAS UPDATED (sp_gas.en.tmp) ****

----------------
TOTAL SCF ENERGY
----------------

Total Energy       :      -2932.48607542106947 Eh          -79797.00291 eV

Components:
Nuclear Repulsion  :       2793.86177997287723 Eh           76024.84406 eV
Electronic Energy  :      -5726.34785539394761 Eh         -155821.84697 eV
One Electron Energy:      -9608.89575847613378 Eh         -261471.34653 eV
Two Electron Energy:       3882.54790308218662 Eh          105649.49956 eV

Virial components:
Potential Energy   :      -5856.14582046255236 Eh         -159353.82917 eV
Kinetic Energy     :       2923.65974504148244 Eh           79556.82625 eV
Virial Ratio       :          2.00301893214303

DFT components:
N(Alpha)           :      101.000004436327 electrons
N(Beta)            :      101.000004436327 electrons
N(Total)           :      202.000008872654 electrons
E(X)               :     -233.534464281331 Eh       
E(C)               :       -7.117306522725 Eh       
E(XC)              :     -240.651770804056 Eh       

---------------
SCF CONVERGENCE
---------------

  Last Energy change         ...    7.2906e-07  Tolerance :   1.0000e-06
  Last MAX-Density change    ...    2.3108e-04  Tolerance :   1.0000e-05
  Last RMS-Density change    ...    5.4219e-06  Tolerance :   1.0000e-06
  Last DIIS Error            ...    1.3242e-04  Tolerance :   1.0000e-06
  Last Orbital Gradient      ...    3.1515e-05  Tolerance :   3.3300e-04
  Last Orbital Rotation      ...    1.9101e-04  Tolerance :   3.3300e-04


----------------
ORBITAL ENERGIES
----------------

  NO   OCC          E(Eh)            E(eV) 
   0   2.0000     -88.577776     -2410.3238 
   1   2.0000     -88.575509     -2410.2621 
   2   2.0000     -88.521581     -2408.7947 
   3   2.0000     -88.517737     -2408.6901 
   4   2.0000     -76.912813     -2092.9040 
   5   2.0000     -76.912281     -2092.8896 
   6   2.0000     -18.992846      -516.8216 
   7   2.0000     -18.990543      -516.7589 
   8   2.0000     -18.985571      -516.6236 
   9   2.0000     -18.984679      -516.5994 
  10   2.0000     -10.113270      -275.1961 
  11   2.0000     -10.098982      -274.8073 
  12   2.0000     -10.097203      -274.7589 
  13   2.0000     -10.096762      -274.7469 
  14   2.0000     -10.090623      -274.5798 
  15   2.0000     -10.032669      -273.0028 
  16   2.0000     -10.030821      -272.9525 
  17   2.0000     -10.028595      -272.8920 
  18   2.0000     -10.020178      -272.6629 
  19   2.0000      -7.871848      -214.2039 
  20   2.0000      -7.870243      -214.1602 
  21   2.0000      -7.816183      -212.6891 
  22   2.0000      -7.812461      -212.5879 
  23   2.0000      -6.591351      -179.3598 
  24   2.0000      -6.590702      -179.3421 
  25   2.0000      -5.819251      -158.3499 
  26   2.0000      -5.817266      -158.2959 
  27   2.0000      -5.815346      -158.2436 
  28   2.0000      -5.814063      -158.2087 
  29   2.0000      -5.808803      -158.0656 
  30   2.0000      -5.807158      -158.0208 
  31   2.0000      -5.763783      -156.8405 
  32   2.0000      -5.760060      -156.7392 
  33   2.0000      -5.756570      -156.6442 
  34   2.0000      -5.756158      -156.6330 
  35   2.0000      -5.752787      -156.5413 
  36   2.0000      -5.752474      -156.5328 
  37   2.0000      -4.736794      -128.8947 
  38   2.0000      -4.736385      -128.8836 
  39   2.0000      -4.736109      -128.8761 
  40   2.0000      -4.735669      -128.8641 
  41   2.0000      -4.735046      -128.8472 
  42   2.0000      -4.734494      -128.8321 
  43   2.0000      -1.049241       -28.5513 
  44   2.0000      -1.045970       -28.4623 
  45   2.0000      -1.009462       -27.4688 
  46   2.0000      -1.006104       -27.3775 
  47   2.0000      -0.803970       -21.8771 
  48   2.0000      -0.760106       -20.6835 
  49   2.0000      -0.749327       -20.3902 
  50   2.0000      -0.731845       -19.9145 
  51   2.0000      -0.728457       -19.8223 
  52   2.0000      -0.709713       -19.3123 
  53   2.0000      -0.685401       -18.6507 
  54   2.0000      -0.668074       -18.1792 
  55   2.0000      -0.628189       -17.0939 
  56   2.0000      -0.619513       -16.8578 
  57   2.0000      -0.607178       -16.5221 
  58   2.0000      -0.598215       -16.2783 
  59   2.0000      -0.587665       -15.9912 
  60   2.0000      -0.531767       -14.4701 
  61   2.0000      -0.528694       -14.3865 
  62   2.0000      -0.496787       -13.5183 
  63   2.0000      -0.494081       -13.4446 
  64   2.0000      -0.475730       -12.9453 
  65   2.0000      -0.463592       -12.6150 
  66   2.0000      -0.457220       -12.4416 
  67   2.0000      -0.447615       -12.1802 
  68   2.0000      -0.446018       -12.1368 
  69   2.0000      -0.433355       -11.7922 
  70   2.0000      -0.424914       -11.5625 
  71   2.0000      -0.413949       -11.2641 
  72   2.0000      -0.408979       -11.1289 
  73   2.0000      -0.406690       -11.0666 
  74   2.0000      -0.392159       -10.6712 
  75   2.0000      -0.390815       -10.6346 
  76   2.0000      -0.378540       -10.3006 
  77   2.0000      -0.371582       -10.1113 
  78   2.0000      -0.369990       -10.0680 
  79   2.0000      -0.366335        -9.9685 
  80   2.0000      -0.359895        -9.7932 
  81   2.0000      -0.357917        -9.7394 
  82   2.0000      -0.350939        -9.5495 
  83   2.0000      -0.347443        -9.4544 
  84   2.0000      -0.343241        -9.3401 
  85   2.0000      -0.336453        -9.1554 
  86   2.0000      -0.325586        -8.8596 
  87   2.0000      -0.315779        -8.5928 
  88   2.0000      -0.313201        -8.5226 
  89   2.0000      -0.307647        -8.3715 
  90   2.0000      -0.298847        -8.1320 
  91   2.0000      -0.286130        -7.7860 
  92   2.0000      -0.280620        -7.6361 
  93   2.0000      -0.279246        -7.5987 
  94   2.0000      -0.275864        -7.5067 
  95   2.0000      -0.243686        -6.6310 
  96   2.0000      -0.231679        -6.3043 
  97   2.0000      -0.223278        -6.0757 
  98   2.0000      -0.219459        -5.9718 
  99   2.0000      -0.212671        -5.7871 
 100   2.0000      -0.211251        -5.7484 
 101   0.0000      -0.047562        -1.2942 
 102   0.0000      -0.022153        -0.6028 
 103   0.0000      -0.009378        -0.2552 
 104   0.0000       0.002128         0.0579 
 105   0.0000       0.006598         0.1795 
 106   0.0000       0.027286         0.7425 
 107   0.0000       0.041481         1.1288 
 108   0.0000       0.047450         1.2912 
 109   0.0000       0.053885         1.4663 
 110   0.0000       0.067196         1.8285 
 111   0.0000       0.077657         2.1132 
*Only the first 10 virtual orbitals were printed.

                    ********************************
                    * MULLIKEN POPULATION ANALYSIS *
                    ********************************

-----------------------
MULLIKEN ATOMIC CHARGES
-----------------------
   0 C :   -0.448239
   1 C :   -0.153149
   2 O :   -0.213834
   3 P :    0.682018
   4 S :   -0.474412
   5 O :   -0.316906
   6 C :   -0.160359
   7 C :   -0.434346
   8 S :   -0.114612
   9 C :   -0.254778
  10 S :   -0.127663
  11 P :    0.714502
  12 S :   -0.489452
  13 O :   -0.298792
  14 C :   -0.146995
  15 C :   -0.443706
  16 O :   -0.253309
  17 C :   -0.142580
  18 C :   -0.450323
  19 H :    0.163198
  20 H :    0.143310
  21 H :    0.155888
  22 H :    0.167277
  23 H :    0.149230
  24 H :    0.147032
  25 H :    0.172569
  26 H :    0.148716
  27 H :    0.175827
  28 H :    0.145777
  29 H :    0.208739
  30 H :    0.188944
  31 H :    0.148312
  32 H :    0.171161
  33 H :    0.152863
  34 H :    0.146545
  35 H :    0.157197
  36 H :    0.144979
  37 H :    0.170449
  38 H :    0.144616
  39 H :    0.178040
  40 H :    0.146264
Sum of atomic charges:   -0.0000000

--------------------------------
MULLIKEN REDUCED ORBITAL CHARGES
--------------------------------
  0 C s       :     3.315442  s :     3.315442
      pz      :     1.095458  p :     3.107094
      px      :     1.051058
      py      :     0.960579
      dz2     :     0.005737  d :     0.025702
      dxz     :     0.003220
      dyz     :     0.005208
      dx2y2   :     0.005503
      dxy     :     0.006035

  1 C s       :     3.286481  s :     3.286481
      pz      :     1.008793  p :     2.812261
      px      :     0.974540
      py      :     0.828928
      dz2     :     0.011555  d :     0.054407
      dxz     :     0.007207
      dyz     :     0.011572
      dx2y2   :     0.011964
      dxy     :     0.012108

  2 O s       :     3.722461  s :     3.722461
      pz      :     1.670521  p :     4.481371
      px      :     1.653526
      py      :     1.157324
      dz2     :     0.002454  d :     0.010003
      dxz     :     0.009014
      dyz     :    -0.014562
      dx2y2   :     0.006597
      dxy     :     0.006500

  3 P s       :     5.129401  s :     5.129401
      pz      :     2.801428  p :     8.461531
      px      :     2.814109
      py      :     2.845994
      dz2     :     0.146004  d :     0.727050
      dxz     :     0.184544
      dyz     :     0.147933
      dx2y2   :     0.139432
      dxy     :     0.109138

  4 S s       :     5.912667  s :     5.912667
      pz      :     3.209072  p :    10.496409
      px      :     3.678421
      py      :     3.608916
      dz2     :     0.023261  d :     0.065337
      dxz     :     0.014467
      dyz     :     0.019617
      dx2y2   :     0.004074
      dxy     :     0.003918

  5 O s       :     3.734182  s :     3.734182
      pz      :     1.701900  p :     4.563133
      px      :     1.306208
      py      :     1.555026
      dz2     :    -0.001691  d :     0.019590
      dxz     :     0.007527
      dyz     :     0.003029
      dx2y2   :     0.005292
      dxy     :     0.005432

  6 C s       :     3.287072  s :     3.287072
      pz      :     1.103779  p :     2.818216
      px      :     0.890857
      py      :     0.823580
      dz2     :     0.009656  d :     0.055071
      dxz     :     0.008511
      dyz     :     0.009135
      dx2y2   :     0.011563
      dxy     :     0.016207

  7 C s       :     3.306661  s :     3.306661
      pz      :     1.048782  p :     3.101911
      px      :     1.076447
      py      :     0.976681
      dz2     :     0.006231  d :     0.025775
      dxz     :     0.004740
      dyz     :     0.004236
      dx2y2   :     0.003060
      dxy     :     0.007507

  8 S s       :     5.922440  s :     5.922440
      pz      :     3.081067  p :    10.079763
      px      :     3.451217
      py      :     3.547479
      dz2     :     0.022527  d :     0.112410
      dxz     :     0.027869
      dyz     :     0.023928
      dx2y2   :     0.020512
      dxy     :     0.017574

  9 C s       :     3.180064  s :     3.180064
      pz      :     0.967333  p :     3.039260
      px      :     1.154630
      py      :     0.917296
      dz2     :     0.006109  d :     0.035455
      dxz     :     0.005659
      dyz     :     0.009668
      dx2y2   :     0.009076
      dxy     :     0.004942

 10 S s       :     5.901756  s :     5.901756
      pz      :     3.725371  p :    10.120209
      px      :     3.227173
      py      :     3.167665
      dz2     :     0.014620  d :     0.105697
      dxz     :     0.018037
      dyz     :     0.016316
      dx2y2   :     0.034287
      dxy     :     0.022436

 11 P s       :     5.121230  s :     5.121230
      pz      :     2.815977  p :     8.418810
      px      :     2.820679
      py      :     2.782153
      dz2     :     0.151196  d :     0.745458
      dxz     :     0.130849
      dyz     :     0.142673
      dx2y2   :     0.179320
      dxy     :     0.141420

 12 S s       :     5.915542  s :     5.915542
      pz      :     3.652125  p :    10.505564
      px      :     3.484601
      py      :     3.368838
      dz2     :     0.009394  d :     0.068345
      dxz     :     0.008185
      dyz     :     0.013869
      dx2y2   :     0.014223
      dxy     :     0.022674

 13 O s       :     3.742136  s :     3.742136
      pz      :     1.460229  p :     4.533156
      px      :     1.616745
      py      :     1.456182
      dz2     :     0.014220  d :     0.023500
      dxz     :     0.001979
      dyz     :     0.001297
      dx2y2   :     0.003369
      dxy     :     0.002636

 14 C s       :     3.295879  s :     3.295879
      pz      :     0.807235  p :     2.796882
      px      :     0.966902
      py      :     1.022746
      dz2     :     0.010689  d :     0.054234
      dxz     :     0.015664
      dyz     :     0.011028
      dx2y2   :     0.006718
      dxy     :     0.010135

 15 C s       :     3.313863  s :     3.313863
      pz      :     1.077330  p :     3.104023
      px      :     1.016802
      py      :     1.009891
      dz2     :     0.003354  d :     0.025820
      dxz     :     0.006496
      dyz     :     0.004549
      dx2y2   :     0.003960
      dxy     :     0.007462

 16 O s       :     3.724188  s :     3.724188
      pz      :     1.148569  p :     4.516204
      px      :     1.615035
      py      :     1.752599
      dz2     :     0.001239  d :     0.012917
      dxz     :     0.004233
      dyz     :    -0.008847
      dx2y2   :     0.007657
      dxy     :     0.008636

 17 C s       :     3.287871  s :     3.287871
      pz      :     0.825450  p :     2.800454
      px      :     0.921777
      py      :     1.053228
      dz2     :     0.010612  d :     0.054254
      dxz     :     0.015221
      dyz     :     0.010468
      dx2y2   :     0.004881
      dxy     :     0.013073

 18 C s       :     3.323549  s :     3.323549
      pz      :     0.976902  p :     3.101138
      px      :     1.035587
      py      :     1.088649
      dz2     :     0.004054  d :     0.025636
      dxz     :     0.007799
      dyz     :     0.004636
      dx2y2   :     0.001599
      dxy     :     0.007548

 19 H s       :     0.818553  s :     0.818553
      pz      :     0.004354  p :     0.018249
      px      :     0.010404
      py      :     0.003491

 20 H s       :     0.838221  s :     0.838221
      pz      :     0.005910  p :     0.018468
      px      :     0.005104
      py      :     0.007455

 21 H s       :     0.825829  s :     0.825829
      pz      :     0.010524  p :     0.018283
      px      :     0.003620
      py      :     0.004138

 22 H s       :     0.814966  s :     0.814966
      pz      :     0.010818  p :     0.017757
      px      :     0.003025
      py      :     0.003915

 23 H s       :     0.833344  s :     0.833344
      pz      :     0.004162  p :     0.017426
      px      :     0.010313
      py      :     0.002951

 24 H s       :     0.835556  s :     0.835556
      pz      :     0.005596  p :     0.017411
      px      :     0.008190
      py      :     0.003625

 25 H s       :     0.809451  s :     0.809451
      pz      :     0.011573  p :     0.017980
      px      :     0.003400
      py      :     0.003007

 26 H s       :     0.832774  s :     0.832774
      pz      :     0.003726  p :     0.018510
      px      :     0.007036
      py      :     0.007748

 27 H s       :     0.805729  s :     0.805729
      pz      :     0.005610  p :     0.018444
      px      :     0.008485
      py      :     0.004349

 28 H s       :     0.836028  s :     0.836028
      pz      :     0.010071  p :     0.018196
      px      :     0.004395
      py      :     0.003729

 29 H s       :     0.772538  s :     0.772538
      pz      :     0.007250  p :     0.018723
      px      :     0.006518
      py      :     0.004955

 30 H s       :     0.792235  s :     0.792235
      pz      :     0.004056  p :     0.018821
      px      :     0.011565
      py      :     0.003200

 31 H s       :     0.834229  s :     0.834229
      pz      :     0.006100  p :     0.017459
      px      :     0.007013
      py      :     0.004345

 32 H s       :     0.810614  s :     0.810614
      pz      :     0.003899  p :     0.018225
      px      :     0.004780
      py      :     0.009546

 33 H s       :     0.828902  s :     0.828902
      pz      :     0.005133  p :     0.018235
      px      :     0.004977
      py      :     0.008125

 34 H s       :     0.835002  s :     0.835002
      pz      :     0.008739  p :     0.018453
      px      :     0.005248
      py      :     0.004466

 35 H s       :     0.824614  s :     0.824614
      pz      :     0.006576  p :     0.018189
      px      :     0.007195
      py      :     0.004418

 36 H s       :     0.837620  s :     0.837620
      pz      :     0.003366  p :     0.017400
      px      :     0.006854
      py      :     0.007180

 37 H s       :     0.811247  s :     0.811247
      pz      :     0.004433  p :     0.018304
      px      :     0.005044
      py      :     0.008827

 38 H s       :     0.836860  s :     0.836860
      pz      :     0.007622  p :     0.018524
      px      :     0.006053
      py      :     0.004849

 39 H s       :     0.803377  s :     0.803377
      pz      :     0.003750  p :     0.018583
      px      :     0.007532
      py      :     0.007301

 40 H s       :     0.835467  s :     0.835467
      pz      :     0.004535  p :     0.018269
      px      :     0.005575
      py      :     0.008160


------------------------
MULLIKEN OVERLAP CHARGES
------------------------
B(  0-C ,  1-C ) :   0.4839 B(  0-C ,  2-O ) :  -0.1620 B(  0-C , 19-H ) :   0.8371 
B(  0-C , 20-H ) :   0.7979 B(  0-C , 21-H ) :   0.8121 B(  0-C , 22-H ) :  -0.0679 
B(  1-C ,  2-O ) :   0.2171 B(  1-C ,  3-P ) :  -0.1961 B(  1-C , 19-H ) :  -0.0790 
B(  1-C , 20-H ) :  -0.0660 B(  1-C , 21-H ) :  -0.0539 B(  1-C , 22-H ) :   0.8426 
B(  1-C , 23-H ) :   0.7638 B(  2-O ,  3-P ) :   0.5844 B(  2-O ,  4-S ) :  -0.0899 
B(  2-O ,  5-O ) :  -0.2317 B(  2-O ,  8-S ) :  -0.1381 B(  2-O , 22-H ) :  -0.0788 
B(  2-O , 23-H ) :  -0.0717 B(  3-P ,  4-S ) :   1.2525 B(  3-P ,  5-O ) :   0.4657 
B(  3-P ,  6-C ) :  -0.1429 B(  3-P ,  8-S ) :   0.6963 B(  4-S ,  5-O ) :  -0.1021 
B(  4-S ,  8-S ) :  -0.0571 B(  5-O ,  6-C ) :   0.3380 B(  5-O ,  7-C ) :  -0.1478 
B(  5-O ,  8-S ) :  -0.0971 B(  5-O , 24-H ) :  -0.1059 B(  5-O , 25-H ) :  -0.0851 
B(  6-C ,  7-C ) :   0.4685 B(  6-C , 24-H ) :   0.7985 B(  6-C , 25-H ) :   0.8692 
B(  6-C , 26-H ) :  -0.0584 B(  6-C , 27-H ) :  -0.0803 B(  6-C , 28-H ) :  -0.0666 
B(  7-C , 25-H ) :  -0.1058 B(  7-C , 26-H ) :   0.7836 B(  7-C , 27-H ) :   0.8350 
B(  7-C , 28-H ) :   0.8107 B(  8-S ,  9-C ) :   0.3888 B(  8-S , 10-S ) :  -0.1461 
B(  8-S , 29-H ) :  -0.0704 B(  8-S , 30-H ) :  -0.0527 B(  9-C , 10-S ) :   0.4119 
B(  9-C , 11-P ) :  -0.0835 B(  9-C , 29-H ) :   0.7953 B(  9-C , 30-H ) :   0.7769 
B( 10-S , 11-P ) :   0.7210 B( 10-S , 12-S ) :  -0.1025 B( 10-S , 13-O ) :  -0.1046 
B( 10-S , 16-O ) :  -0.1305 B( 10-S , 29-H ) :  -0.0700 B( 10-S , 30-H ) :  -0.0712 
B( 11-P , 12-S ) :   1.2295 B( 11-P , 13-O ) :   0.5875 B( 11-P , 14-C ) :  -0.1841 
B( 11-P , 16-O ) :   0.6507 B( 11-P , 17-C ) :  -0.2059 B( 12-S , 13-O ) :  -0.0956 
B( 12-S , 16-O ) :  -0.0808 B( 13-O , 14-C ) :   0.2753 B( 13-O , 15-C ) :  -0.1000 
B( 13-O , 16-O ) :  -0.2392 B( 13-O , 31-H ) :  -0.0855 B( 13-O , 32-H ) :  -0.0901 
B( 14-C , 15-C ) :   0.4996 B( 14-C , 31-H ) :   0.7640 B( 14-C , 32-H ) :   0.8490 
B( 14-C , 33-H ) :  -0.0556 B( 14-C , 34-H ) :  -0.0723 B( 14-C , 35-H ) :  -0.0711 
B( 15-C , 32-H ) :  -0.0545 B( 15-C , 33-H ) :   0.8224 B( 15-C , 34-H ) :   0.8103 
B( 15-C , 35-H ) :   0.8338 B( 16-O , 17-C ) :   0.2326 B( 16-O , 18-C ) :  -0.1336 
B( 16-O , 36-H ) :  -0.0791 B( 16-O , 37-H ) :  -0.0715 B( 17-C , 18-C ) :   0.4796 
B( 17-C , 36-H ) :   0.7436 B( 17-C , 37-H ) :   0.8670 B( 17-C , 38-H ) :  -0.0668 
B( 17-C , 39-H ) :  -0.0829 B( 17-C , 40-H ) :  -0.0539 B( 18-C , 37-H ) :  -0.0779 
B( 18-C , 38-H ) :   0.8013 B( 18-C , 39-H ) :   0.8427 B( 18-C , 40-H ) :   0.8086 
B( 22-H , 23-H ) :  -0.0668 B( 31-H , 32-H ) :  -0.0668 B( 36-H , 37-H ) :  -0.0637 



                     *******************************
                     * LOEWDIN POPULATION ANALYSIS *
                     *******************************

----------------------
LOEWDIN ATOMIC CHARGES
----------------------
   0 C :   -0.387526
   1 C :    0.026200
   2 O :   -0.690649
   3 P :    0.367440
   4 S :   -0.116528
   5 O :   -0.680185
   6 C :    0.016222
   7 C :   -0.402725
   8 S :    0.195234
   9 C :   -0.407779
  10 S :    0.189833
  11 P :    0.365482
  12 S :   -0.134013
  13 O :   -0.663804
  14 C :    0.018864
  15 C :   -0.386625
  16 O :   -0.666673
  17 C :    0.022107
  18 C :   -0.390393
  19 H :    0.165267
  20 H :    0.157407
  21 H :    0.161590
  22 H :    0.179329
  23 H :    0.171353
  24 H :    0.178088
  25 H :    0.181017
  26 H :    0.160042
  27 H :    0.167384
  28 H :    0.155603
  29 H :    0.190700
  30 H :    0.187111
  31 H :    0.170466
  32 H :    0.181240
  33 H :    0.159373
  34 H :    0.159736
  35 H :    0.160771
  36 H :    0.170216
  37 H :    0.182821
  38 H :    0.158955
  39 H :    0.169727
  40 H :    0.157323

-------------------------------
LOEWDIN REDUCED ORBITAL CHARGES
-------------------------------
  0 C s       :     2.971759  s :     2.971759
      pz      :     1.157936  p :     3.354995
      px      :     1.135642
      py      :     1.061416
      dz2     :     0.014058  d :     0.060772
      dxz     :     0.007694
      dyz     :     0.012328
      dx2y2   :     0.012523
      dxy     :     0.014169

  1 C s       :     2.874052  s :     2.874052
      pz      :     1.028562  p :     2.978474
      px      :     1.016655
      py      :     0.933258
      dz2     :     0.027802  d :     0.121273
      dxz     :     0.015986
      dyz     :     0.023462
      dx2y2   :     0.027016
      dxy     :     0.027008

  2 O s       :     3.466854  s :     3.466854
      pz      :     1.652421  p :     4.715210
      px      :     1.642964
      py      :     1.419825
      dz2     :     0.091474  d :     0.508585
      dxz     :     0.059739
      dyz     :     0.110347
      dx2y2   :     0.134042
      dxy     :     0.112982

  3 P s       :     4.651585  s :     4.651585
      pz      :     2.863646  p :     8.403495
      px      :     2.770572
      py      :     2.769277
      dz2     :     0.309597  d :     1.577481
      dxz     :     0.377312
      dyz     :     0.306992
      dx2y2   :     0.322985
      dxy     :     0.260595

  4 S s       :     5.564251  s :     5.564251
      pz      :     3.253650  p :    10.417679
      px      :     3.607168
      py      :     3.556861
      dz2     :     0.052992  d :     0.134598
      dxz     :     0.023711
      dyz     :     0.042771
      dx2y2   :     0.008118
      dxy     :     0.007006

  5 O s       :     3.469483  s :     3.469483
      pz      :     1.687803  p :     4.741964
      px      :     1.486324
      py      :     1.567837
      dz2     :     0.072724  d :     0.468738
      dxz     :     0.107236
      dyz     :     0.061859
      dx2y2   :     0.118018
      dxy     :     0.108901

  6 C s       :     2.875267  s :     2.875267
      pz      :     1.109498  p :     2.984955
      px      :     0.953921
      py      :     0.921536
      dz2     :     0.021476  d :     0.123557
      dxz     :     0.019543
      dyz     :     0.020090
      dx2y2   :     0.025885
      dxy     :     0.036563

  7 C s       :     2.975501  s :     2.975501
      pz      :     1.138159  p :     3.366352
      px      :     1.152038
      py      :     1.076155
      dz2     :     0.015047  d :     0.060872
      dxz     :     0.011712
      dyz     :     0.009190
      dx2y2   :     0.006447
      dxy     :     0.018476

  8 S s       :     5.437883  s :     5.437883
      pz      :     3.125484  p :    10.055966
      px      :     3.431189
      py      :     3.499292
      dz2     :     0.069475  d :     0.310917
      dxz     :     0.083124
      dyz     :     0.074030
      dx2y2   :     0.049429
      dxy     :     0.034860

  9 C s       :     3.007234  s :     3.007234
      pz      :     1.083606  p :     3.317384
      px      :     1.150670
      py      :     1.083108
      dz2     :     0.013644  d :     0.083161
      dxz     :     0.012857
      dyz     :     0.023327
      dx2y2   :     0.022778
      dxy     :     0.010555

 10 S s       :     5.429192  s :     5.429192
      pz      :     3.622539  p :    10.078807
      px      :     3.240119
      py      :     3.216150
      dz2     :     0.040340  d :     0.302168
      dxz     :     0.045597
      dyz     :     0.044264
      dx2y2   :     0.103691
      dxy     :     0.068276

 11 P s       :     4.651414  s :     4.651414
      pz      :     2.756331  p :     8.393959
      px      :     2.826152
      py      :     2.811475
      dz2     :     0.348114  d :     1.589145
      dxz     :     0.294768
      dyz     :     0.278113
      dx2y2   :     0.352032
      dxy     :     0.316117

 12 S s       :     5.568353  s :     5.568353
      pz      :     3.591254  p :    10.426577
      px      :     3.460747
      py      :     3.374576
      dz2     :     0.020042  d :     0.139082
      dxz     :     0.016620
      dyz     :     0.026907
      dx2y2   :     0.022461
      dxy     :     0.053052

 13 O s       :     3.469097  s :     3.469097
      pz      :     1.520077  p :     4.728810
      px      :     1.630249
      py      :     1.578485
      dz2     :     0.106474  d :     0.465897
      dxz     :     0.089558
      dyz     :     0.097503
      dx2y2   :     0.078594
      dxy     :     0.093768

 14 C s       :     2.876210  s :     2.876210
      pz      :     0.886106  p :     2.983557
      px      :     1.025423
      py      :     1.072028
      dz2     :     0.024184  d :     0.121369
      dxz     :     0.035870
      dyz     :     0.025014
      dx2y2   :     0.011389
      dxy     :     0.024913

 15 C s       :     2.973749  s :     2.973749
      pz      :     1.146388  p :     3.352005
      px      :     1.103748
      py      :     1.101869
      dz2     :     0.007827  d :     0.060871
      dxz     :     0.016512
      dyz     :     0.011393
      dx2y2   :     0.007969
      dxy     :     0.017170

 16 O s       :     3.465546  s :     3.465546
      pz      :     1.407815  p :     4.718881
      px      :     1.615351
      py      :     1.695714
      dz2     :     0.146691  d :     0.482246
      dxz     :     0.130511
      dyz     :     0.094200
      dx2y2   :     0.044641
      dxy     :     0.066203

 17 C s       :     2.875250  s :     2.875250
      pz      :     0.932223  p :     2.981201
      px      :     0.979981
      py      :     1.068998
      dz2     :     0.023415  d :     0.121441
      dxz     :     0.035027
      dyz     :     0.022099
      dx2y2   :     0.008975
      dxy     :     0.031924

 18 C s       :     2.972825  s :     2.972825
      pz      :     1.073733  p :     3.356917
      px      :     1.131503
      py      :     1.151681
      dz2     :     0.008656  d :     0.060650
      dxz     :     0.019119
      dyz     :     0.010516
      dx2y2   :     0.003448
      dxy     :     0.018911

 19 H s       :     0.791066  s :     0.791066
      pz      :     0.010014  p :     0.043666
      px      :     0.025933
      py      :     0.007719

 20 H s       :     0.798738  s :     0.798738
      pz      :     0.014024  p :     0.043855
      px      :     0.012250
      py      :     0.017581

 21 H s       :     0.794889  s :     0.794889
      pz      :     0.026439  p :     0.043521
      px      :     0.007981
      py      :     0.009101

 22 H s       :     0.778479  s :     0.778479
      pz      :     0.025816  p :     0.042192
      px      :     0.006980
      py      :     0.009396

 23 H s       :     0.787638  s :     0.787638
      pz      :     0.010366  p :     0.041009
      px      :     0.023948
      py      :     0.006695

 24 H s       :     0.782010  s :     0.782010
      pz      :     0.013216  p :     0.039902
      px      :     0.017718
      py      :     0.008968

 25 H s       :     0.775990  s :     0.775990
      pz      :     0.028437  p :     0.042993
      px      :     0.007535
      py      :     0.007021

 26 H s       :     0.795860  s :     0.795860
      pz      :     0.008112  p :     0.044098
      px      :     0.017404
      py      :     0.018582

 27 H s       :     0.787926  s :     0.787926
      pz      :     0.013783  p :     0.044689
      px      :     0.020995
      py      :     0.009912

 28 H s       :     0.801021  s :     0.801021
      pz      :     0.024991  p :     0.043376
      px      :     0.010043
      py      :     0.008342

 29 H s       :     0.762447  s :     0.762447
      pz      :     0.018181  p :     0.046853
      px      :     0.016353
      py      :     0.012319

 30 H s       :     0.766366  s :     0.766366
      pz      :     0.009604  p :     0.046523
      px      :     0.029733
      py      :     0.007185

 31 H s       :     0.788658  s :     0.788658
      pz      :     0.013367  p :     0.040877
      px      :     0.017359
      py      :     0.010150

 32 H s       :     0.775495  s :     0.775495
      pz      :     0.008654  p :     0.043265
      px      :     0.011153
      py      :     0.023458

 33 H s       :     0.797260  s :     0.797260
      pz      :     0.011942  p :     0.043366
      px      :     0.011891
      py      :     0.019533

 34 H s       :     0.796369  s :     0.796369
      pz      :     0.021737  p :     0.043895
      px      :     0.012071
      py      :     0.010088

 35 H s       :     0.795797  s :     0.795797
      pz      :     0.015869  p :     0.043433
      px      :     0.017188
      py      :     0.010376

 36 H s       :     0.789087  s :     0.789087
      pz      :     0.007448  p :     0.040697
      px      :     0.015415
      py      :     0.017834

 37 H s       :     0.773815  s :     0.773815
      pz      :     0.010700  p :     0.043364
      px      :     0.011457
      py      :     0.021207

 38 H s       :     0.797166  s :     0.797166
      pz      :     0.018045  p :     0.043879
      px      :     0.014789
      py      :     0.011045

 39 H s       :     0.785432  s :     0.785432
      pz      :     0.008647  p :     0.044840
      px      :     0.018094
      py      :     0.018100

 40 H s       :     0.799410  s :     0.799410
      pz      :     0.009962  p :     0.043267
      px      :     0.012960
      py      :     0.020345


---------------------------------
LOEWDIN BOND ORDERS (THRESH 0.050000)
---------------------------------
B(  0-C ,  1-C ) :   1.0905 B(  0-C ,  2-O ) :   0.1695 B(  0-C , 19-H ) :   0.9176 
B(  0-C , 20-H ) :   0.9177 B(  0-C , 21-H ) :   0.9202 B(  1-C ,  2-O ) :   1.2682 
B(  1-C ,  3-P ) :   0.1027 B(  1-C , 20-H ) :   0.0502 B(  1-C , 22-H ) :   0.8281 
B(  1-C , 23-H ) :   0.8352 B(  2-O ,  3-P ) :   1.5628 B(  2-O ,  4-S ) :   0.1835 
B(  2-O ,  5-O ) :   0.2221 B(  2-O ,  8-S ) :   0.1659 B(  2-O , 10-S ) :   0.1024 
B(  2-O , 22-H ) :   0.0961 B(  2-O , 23-H ) :   0.0963 B(  3-P ,  4-S ) :   2.0643 
B(  3-P ,  5-O ) :   1.5249 B(  3-P ,  6-C ) :   0.0941 B(  3-P ,  8-S ) :   1.2412 
B(  3-P ,  9-C ) :   0.0802 B(  4-S ,  5-O ) :   0.1885 B(  4-S ,  6-C ) :   0.0533 
B(  4-S ,  8-S ) :   0.1270 B(  5-O ,  6-C ) :   1.3072 B(  5-O ,  7-C ) :   0.1563 
B(  5-O ,  8-S ) :   0.1526 B(  5-O , 24-H ) :   0.0994 B(  5-O , 25-H ) :   0.0973 
B(  6-C ,  7-C ) :   1.0933 B(  6-C , 24-H ) :   0.8293 B(  6-C , 25-H ) :   0.8249 
B(  6-C , 26-H ) :   0.0511 B(  7-C , 26-H ) :   0.9156 B(  7-C , 27-H ) :   0.9130 
B(  7-C , 28-H ) :   0.9238 B(  8-S ,  9-C ) :   1.2884 B(  8-S , 10-S ) :   0.1953 
B(  8-S , 11-P ) :   0.0583 B(  8-S , 12-S ) :   0.0581 B(  8-S , 29-H ) :   0.0605 
B(  8-S , 30-H ) :   0.0585 B(  9-C , 10-S ) :   1.2869 B(  9-C , 11-P ) :   0.0887 
B(  9-C , 29-H ) :   0.8447 B(  9-C , 30-H ) :   0.8484 B( 10-S , 11-P ) :   1.2626 
B( 10-S , 12-S ) :   0.1504 B( 10-S , 13-O ) :   0.1512 B( 10-S , 16-O ) :   0.1532 
B( 10-S , 29-H ) :   0.0619 B( 10-S , 30-H ) :   0.0567 B( 11-P , 12-S ) :   1.9985 
B( 11-P , 13-O ) :   1.5610 B( 11-P , 14-C ) :   0.0998 B( 11-P , 16-O ) :   1.5640 
B( 11-P , 17-C ) :   0.1019 B( 12-S , 13-O ) :   0.1853 B( 12-S , 14-C ) :   0.0506 
B( 12-S , 16-O ) :   0.1806 B( 12-S , 17-C ) :   0.0519 B( 13-O , 14-C ) :   1.2824 
B( 13-O , 15-C ) :   0.1726 B( 13-O , 16-O ) :   0.2234 B( 13-O , 31-H ) :   0.0970 
B( 13-O , 32-H ) :   0.0956 B( 14-C , 15-C ) :   1.0917 B( 14-C , 31-H ) :   0.8360 
B( 14-C , 32-H ) :   0.8242 B( 14-C , 34-H ) :   0.0501 B( 15-C , 33-H ) :   0.9218 
B( 15-C , 34-H ) :   0.9179 B( 15-C , 35-H ) :   0.9227 B( 16-O , 17-C ) :   1.2712 
B( 16-O , 18-C ) :   0.1683 B( 16-O , 36-H ) :   0.0963 B( 16-O , 37-H ) :   0.0951 
B( 17-C , 18-C ) :   1.0936 B( 17-C , 36-H ) :   0.8362 B( 17-C , 37-H ) :   0.8221 
B( 17-C , 38-H ) :   0.0509 B( 18-C , 38-H ) :   0.9162 B( 18-C , 39-H ) :   0.9124 
B( 18-C , 40-H ) :   0.9214 

------------------------------------------
LOEWDIN REDUCED ORBITAL POPULATIONS PER MO
-------------------------------------------
THRESHOLD FOR PRINTING IS 0.1%%
                      0         1         2         3         4         5   
                 -88.57778 -88.57551 -88.52158 -88.51774 -76.91281 -76.91228
                   2.00000   2.00000   2.00000   2.00000   2.00000   2.00000
                  --------  --------  --------  --------  --------  --------
 3 P  s               0.0       0.0       0.0       0.0     100.0       0.0
 4 S  s               0.0       0.0     100.0       0.0       0.0       0.0
 8 S  s             100.0       0.0       0.0       0.0       0.0       0.0
10 S  s               0.0     100.0       0.0       0.0       0.0       0.0
11 P  s               0.0       0.0       0.0       0.0       0.0     100.0
12 S  s               0.0       0.0       0.0     100.0       0.0       0.0

                      6         7         8         9        10        11   
                 -18.99285 -18.99054 -18.98557 -18.98468 -10.11327 -10.09898
                   2.00000   2.00000   2.00000   2.00000   2.00000   2.00000
                  --------  --------  --------  --------  --------  --------
 2 O  s               0.0       0.0      99.9       0.0       0.0       0.0
 5 O  s              99.9       0.0       0.0       0.0       0.0       0.0
 5 O  dxy             0.0       0.0       0.0       0.0       0.0       0.2
 6 C  s               0.0       0.0       0.0       0.0       0.0      99.4
 9 C  s               0.0       0.0       0.0       0.0      99.6       0.0
13 O  s               0.0      99.9       0.0       0.0       0.0       0.0
16 O  s               0.0       0.0       0.0      99.9       0.0       0.0

                     12        13        14        15        16        17   
                 -10.09720 -10.09676 -10.09062 -10.03267 -10.03082 -10.02860
                   2.00000   2.00000   2.00000   2.00000   2.00000   2.00000
                  --------  --------  --------  --------  --------  --------
 0 C  s               0.0       0.0       0.0       0.0       0.0      99.7
 1 C  s               0.0      99.4       0.0       0.0       0.0       0.0
 2 O  dyz             0.0       0.1       0.0       0.0       0.0       0.0
 2 O  dxy             0.0       0.1       0.0       0.0       0.0       0.0
 7 C  s               0.0       0.0       0.0       0.0      99.7       0.0
13 O  dxz             0.1       0.0       0.0       0.0       0.0       0.0
14 C  s              99.4       0.0       0.0       0.0       0.0       0.0
15 C  s               0.0       0.0       0.0      99.7       0.0       0.0
16 O  dxz             0.0       0.0       0.2       0.0       0.0       0.0
[...]
37 H  s               0.0       0.1       0.0       0.3       0.0       0.0
37 H  pz              0.0       0.1       0.0       0.5       0.0       0.0
37 H  py              0.0       0.1       0.0       0.3       0.0       0.0
38 H  pz              0.0       0.0       0.0       0.1       0.0       0.0

                    522       523       524       525       526       527   
                  18.87648  18.91577  19.12416  19.17149  21.90615  21.94592
                   0.00000   0.00000   0.00000   0.00000   0.00000   0.00000
                  --------  --------  --------  --------  --------  --------
 0 C  s               0.0       0.0       0.0       0.0       0.6      44.1
 1 C  s               0.0       0.1       0.0       0.1       0.3      18.0
 3 P  s               0.0       0.1       0.0       0.1       0.0       0.0
 3 P  pz              0.0       0.3       0.0       0.0       0.0       0.0
 4 S  s               6.8      87.9       3.3       0.9       0.0       0.0
 4 S  pz              0.0       0.1       0.0       0.0       0.0       0.0
 6 C  s               0.0       0.0       0.0       0.0       0.0       0.6
 7 C  s               0.0       0.0       0.0       0.0       0.1       6.1
 8 S  s               2.7       0.2      21.4      74.6       0.0       0.0
 9 C  s               0.0       0.0       0.1       0.5       0.6       0.6
10 S  s               2.6       2.8      74.4      19.2       0.0       0.0
11 P  s               0.2       0.0       0.0       0.1       0.0       0.0
11 P  py              0.2       0.0       0.0       0.0       0.0       0.0
12 S  s              87.0       7.9       0.0       3.9       0.0       0.0
14 C  s               0.0       0.0       0.0       0.0       9.5       0.0
15 C  s               0.0       0.0       0.0       0.0      87.4       0.5
17 C  s               0.0       0.0       0.0       0.0       1.1       2.2
18 C  s               0.0       0.0       0.0       0.0       0.0      27.5

                    528       529       530       531       532       533   
                  21.97870  21.98178  22.02988  22.04840  22.05984  22.07096
                   0.00000   0.00000   0.00000   0.00000   0.00000   0.00000
                  --------  --------  --------  --------  --------  --------
 0 C  s               7.7      16.4       2.4      21.3       3.0       2.0
 1 C  s               0.0       8.1       0.3      53.9       2.1      14.9
 6 C  s               0.6       0.0       0.0       3.6      87.8       2.0
 7 C  s              85.5       0.2       1.2       2.6       0.7       1.5
 9 C  s               5.3       0.8       6.3       4.9       4.4      35.4
14 C  s               0.0       0.6      76.1       6.2       0.0       6.8
15 C  s               0.1       2.3       9.1       0.2       0.0       0.0
17 C  s               0.1      33.9       0.4       3.4       1.6      21.4
18 C  s               0.2      37.2       3.9       3.6       0.0      15.5

                    534       535       536       537       538   
                  22.09439  43.82730  43.84274  43.89998  43.93837
                   0.00000   0.00000   0.00000   0.00000   0.00000
                  --------  --------  --------  --------  --------
 0 C  s               2.1       0.0       0.0       0.0       0.0
 1 C  s               2.1       0.0       0.0       0.0       0.0
 2 O  s               0.0       9.2       0.8      57.5      32.3
 5 O  s               0.0       2.6      94.4       2.9       0.0
 6 C  s               5.0       0.0       0.0       0.0       0.0
 7 C  s               1.7       0.0       0.0       0.0       0.0
 9 C  s              41.1       0.0       0.0       0.0       0.0
13 O  s               0.0      86.4       3.2       1.8       8.5
14 C  s               0.3       0.0       0.0       0.0       0.0
16 O  s               0.0       1.7       1.4      37.7      59.0
17 C  s              35.5       0.0       0.0       0.0       0.0
18 C  s              11.7       0.0       0.0       0.0       0.0


                      *****************************
                      * MAYER POPULATION ANALYSIS *
                      *****************************

  NA   - Mulliken gross atomic population
  ZA   - Total nuclear charge
  QA   - Mulliken gross atomic charge
  VA   - Mayer's total valence
  BVA  - Mayer's bonded valence
  FA   - Mayer's free valence

  ATOM       NA         ZA         QA         VA         BVA        FA
  0 C      6.4482     6.0000    -0.4482     3.8330     3.8330    -0.0000
  1 C      6.1531     6.0000    -0.1531     3.6602     3.6602    -0.0000
  2 O      8.2138     8.0000    -0.2138     1.8440     1.8440    -0.0000
  3 P     14.3180    15.0000     0.6820     5.1234     5.1234    -0.0000
  4 S     16.4744    16.0000    -0.4744     2.0465     2.0465    -0.0000
  5 O      8.3169     8.0000    -0.3169     1.7819     1.7819    -0.0000
  6 C      6.1604     6.0000    -0.1604     3.7256     3.7256    -0.0000
  7 C      6.4343     6.0000    -0.4343     3.7587     3.7587    -0.0000
  8 S     16.1146    16.0000    -0.1146     2.2021     2.2021     0.0000
  9 C      6.2548     6.0000    -0.2548     3.7853     3.7853     0.0000
 10 S     16.1277    16.0000    -0.1277     2.1975     2.1975    -0.0000
 11 P     14.2855    15.0000     0.7145     5.1547     5.1547    -0.0000
 12 S     16.4895    16.0000    -0.4895     2.0311     2.0311    -0.0000
 13 O      8.2988     8.0000    -0.2988     1.8302     1.8302     0.0000
 14 C      6.1470     6.0000    -0.1470     3.6572     3.6572    -0.0000
 15 C      6.4437     6.0000    -0.4437     3.8579     3.8579    -0.0000
 16 O      8.2533     8.0000    -0.2533     1.8780     1.8780    -0.0000
 17 C      6.1426     6.0000    -0.1426     3.6567     3.6567    -0.0000
 18 C      6.4503     6.0000    -0.4503     3.8278     3.8278    -0.0000
 19 H      0.8368     1.0000     0.1632     0.9608     0.9608    -0.0000
 20 H      0.8567     1.0000     0.1433     0.9632     0.9632     0.0000
 21 H      0.8441     1.0000     0.1559     0.9609     0.9609     0.0000
 22 H      0.8327     1.0000     0.1673     0.9526     0.9526    -0.0000
 23 H      0.8508     1.0000     0.1492     0.9484     0.9484     0.0000
 24 H      0.8530     1.0000     0.1470     0.9501     0.9501    -0.0000
 25 H      0.8274     1.0000     0.1726     0.9538     0.9538    -0.0000
 26 H      0.8513     1.0000     0.1487     0.9644     0.9644    -0.0000
 27 H      0.8242     1.0000     0.1758     0.9590     0.9590     0.0000
 28 H      0.8542     1.0000     0.1458     0.9629     0.9629     0.0000
 29 H      0.7913     1.0000     0.2087     0.9423     0.9423    -0.0000
 30 H      0.8111     1.0000     0.1889     0.9527     0.9527    -0.0000
 31 H      0.8517     1.0000     0.1483     0.9469     0.9469    -0.0000
 32 H      0.8288     1.0000     0.1712     0.9539     0.9539     0.0000
 33 H      0.8471     1.0000     0.1529     0.9613     0.9613     0.0000
 34 H      0.8535     1.0000     0.1465     0.9639     0.9639    -0.0000
 35 H      0.8428     1.0000     0.1572     0.9605     0.9605    -0.0000
 36 H      0.8550     1.0000     0.1450     0.9476     0.9476    -0.0000
 37 H      0.8296     1.0000     0.1704     0.9570     0.9570    -0.0000
 38 H      0.8554     1.0000     0.1446     0.9645     0.9645    -0.0000
 39 H      0.8220     1.0000     0.1780     0.9584     0.9584    -0.0000
 40 H      0.8537     1.0000     0.1463     0.9618     0.9618    -0.0000

  Mayer bond orders larger than 0.100000
B(  0-C ,  1-C ) :   0.9568 B(  0-C , 19-H ) :   0.9702 B(  0-C , 20-H ) :   0.9638 
B(  0-C , 21-H ) :   0.9678 B(  1-C ,  2-O ) :   0.7799 B(  1-C , 22-H ) :   0.9523 
B(  1-C , 23-H ) :   0.9448 B(  2-O ,  3-P ) :   1.1407 B(  3-P ,  4-S ) :   1.7870 
B(  3-P ,  5-O ) :   1.0208 B(  3-P ,  8-S ) :   1.0754 B(  5-O ,  6-C ) :   0.8162 
B(  6-C ,  7-C ) :   0.9311 B(  6-C , 24-H ) :   0.9593 B(  6-C , 25-H ) :   0.9613 
B(  7-C , 26-H ) :   0.9608 B(  7-C , 27-H ) :   0.9598 B(  7-C , 28-H ) :   0.9705 
B(  8-S ,  9-C ) :   0.9129 B(  9-C , 10-S ) :   0.9150 B(  9-C , 29-H ) :   0.9154 
B(  9-C , 30-H ) :   0.9185 B( 10-S , 11-P ) :   1.0855 B( 11-P , 12-S ) :   1.7289 
B( 11-P , 13-O ) :   1.0848 B( 11-P , 16-O ) :   1.1815 B( 13-O , 14-C ) :   0.7760 
B( 14-C , 15-C ) :   0.9577 B( 14-C , 31-H ) :   0.9458 B( 14-C , 32-H ) :   0.9512 
B( 15-C , 33-H ) :   0.9718 B( 15-C , 34-H ) :   0.9648 B( 15-C , 35-H ) :   0.9719 
B( 16-O , 17-C ) :   0.7705 B( 17-C , 18-C ) :   0.9555 B( 17-C , 36-H ) :   0.9427 
B( 17-C , 37-H ) :   0.9564 B( 18-C , 38-H ) :   0.9635 B( 18-C , 39-H ) :   0.9615 
B( 18-C , 40-H ) :   0.9698 

-------
TIMINGS
-------

Total SCF time: 0 days 0 hours 1 min 17 sec 

Total time                  ....      77.256 sec
Sum of individual times     ....      76.770 sec  ( 99.4%)

SCF preparation             ....       0.353 sec  (  0.5%)
Fock matrix formation       ....      73.140 sec  ( 94.7%)
  Startup                   ....       0.145 sec  (  0.2% of F)
  Split-RI-J                ....      24.574 sec  ( 33.6% of F)
  XC integration            ....      47.009 sec  ( 64.3% of F)
    XC Preparation          ....       0.000 sec  (  0.0% of XC)
    Basis function eval.    ....       7.365 sec  ( 15.7% of XC)
    Density eval.           ....      17.645 sec  ( 37.5% of XC)
    XC-Functional eval.     ....       3.234 sec  (  6.9% of XC)
    XC-Potential eval.      ....      17.489 sec  ( 37.2% of XC)
Diagonalization             ....       0.000 sec  (  0.0%)
Density matrix formation    ....       0.800 sec  (  1.0%)
Total Energy calculation    ....       0.063 sec  (  0.1%)
Population analysis         ....       0.439 sec  (  0.6%)
Orbital Transformation      ....       0.281 sec  (  0.4%)
Orbital Orthonormalization  ....       0.000 sec  (  0.0%)
DIIS solution               ....       1.479 sec  (  1.9%)
  MO trafo                  ....       0.000 sec  (  0.0 % of DIIS)
  Orb grad                  ....       0.000 sec  (  0.0 % of DIIS)
  Energy W gradient         ....       0.000 sec  (  0.0 % of DIIS)
  DIIS error                ....       0.115 sec  (  7.8 % of DIIS)
  DIIS work                 ....       1.170 sec  ( 79.1 % of DIIS)
  Form Q                    ....       0.000 sec  (  0.0 % of DIIS)
  Form QpQm                 ....       0.000 sec  (  0.0 % of DIIS)
  Exp/Cayley                ....       0.000 sec  (  0.0 % of DIIS)
  Orb update                ....       0.000 sec  (  0.0 % of DIIS)
  Wake-sleep                ....       0.030 sec  (  2.0 % of DIIS)
SOSCF solution              ....       0.215 sec  (  0.3%)
  MO trafo                  ....       0.165 sec  ( 76.5 % of SOSCF)
  Orb grad                  ....       0.004 sec  (  1.8 % of SOSCF)
  Rot update                ....       0.000 sec  (  0.1 % of SOSCF)
  Step                      ....       0.046 sec  ( 21.4 % of SOSCF)
Finished LeanSCF after  77.4 sec

Maximum memory used throughout the entire LEANSCF-calculation: 73.9 MB


-------------------------------------------------------------------------------
                          DFT DISPERSION CORRECTION                            
                                                                               
                                DFTD4 V3.4.0                                   
-------------------------------------------------------------------------------
The R2SCAN3C composite method is recognized
Using three-body term ABC
Active option DFTDOPT                   ...         5   

-------------------------   ----------------
Dispersion correction           -0.021844528
-------------------------   ----------------

------------------   -----------------
gCP correction             0.046368839
------------------   -----------------

-------------------------   --------------------
FINAL SINGLE POINT ENERGY     -2932.461551109867
-------------------------   --------------------


------------------------------------------------------------------------------
                              ORCA PROPERTY CALCULATIONS
------------------------------------------------------------------------------

GBWName                                 ... sp_gas.gbw
Number of atoms                         ...     41
Number of basis functions               ...    539
Max core memory                         ...   1024 MB

Electric properties:
Dipole moment                           ... YES
Quadrupole moment                       ...  NO
Static polarizability (Dipole/Dipole)   ...  NO
Static polarizability (Dipole/Quad.)    ...  NO
Static polarizability (Quad./Quad.)     ...  NO
Static polarizability (Velocity)        ...  NO

Atomic electric properties:
Dipole moment                           ...  NO
Quadrupole moment                       ...  NO
Static polarizability                   ...  NO

Choice of electric origin               ... Center of mass
Position of electric origin             ...    -0.000001     0.000000     0.000001

General magnetic properties:
Magnetizability                         ...  NO

EPR properties:
g-Tensor (aka g-matrix)                 ...  NO
Zero-Field splitting spin-orbit         ...  NO
Zero-field splitting spin-spin          ...  NO
Hyperfine couplings                     ...  NO (   0 nuclei)
Quadrupole couplings                    ...  NO (   0 nuclei)
Contact density                         ...  NO (   0 nuclei)

NMR properties:
Chemical shifts                         ...  NO (   0 nuclei)
Spin-rotation constants                 ...  NO (   0 nuclei)
Spin-spin couplings                     ...  NO (   0 nuclei,    0 pairs)

Choice of magnetic origin               ... GIAO
Position of magnetic origin             ...     0.000000     0.000000     0.000000

Properties with geometric perturbations:
SCF Hessian                             ...  NO
IR spectrum                             ...  NO
VCD spectrum                            ...  NO
X-ray spectroscopy properties:
SCF XES/XAS/RIXS spectra                ...  NO


-------------
DIPOLE MOMENT
-------------

Method             : SCF
Type of density    : Electron Density
Multiplicity       :   1
Irrep              :   0
Energy             : -2932.4860754210694722 Eh
Relativity type    : 
Basis              : AO
                                X                 Y                 Z
Electronic contribution:      0.143360251     -10.151594780      -3.826760161
Nuclear contribution   :      0.502307992      11.344404179       3.211897102
                        -----------------------------------------
Total Dipole Moment    :      0.645668243       1.192809399      -0.614863059
                        -----------------------------------------
Magnitude (a.u.)       :      1.489207280
Magnitude (Debye)      :      3.785264087



--------------------
Rotational spectrum 
--------------------
 
Rotational constants in cm-1:             0.012835             0.005081             0.004821 
Rotational constants in MHz :           384.768900           152.326622           144.527255 

Dipole components along the rotational axes: 
x,y,z [a.u.] :     0.192315     0.153464    -1.468742 
x,y,z [Debye]:     0.488825     0.390074    -3.733245 

 

Dipole moment calculation done in   0.1 sec 

Maximum memory used throughout the entire PROP-calculation: 52.1 MB

--------------------------------
SUGGESTED CITATIONS FOR THIS RUN
--------------------------------

Below you find a list of papers that are relevant to this ORCA run
We neither can nor want to force you to cite these papers, but we appreciate if you do
You receive ORCA, which is the product of decades of hard work by many enthusiastic individuals, for free
The only thing we kindly ask in return is that you cite our papers,
We deeply appreciate it, if you show your appreciation for ORCA by not just citing the generic ORCA reference.

Please note that relegating all ORCA citations to the supporting information does *not* help us.
SI sections are not indexed - citations you put there will not count into any citation statistics
But we need these citations in order to attract the funding resources that allow us to do what we are doing

Therefore, if you are a happy ORCA user, please consider citing a few of the papers listed below in the main body of your paper

In addition to the list printed below, the program has created the file sp_gas.bibtex that contains the list in bibtex format
You can import this file easily into all common literature databanks and citation aid programs


List of essential papers. We consider these as the minimum necessary citations

  1. Neese,F.
     Software update: the ORCA program system, version 5.0
     WIRES Comput. Molec. Sci., 2022 12(1)e1606
     doi.org/10.1002/wcms.1606
  2. Grimme,S.; Hansen,A.; Ehlert,S.; Mewes,J.
     r2SCAN-3c: A 'Swiss army knife' composite electronic-structure method
     J. Chem. Phys., 2021 154 064103
     doi.org/10.1063/5.0040021

List of papers to cite with high priority. The work reported in these papers was absolutely
necessary for this run to complete.
Our perspective: the developers of density functionals and basis sets usually get cited in chemistry papers
Good! But without the algorithms to do something with them, the functionals or basis sets would not do anything.
Hence, in our opinion, the algorithm design and method developments papers are equally worthy of getting cited

  1. Neese,F.
     An improvement of the resolution of the identity approximation for the formation of the Coulomb matrix
     J. Comp. Chem., 2003 24(14)1740-1747
     doi.org/10.1002/jcc.10318
  2. Neese,F.
     The SHARK Integral Generation and Digestion System
     J. Comp. Chem., 2022  1-16
     doi.org/10.1002/jcc.26942
  3. Lehtola,S.; Steigemann,C.; Oliveira,M.; Marques,M.
     Recent developments in Libxc - A comprehensive library of functionals for density functional theory
     Software X, 2018 7 
     doi.org/10.1016/j.softx.2017.11.002
  4. Caldeweyher,E.; Bannwarth,C.; Grimme,S.
     Extension of the D3 dispersion coefficient model
     J. Chem. Phys., 2017 147 034112-XXXX
     doi.org/10.1063/1.4993215
  5. Caldeweyher,E.; Ehlert,S.; Hansen,A.; Neugebauer,H.; Spicher,S.; Bannwarth,C.; Grimme,S.
     A generally applicable atomic-charge dependent London dispersion correction
     J. Chem. Phys., 2019 150 154122-XXXX
     doi.org/10.1063/1.5090222
  6. Caldeweyher,E.; Mewes,J.; Ehlert,S.; Grimme,S.
     Extension and evaluation of the D4 London-dispersion model for periodic systems
     Phys. Chem. Chem. Phys., 2020 22(16)8499-8512
     doi.org/10.1039/D0CP00502A

List of suggested additional citations. These are papers that are important in the 'surrounding' of 
of this run, or papers that preceded the highly important papers. If you like your results we are grateful for a citation.

  1. Neese,F.
     The ORCA program system
     WIRES Comput. Molec. Sci., 2012 2(1)73-78
     doi.org/10.1002/wcms.81
  2. Neese,F.
     Software update: the ORCA program system, version 4.0
     WIRES Comput. Molec. Sci., 2018 8(1)1-6
     doi.org/10.1002/wcms.1327
  3. Neese,F.; Wennmohs,F.; Becker,U.; Riplinger,C.
     The ORCA quantum chemistry program package
     J. Chem. Phys., 2020 152 Art. No. L224108
     doi.org/10.1063/5.0004608

List of optional additional citations

  1. Neese,F.
     Approximate second-order SCF convergence for spin unrestricted wavefunctions
     Chem. Phys. Lett., 2000 325(1-3)93-98
     doi.org/10.1016/s0009-2614(00)00662-x

Timings for individual modules:

Sum of individual times          ...       81.246 sec (=   1.354 min)
Startup calculation              ...        2.997 sec (=   0.050 min)   3.7 %
SCF iterations                   ...       78.040 sec (=   1.301 min)  96.1 %
Property calculations            ...        0.209 sec (=   0.003 min)   0.3 %
                             ****ORCA TERMINATED NORMALLY****
TOTAL RUN TIME: 0 days 0 hours 1 minutes 21 seconds 948 msec
