      -----------------------------------------------------------      
     |                   =====================                   |     
     |                           x T B                           |     
     |                   =====================                   |     
     |                         S. Grimme                         |     
     |          Mulliken Center for Theoretical Chemistry        |     
     |                    University of Bonn                     |     
      -----------------------------------------------------------      

   * xtb version 6.7.1 (edcfbbe) compiled by 'albert@albert-system' on 2024-07-22

   xtb is free software: you can redistribute it and/or modify it under
   the terms of the GNU Lesser General Public License as published by
   the Free Software Foundation, either version 3 of the License, or
   (at your option) any later version.
   
   xtb is distributed in the hope that it will be useful,
   but WITHOUT ANY WARRANTY; without even the implied warranty of
   MERCHANTABILITY or FITNESS FOR A PARTICULAR PURPOSE.  See the
   GNU Lesser General Public License for more details.
   
   Cite this work as:
   * C. Bannwarth, E. Caldeweyher, S. Ehlert, A. Hansen, P. Pracht,
     J. Seibert, S. Spicher, S. Grimme, WIREs Comput. Mol. Sci., 2020, 11,
     e01493. DOI: 10.1002/wcms.1493
   
   for GFN2-xTB:
   * C. Bannwarth, S. Ehlert and S. Grimme., J. Chem. Theory Comput., 2019,
     15, 1652-1671. DOI: 10.1021/acs.jctc.8b01176
   for GFN1-xTB:
   * S. Grimme, C. Bannwarth, P. Shushkov, J. Chem. Theory Comput., 2017,
     13, 1989-2009. DOI: 10.1021/acs.jctc.7b00118
   for GFN0-xTB:
   * P. Pracht, E. Caldeweyher, S. Ehlert, S. Grimme, ChemRxiv, 2019, preprint.
     DOI: 10.26434/chemrxiv.8326202.v1
   for GFN-FF:
   * S. Spicher and S. Grimme, Angew. Chem. Int. Ed., 2020, 59, 15665-15673.
     DOI: 10.1002/anie.202004239
   
   for ALPB and GBSA implicit solvation:
   * S. Ehlert, M. Stahn, S. Spicher, S. Grimme, J. Chem. Theory Comput.,
     2021, 17, 4250-4261. DOI: 10.1021/acs.jctc.1c00471
   
   for ddCOSMO and CPCM-X implicit solvation:
   * M. Stahn, S. Ehlert, S. Grimme, J. Phys. Chem. A,
     2023, XX, XXXX-XXXX. DOI: 10.1021/acs.jpca.3c04382
   
   for DFT-D4:
   * E. Caldeweyher, C. Bannwarth and S. Grimme, J. Chem. Phys., 2017,
     147, 034112. DOI: 10.1063/1.4993215
   * E. Caldeweyher, S. Ehlert, A. Hansen, H. Neugebauer, S. Spicher,
     C. Bannwarth and S. Grimme, J. Chem. Phys., 2019, 150, 154122.
     DOI: 10.1063/1.5090222
   * E. Caldeweyher, J.-M. Mewes, S. Ehlert and S. Grimme, Phys. Chem. Chem. Phys.
     2020, 22, 8499-8512. DOI: 10.1039/D0CP00502A
   
   for sTDA-xTB:
   * S. Grimme and C. Bannwarth, J. Chem. Phys., 2016, 145, 054103.
     DOI: 10.1063/1.4959605
   
   in the mass-spec context:
   * V. Asgeirsson, C. Bauer and S. Grimme, Chem. Sci., 2017, 8, 4879.
     DOI: 10.1039/c7sc00601b
   * J. Koopman and S. Grimme, ACS Omega 2019, 4, 12, 15120-15133.
     DOI: 10.1021/acsomega.9b02011
   
   for metadynamics refer to:
   * S. Grimme, J. Chem. Theory Comput., 2019, 155, 2847-2862
     DOI: 10.1021/acs.jctc.9b00143
   
   for SPH calculations refer to:
   * S. Spicher and S. Grimme, J. Chem. Theory Comput., 2021, 17, 1701-1714
     DOI: 10.1021/acs.jctc.0c01306
   
   for ONIOM refer to:
   * C. Plett, A. Katbashev, S. Ehlert, S. Grimme, M. Bursch,
     Phys. Chem. Chem. Phys., 2023, 25, 17860-17868. DOI: 10.1039/D3CP02178E
   
   for DIPRO refer to:
   * J. Kohn, N. Gildemeister, S. Grimme, D. Fazzi, A. Hansen,
     J. Chem. Phys., 2023, just accepted.
   
   for PTB refer to:
   * S. Grimme, M. Mueller, A. Hansen, J. Chem. Phys., 2023, 158, 124111.
     DOI: 10.1063/5.0137838
   
   with help from (in alphabetical order)
   P. Atkinson, C. Bannwarth, F. Bohle, G. Brandenburg, E. Caldeweyher
   M. Checinski, S. Dohm, S. Ehlert, S. Ehrlich, I. Gerasimov, C. Hölzer
   A. Katbashev, J. Kohn, J. Koopman, C. Lavigne, S. Lehtola, F. März, M. Müller,
   F. Musil, H. Neugebauer, J. Pisarek, C. Plett, P. Pracht, F. Pultar,
   J. Seibert, P. Shushkov, S. Spicher, M. Stahn, M. Steiner, T. Strunk,
   J. Stückrath, T. Rose, and J. Unsleber
   
 * started run on 2025/04/03 at 19:41:41.169     
   ID    Z sym.   atoms
    1    6 C      1-5, 8
    2    8 O      6, 7
    3    1 H      9-20

           -------------------------------------------------
          |                Calculation Setup                |
           -------------------------------------------------

          program call               : /srv/scratch/z5358697/.xtb/bin/xtb solv.coord --gfn2 --sp --chrg 0 --norestart --parallel 1 --alpb water reference -I xtb_sp-xcontrol-inp
          hostname                   : k158
          coordinate file            : solv.coord
          omp threads                :                     1


           -------------------------------------------------
          |                 G F N 2 - x T B                 |
           -------------------------------------------------

        Reference                      10.1021/acs.jctc.8b01176
      * Hamiltonian:
        H0-scaling (s, p, d)           1.850000    2.230000    2.230000
        zeta-weighting                 0.500000
      * Dispersion:
        s8                             2.700000
        a1                             0.520000
        a2                             5.000000
        s9                             5.000000
      * Repulsion:
        kExp                           1.500000    1.000000
        rExp                           1.000000
      * Coulomb:
        alpha                          2.000000
        third order                    shell-resolved
        anisotropic                    true
        a3                             3.000000
        a5                             4.000000
        cn-shift                       1.200000
        cn-exp                         4.000000
        max-rad                        5.000000

      * Solvation model:               ALPB
        Solvent                        water
        Parameter file                 internal GFN2-xTB/ALPB
        Dielectric constant                8.0200E+01
        Reference state                gsolv=reference [X=1]
        Free energy shift                  2.8945E-03 Eh       1.8164E+00 kcal/mol
        Temperature                        2.9815E+02 K
        Density                            1.0000E+00 kg/L
        Solvent mass                       1.8000E+01 g/mol
        Interaction kernel             P16
        Born radius scaling (c1)           1.4744E+00
        Born radii integrator          GBOBC
        Born offset                        0.0000E+00 a0       0.0000E+00 AA
        H-bond correction              true
        Ion screening                  false
        Surface tension                    1.0000E-05 Eh       1.5569E+01 dyn/cm
        Grid points                               974 per atom

          ...................................................
          :                      SETUP                      :
          :.................................................:
          :  # basis functions                  44          :
          :  # atomic orbitals                  44          :
          :  # shells                           28          :
          :  # electrons                        48          :
          :  max. iterations                   250          :
          :  Hamiltonian                  GFN2-xTB          :
          :  restarted?                      false          :
          :  GBSA solvation                   true          :
          :  PC potential                    false          :
          :  electronic temp.          300.0000000     K    :
          :  accuracy                    1.0000000          :
          :  -> integral cutoff          0.2500000E+02      :
          :  -> integral neglect         0.1000000E-07      :
          :  -> SCF convergence          0.1000000E-05 Eh   :
          :  -> wf. convergence          0.1000000E-03 e    :
          :  Broyden damping             0.4000000          :
          :  net charge                          0          :
          :  unpaired electrons                  0          :
          ...................................................

 iter      E             dE          RMSdq      gap      omega  full diag
   1    -27.3833872 -0.273834E+02  0.405E+00    5.52       0.0  T
   2    -27.4358718 -0.524847E-01  0.204E+00    4.72       1.0  T
   3    -27.4370839 -0.121207E-02  0.101E+00    4.99       1.0  T
   4    -27.4386468 -0.156286E-02  0.158E-01    4.76       1.0  T
   5    -27.4388592 -0.212429E-03  0.675E-02    4.81       1.0  T
   6    -27.4388602 -0.103557E-05  0.173E-02    4.81       1.3  T
   7    -27.4388614 -0.119664E-05  0.409E-03    4.81       5.5  T
   8    -27.4388615 -0.655215E-07  0.221E-03    4.81      10.1  T
   9    -27.4388615 -0.675842E-08  0.306E-04    4.81      73.2  T
  10    -27.4388615 -0.265171E-09  0.154E-04    4.81     145.2  T

   *** convergence criteria satisfied after 10 iterations ***

         #    Occupation            Energy/Eh            Energy/eV
      -------------------------------------------------------------
         1        2.0000           -0.7490938             -20.3839
       ...           ...                  ...                  ...
        18        2.0000           -0.4663590             -12.6903
        19        2.0000           -0.4601037             -12.5201
        20        2.0000           -0.4547740             -12.3750
        21        2.0000           -0.4470721             -12.1655
        22        2.0000           -0.4395760             -11.9615
        23        2.0000           -0.4380449             -11.9198
        24        2.0000           -0.4143782             -11.2758 (HOMO)
        25                         -0.2376709              -6.4674 (LUMO)
        26                         -0.0032236              -0.0877
        27                          0.0845468               2.3006
        28                          0.0939378               2.5562
        29                          0.1059884               2.8841
       ...                                ...                  ...
        44                          0.6127271              16.6732
      -------------------------------------------------------------
                  HL-Gap            0.1767073 Eh            4.8084 eV
             Fermi-level           -0.3260246 Eh           -8.8716 eV

 SCC (total)                   0 d,  0 h,  0 min,  0.012 sec
 SCC setup                      ...        0 min,  0.001 sec (  9.581%)
 Dispersion                     ...        0 min,  0.000 sec (  0.828%)
 classical contributions        ...        0 min,  0.000 sec (  0.168%)
 integral evaluation            ...        0 min,  0.002 sec ( 13.130%)
 iterations                     ...        0 min,  0.005 sec ( 40.142%)
 molecular gradient             ...        0 min,  0.004 sec ( 35.172%)
 printout                       ...        0 min,  0.000 sec (  0.878%)

         :::::::::::::::::::::::::::::::::::::::::::::::::::::
         ::                     SUMMARY                     ::
         :::::::::::::::::::::::::::::::::::::::::::::::::::::
         :: total energy             -27.122007442844 Eh    ::
         :: total w/o Gsasa/hb       -27.123515286322 Eh    ::
         :: gradient norm              0.000189240027 Eh/a0 ::
         :: HOMO-LUMO gap              4.808449968230 eV    ::
         ::.................................................::
         :: SCC energy               -27.438792200839 Eh    ::
         :: -> isotropic ES            0.058133424417 Eh    ::
         :: -> anisotropic ES          0.001181416043 Eh    ::
         :: -> anisotropic XC          0.008288193637 Eh    ::
         :: -> dispersion             -0.013066061531 Eh    ::
         :: -> Gsolv                  -0.007577934293 Eh    ::
         ::    -> Gelec               -0.009085777771 Eh    ::
         ::    -> Gsasa                0.000820929328 Eh    ::
         ::    -> Ghb                 -0.002207635011 Eh    ::
         ::    -> Gshift               0.002894549160 Eh    ::
         :: repulsion energy           0.316784757995 Eh    ::
         :: add. restraining           0.000000000000 Eh    ::
         :: total charge               0.000000000000 e     ::
         :::::::::::::::::::::::::::::::::::::::::::::::::::::

           -------------------------------------------------
          |                Property Printout                |
           -------------------------------------------------

    * Orbital Energies and Occupations

         #    Occupation            Energy/Eh            Energy/eV
      -------------------------------------------------------------
         1        2.0000           -0.7490938             -20.3839
       ...           ...                  ...                  ...
        12        2.0000           -0.5201810             -14.1548
        13        2.0000           -0.5133656             -13.9694
        14        2.0000           -0.4980635             -13.5530
        15        2.0000           -0.4949183             -13.4674
        16        2.0000           -0.4763051             -12.9609
        17        2.0000           -0.4692981             -12.7703
        18        2.0000           -0.4663590             -12.6903
        19        2.0000           -0.4601037             -12.5201
        20        2.0000           -0.4547740             -12.3750
        21        2.0000           -0.4470721             -12.1655
        22        2.0000           -0.4395760             -11.9615
        23        2.0000           -0.4380449             -11.9198
        24        2.0000           -0.4143782             -11.2758 (HOMO)
        25                         -0.2376709              -6.4674 (LUMO)
        26                         -0.0032236              -0.0877
        27                          0.0845468               2.3006
        28                          0.0939378               2.5562
        29                          0.1059884               2.8841
        30                          0.1136858               3.0935
        31                          0.1416861               3.8555
        32                          0.1536452               4.1809
        33                          0.1861933               5.0666
        34                          0.2000789               5.4444
        35                          0.2031166               5.5271
       ...                                ...                  ...
        44                          0.6127271              16.6732
      -------------------------------------------------------------
                  HL-Gap            0.1767073 Eh            4.8084 eV
             Fermi-level           -0.3260246 Eh           -8.8716 eV

     #   Z          covCN         q      C6AA      α(0)
     1   6 C        3.761    -0.121    22.859     6.816
     2   6 C        3.900     0.005    20.441     6.427
     3   6 C        3.761    -0.117    22.794     6.806
     4   6 C        3.761    -0.121    22.858     6.816
     5   6 C        2.724     0.360    20.899     7.484
     6   8 O        0.856    -0.486    23.474     6.496
     7   8 O        1.704    -0.262    18.348     5.783
     8   6 C        3.645     0.006    20.823     6.558
     9   1 H        0.925     0.057     2.235     2.338
    10   1 H        0.925     0.043     2.413     2.429
    11   1 H        0.925     0.066     2.134     2.284
    12   1 H        0.925     0.060     2.203     2.321
    13   1 H        0.925     0.045     2.378     2.411
    14   1 H        0.925     0.045     2.380     2.412
    15   1 H        0.925     0.043     2.411     2.428
    16   1 H        0.925     0.057     2.233     2.337
    17   1 H        0.925     0.066     2.134     2.284
    18   1 H        0.925     0.096     1.822     2.111
    19   1 H        0.925     0.084     1.936     2.176
    20   1 H        0.924     0.075     2.032     2.229

 Mol. C6AA /au·bohr⁶  :       2995.888415
 Mol. C8AA /au·bohr⁸  :      63854.135580
 Mol. α(0) /au        :         80.946221


Wiberg/Mayer (AO) data.
largest (>0.10) Wiberg bond orders for each atom

 ---------------------------------------------------------------------------
     #   Z sym  total        # sym  WBO       # sym  WBO       # sym  WBO
 ---------------------------------------------------------------------------
     1   6 C    3.991 --    10 H    0.986     9 H    0.984    11 H    0.981
                             2 C    0.980
     2   6 C    3.988 --     3 C    1.000     1 C    0.980     4 C    0.980
                             5 C    0.944
     3   6 C    3.993 --     2 C    1.000    14 H    0.985    13 H    0.985
                            12 H    0.984
     4   6 C    3.991 --    15 H    0.986    16 H    0.984    17 H    0.981
                             2 C    0.980
     5   6 C    3.897 --     6 O    1.698     7 O    1.168     2 C    0.944
     6   8 O    1.979 --     5 C    1.698     7 O    0.171
     7   8 O    2.322 --     5 C    1.168     8 C    0.938     6 O    0.171
     8   6 C    3.903 --    20 H    0.977    18 H    0.975    19 H    0.973
                             7 O    0.938
     9   1 H    0.997 --     1 C    0.984
    10   1 H    0.998 --     1 C    0.986
    11   1 H    0.996 --     1 C    0.981
    12   1 H    0.996 --     3 C    0.984
    13   1 H    0.998 --     3 C    0.985
    14   1 H    0.998 --     3 C    0.985
    15   1 H    0.998 --     4 C    0.986
    16   1 H    0.997 --     4 C    0.984
    17   1 H    0.996 --     4 C    0.981
    18   1 H    0.991 --     8 C    0.975
    19   1 H    0.993 --     8 C    0.973
    20   1 H    0.994 --     8 C    0.977
 ---------------------------------------------------------------------------

Topologies differ in total number of bonds
Writing topology from bond orders to xtbtopo.mol

molecular dipole:
                 x           y           z       tot (Debye)
 q only:       -0.063       1.225       0.009
   full:        0.000       1.197       0.001       3.043
molecular quadrupole (traceless):
                xx          xy          yy          xz          yz          zz
 q only:        8.937       2.706      -7.461       0.074       0.074      -1.476
  q+dip:        7.850       2.649      -8.150       0.004       0.079       0.300
   full:        7.966       2.740      -8.635       0.021       0.083       0.669


           -------------------------------------------------
          | TOTAL ENERGY              -27.122007442844 Eh   |
          | GRADIENT NORM               0.000189240027 Eh/α |
          | HOMO-LUMO GAP               4.808449968230 eV   |
           -------------------------------------------------

------------------------------------------------------------------------
 * finished run on 2025/04/03 at 19:41:41.210     
------------------------------------------------------------------------
 total:
 * wall-time:     0 d,  0 h,  0 min,  0.041 sec
 *  cpu-time:     0 d,  0 h,  0 min,  0.019 sec
 * ratio c/w:     0.477 speedup
 SCF:
 * wall-time:     0 d,  0 h,  0 min,  0.012 sec
 *  cpu-time:     0 d,  0 h,  0 min,  0.012 sec
 * ratio c/w:     0.991 speedup

