      -----------------------------------------------------------      
     |                   =====================                   |     
     |                           x T B                           |     
     |                   =====================                   |     
     |                         S. Grimme                         |     
     |          Mulliken Center for Theoretical Chemistry        |     
     |                    University of Bonn                     |     
      -----------------------------------------------------------      

   * xtb version 6.7.1 (edcfbbe) compiled by 'albert@albert-system' on 2024-07-22

   xtb is free software: you can redistribute it and/or modify it under
   the terms of the GNU Lesser General Public License as published by
   the Free Software Foundation, either version 3 of the License, or
   (at your option) any later version.
   
   xtb is distributed in the hope that it will be useful,
   but WITHOUT ANY WARRANTY; without even the implied warranty of
   MERCHANTABILITY or FITNESS FOR A PARTICULAR PURPOSE.  See the
   GNU Lesser General Public License for more details.
   
   Cite this work as:
   * C. Bannwarth, E. Caldeweyher, S. Ehlert, A. Hansen, P. Pracht,
     J. Seibert, S. Spicher, S. Grimme, WIREs Comput. Mol. Sci., 2020, 11,
     e01493. DOI: 10.1002/wcms.1493
   
   for GFN2-xTB:
   * C. Bannwarth, S. Ehlert and S. Grimme., J. Chem. Theory Comput., 2019,
     15, 1652-1671. DOI: 10.1021/acs.jctc.8b01176
   for GFN1-xTB:
   * S. Grimme, C. Bannwarth, P. Shushkov, J. Chem. Theory Comput., 2017,
     13, 1989-2009. DOI: 10.1021/acs.jctc.7b00118
   for GFN0-xTB:
   * P. Pracht, E. Caldeweyher, S. Ehlert, S. Grimme, ChemRxiv, 2019, preprint.
     DOI: 10.26434/chemrxiv.8326202.v1
   for GFN-FF:
   * S. Spicher and S. Grimme, Angew. Chem. Int. Ed., 2020, 59, 15665-15673.
     DOI: 10.1002/anie.202004239
   
   for ALPB and GBSA implicit solvation:
   * S. Ehlert, M. Stahn, S. Spicher, S. Grimme, J. Chem. Theory Comput.,
     2021, 17, 4250-4261. DOI: 10.1021/acs.jctc.1c00471
   
   for ddCOSMO and CPCM-X implicit solvation:
   * M. Stahn, S. Ehlert, S. Grimme, J. Phys. Chem. A,
     2023, XX, XXXX-XXXX. DOI: 10.1021/acs.jpca.3c04382
   
   for DFT-D4:
   * E. Caldeweyher, C. Bannwarth and S. Grimme, J. Chem. Phys., 2017,
     147, 034112. DOI: 10.1063/1.4993215
   * E. Caldeweyher, S. Ehlert, A. Hansen, H. Neugebauer, S. Spicher,
     C. Bannwarth and S. Grimme, J. Chem. Phys., 2019, 150, 154122.
     DOI: 10.1063/1.5090222
   * E. Caldeweyher, J.-M. Mewes, S. Ehlert and S. Grimme, Phys. Chem. Chem. Phys.
     2020, 22, 8499-8512. DOI: 10.1039/D0CP00502A
   
   for sTDA-xTB:
   * S. Grimme and C. Bannwarth, J. Chem. Phys., 2016, 145, 054103.
     DOI: 10.1063/1.4959605
   
   in the mass-spec context:
   * V. Asgeirsson, C. Bauer and S. Grimme, Chem. Sci., 2017, 8, 4879.
     DOI: 10.1039/c7sc00601b
   * J. Koopman and S. Grimme, ACS Omega 2019, 4, 12, 15120-15133.
     DOI: 10.1021/acsomega.9b02011
   
   for metadynamics refer to:
   * S. Grimme, J. Chem. Theory Comput., 2019, 155, 2847-2862
     DOI: 10.1021/acs.jctc.9b00143
   
   for SPH calculations refer to:
   * S. Spicher and S. Grimme, J. Chem. Theory Comput., 2021, 17, 1701-1714
     DOI: 10.1021/acs.jctc.0c01306
   
   for ONIOM refer to:
   * C. Plett, A. Katbashev, S. Ehlert, S. Grimme, M. Bursch,
     Phys. Chem. Chem. Phys., 2023, 25, 17860-17868. DOI: 10.1039/D3CP02178E
   
   for DIPRO refer to:
   * J. Kohn, N. Gildemeister, S. Grimme, D. Fazzi, A. Hansen,
     J. Chem. Phys., 2023, just accepted.
   
   for PTB refer to:
   * S. Grimme, M. Mueller, A. Hansen, J. Chem. Phys., 2023, 158, 124111.
     DOI: 10.1063/5.0137838
   
   with help from (in alphabetical order)
   P. Atkinson, C. Bannwarth, F. Bohle, G. Brandenburg, E. Caldeweyher
   M. Checinski, S. Dohm, S. Ehlert, S. Ehrlich, I. Gerasimov, C. Hölzer
   A. Katbashev, J. Kohn, J. Koopman, C. Lavigne, S. Lehtola, F. März, M. Müller,
   F. Musil, H. Neugebauer, J. Pisarek, C. Plett, P. Pracht, F. Pultar,
   J. Seibert, P. Shushkov, S. Spicher, M. Stahn, M. Steiner, T. Strunk,
   J. Stückrath, T. Rose, and J. Unsleber
   
 * started run on 2025/04/09 at 09:47:17.257     
   ID    Z sym.   atoms
    1    6 C      1, 2, 4, 6, 7, 9, 12, 13, 18, 20
    2    8 O      3, 5, 10, 11, 17, 19
    3    1 H      8, 21-38
    4   16 S      14, 16
    5   15 P      15

           -------------------------------------------------
          |                Calculation Setup                |
           -------------------------------------------------

          program call               : /software/projects/pawsey0265/mwang1/xtb/bin/xtb xtb_rrho.coord --gfn2 --bhess vtight --chrg 0 --enso --norestart -I rrho-xcontrol-inp --parallel 1 --alpb water
          hostname                   : nid002043
          coordinate file            : xtb_rrho.coord
          omp threads                :                     1


           -------------------------------------------------
          |                 G F N 2 - x T B                 |
           -------------------------------------------------

        Reference                      10.1021/acs.jctc.8b01176
      * Hamiltonian:
        H0-scaling (s, p, d)           1.850000    2.230000    2.230000
        zeta-weighting                 0.500000
      * Dispersion:
        s8                             2.700000
        a1                             0.520000
        a2                             5.000000
        s9                             5.000000
      * Repulsion:
        kExp                           1.500000    1.000000
        rExp                           1.000000
      * Coulomb:
        alpha                          2.000000
        third order                    shell-resolved
        anisotropic                    true
        a3                             3.000000
        a5                             4.000000
        cn-shift                       1.200000
        cn-exp                         4.000000
        max-rad                        5.000000

      * Solvation model:               ALPB
        Solvent                        water
        Parameter file                 internal GFN2-xTB/ALPB
        Dielectric constant                8.0200E+01
        Reference state                gsolv [1 M gas/solution]
        Free energy shift                  1.0808E-03 Eh       6.7819E-01 kcal/mol
        Temperature                        2.9815E+02 K
        Density                            1.0000E+00 kg/L
        Solvent mass                       1.8000E+01 g/mol
        Interaction kernel             P16
        Born radius scaling (c1)           1.4744E+00
        Born radii integrator          GBOBC
        Born offset                        0.0000E+00 a0       0.0000E+00 AA
        H-bond correction              true
        Ion screening                  false
        Surface tension                    1.0000E-05 Eh       1.5569E+01 dyn/cm
        Grid points                               974 per atom

          ...................................................
          :                      SETUP                      :
          :.................................................:
          :  # basis functions                 113          :
          :  # atomic orbitals                 110          :
          :  # shells                           60          :
          :  # electrons                       112          :
          :  max. iterations                   250          :
          :  Hamiltonian                  GFN2-xTB          :
          :  restarted?                      false          :
          :  GBSA solvation                   true          :
          :  PC potential                    false          :
          :  electronic temp.          300.0000000     K    :
          :  accuracy                    1.0000000          :
          :  -> integral cutoff          0.2500000E+02      :
          :  -> integral neglect         0.1000000E-07      :
          :  -> SCF convergence          0.1000000E-05 Eh   :
          :  -> wf. convergence          0.1000000E-03 e    :
          :  Broyden damping             0.4000000          :
          :  net charge                          0          :
          :  unpaired electrons                  0          :
          ...................................................

 iter      E             dE          RMSdq      gap      omega  full diag
   1    -65.0533064 -0.650533E+02  0.592E+00    4.41       0.0  T
   2    -65.1952722 -0.141966E+00  0.309E+00    3.37       1.0  T
   3    -65.2052771 -0.100049E-01  0.125E+00    3.48       1.0  T
   4    -65.2116482 -0.637117E-02  0.464E-01    3.29       1.0  T
   5    -65.2123967 -0.748410E-03  0.206E-01    3.41       1.0  T
   6    -65.2125185 -0.121868E-03  0.903E-02    3.40       1.0  T
   7    -65.2125352 -0.167075E-04  0.324E-02    3.42       1.0  T
   8    -65.2125379 -0.267908E-05  0.146E-02    3.42       1.1  T
   9    -65.2125387 -0.771656E-06  0.452E-03    3.42       3.6  T
  10    -65.2125388 -0.875542E-07  0.214E-03    3.42       7.6  T
  11    -65.2125388 -0.769498E-08  0.542E-04    3.42      29.9  T
  12    -65.2125388 -0.805102E-09  0.218E-04    3.42      74.3  T

   *** convergence criteria satisfied after 12 iterations ***

         #    Occupation            Energy/Eh            Energy/eV
      -------------------------------------------------------------
         1        2.0000           -0.7682458             -20.9050
       ...           ...                  ...                  ...
        50        2.0000           -0.4532668             -12.3340
        51        2.0000           -0.4500151             -12.2455
        52        2.0000           -0.4474232             -12.1750
        53        2.0000           -0.4386401             -11.9360
        54        2.0000           -0.4082436             -11.1089
        55        2.0000           -0.3947406             -10.7414
        56        2.0000           -0.3945132             -10.7353 (HOMO)
        57                         -0.2687686              -7.3136 (LUMO)
        58                         -0.2565851              -6.9820
        59                         -0.2520214              -6.8579
        60                         -0.2087969              -5.6817
        61                         -0.1786990              -4.8626
       ...                                ...                  ...
       110                          1.2603129              34.2949
      -------------------------------------------------------------
                  HL-Gap            0.1257446 Eh            3.4217 eV
             Fermi-level           -0.3316409 Eh           -9.0244 eV

 SCC (total)                   0 d,  0 h,  0 min,  0.110 sec
 SCC setup                      ...        0 min,  0.004 sec (  4.033%)
 Dispersion                     ...        0 min,  0.000 sec (  0.430%)
 classical contributions        ...        0 min,  0.000 sec (  0.086%)
 integral evaluation            ...        0 min,  0.064 sec ( 58.107%)
 iterations                     ...        0 min,  0.022 sec ( 20.020%)
 molecular gradient             ...        0 min,  0.019 sec ( 17.094%)
 printout                       ...        0 min,  0.000 sec (  0.211%)

         :::::::::::::::::::::::::::::::::::::::::::::::::::::
         ::                     SUMMARY                     ::
         :::::::::::::::::::::::::::::::::::::::::::::::::::::
         :: total energy             -64.663556327295 Eh    ::
         :: total w/o Gsasa/hb       -64.664248487375 Eh    ::
         :: gradient norm              0.054438665319 Eh/a0 ::
         :: HOMO-LUMO gap              3.421685810003 eV    ::
         ::.................................................::
         :: SCC energy               -65.211961802321 Eh    ::
         :: -> isotropic ES            0.168460633615 Eh    ::
         :: -> anisotropic ES         -0.010769388347 Eh    ::
         :: -> anisotropic XC          0.018244278786 Eh    ::
         :: -> dispersion             -0.039758861638 Eh    ::
         :: -> Gsolv                  -0.027236174320 Eh    ::
         ::    -> Gelec               -0.027928334400 Eh    ::
         ::    -> Gsasa                0.005131769169 Eh    ::
         ::    -> Ghb                 -0.005520368787 Eh    ::
         ::    -> Gshift               0.001080759698 Eh    ::
         :: repulsion energy           0.548405475026 Eh    ::
         :: add. restraining           0.000000000000 Eh    ::
         :: total charge               0.000000000000 e     ::
         :::::::::::::::::::::::::::::::::::::::::::::::::::::

metadynamics with 1 initial structures loaded
           -------------------------------------------------
          |           Optimal kpush determination           |
           -------------------------------------------------
      ----------------------------------------------------------- 
     |                   =====================                   |
     |                        A N C O P T                        |
     |                   =====================                   |
     |               Approximate Normal Coordinate               |
     |                Rational Function Optimizer                |
      ----------------------------------------------------------- 
target rmsd / Å         0.100000
unbiased initial rmsd   0.239752
 
iter. min.        max.        rmsd       kpush
      ----------------------------------------------------------- 
     |                   =====================                   |
     |                        A N C O P T                        |
     |                   =====================                   |
     |               Approximate Normal Coordinate               |
     |                Rational Function Optimizer                |
      ----------------------------------------------------------- 
 1    0.000000    1.727273    0.015168   -0.863636
      ----------------------------------------------------------- 
     |                   =====================                   |
     |                        A N C O P T                        |
     |                   =====================                   |
     |               Approximate Normal Coordinate               |
     |                Rational Function Optimizer                |
      ----------------------------------------------------------- 
 2    0.000000    0.863636    0.021733   -0.431818
      ----------------------------------------------------------- 
     |                   =====================                   |
     |                        A N C O P T                        |
     |                   =====================                   |
     |               Approximate Normal Coordinate               |
     |                Rational Function Optimizer                |
      ----------------------------------------------------------- 
 3    0.000000    0.431818    0.031689   -0.215909
      ----------------------------------------------------------- 
     |                   =====================                   |
     |                        A N C O P T                        |
     |                   =====================                   |
     |               Approximate Normal Coordinate               |
     |                Rational Function Optimizer                |
      ----------------------------------------------------------- 
 4    0.000000    0.215909    0.046780   -0.107955
      ----------------------------------------------------------- 
     |                   =====================                   |
     |                        A N C O P T                        |
     |                   =====================                   |
     |               Approximate Normal Coordinate               |
     |                Rational Function Optimizer                |
      ----------------------------------------------------------- 
 5    0.000000    0.107955    0.068852   -0.053977
      ----------------------------------------------------------- 
     |                   =====================                   |
     |                        A N C O P T                        |
     |                   =====================                   |
     |               Approximate Normal Coordinate               |
     |                Rational Function Optimizer                |
      ----------------------------------------------------------- 
 6    0.000000    0.053977    0.098356   -0.026989
      ----------------------------------------------------------- 
     |                   =====================                   |
     |                        A N C O P T                        |
     |                   =====================                   |
     |               Approximate Normal Coordinate               |
     |                Rational Function Optimizer                |
      ----------------------------------------------------------- 
 7    0.000000    0.026989    0.131959   -0.013494
      ----------------------------------------------------------- 
     |                   =====================                   |
     |                        A N C O P T                        |
     |                   =====================                   |
     |               Approximate Normal Coordinate               |
     |                Rational Function Optimizer                |
      ----------------------------------------------------------- 
 8    0.013494    0.026989    0.112060   -0.020241
      ----------------------------------------------------------- 
     |                   =====================                   |
     |                        A N C O P T                        |
     |                   =====================                   |
     |               Approximate Normal Coordinate               |
     |                Rational Function Optimizer                |
      ----------------------------------------------------------- 
 9    0.020241    0.026989    0.104618   -0.023615
      ----------------------------------------------------------- 
     |                   =====================                   |
     |                        A N C O P T                        |
     |                   =====================                   |
     |               Approximate Normal Coordinate               |
     |                Rational Function Optimizer                |
      ----------------------------------------------------------- 
10    0.023615    0.026989    0.101360   -0.025302
final kpush: -0.025302
           -------------------------------------------------
          |            Biased Numerical Hessian             |
           -------------------------------------------------
kpush                :  -0.02530
alpha                :   1.00000
step length          :   0.00500
SCC accuracy         :   0.30000
Hessian scale factor :   1.00000
frozen atoms in %    :   0.00000    0
RMS gradient         :   0.00006
estimated CPU  time      0.15 min
estimated wall time      0.15 min

writing file <hessian>.

 projected vibrational frequencies (cm⁻¹)
eigval :       -0.00    -0.00    -0.00    -0.00     0.00     0.00
eigval :       46.01    50.01    54.73    61.51    60.36    64.40
eigval :       72.85    78.38    86.21    82.93    99.84   102.48
eigval :      113.93   128.05   148.22   157.44    91.78   173.66
eigval :      123.24   226.49   204.99   225.04   218.10   246.04
eigval :      286.04   293.49   305.19   328.83   368.36   400.07
eigval :      406.50   442.77   443.73   484.33   564.61   595.74
eigval :      638.86   654.08   722.19   738.54   742.49   773.19
eigval :      811.19   820.56   887.15   894.20   921.48   950.92
eigval :      969.36   987.60  1025.36  1039.27  1047.42  1090.82
eigval :     1094.00  1097.25  1095.72  1103.73  1109.91  1108.35
eigval :     1116.33  1139.54  1143.41  1156.87  1179.27  1195.90
eigval :     1203.11  1245.56  1246.62  1299.88  1304.79  1312.00
eigval :     1366.78  1381.96  1391.50  1396.35  1396.32  1420.03
eigval :     1423.94  1425.45  1431.59  1438.14  1448.51  1465.42
eigval :     1465.81  1479.58  1485.10  1706.31  1708.54  2849.96
eigval :     2952.04  2952.12  2962.35  2981.00  2981.59  2984.12
eigval :     2994.12  2999.03  2999.46  3005.56  3026.83  3030.92
eigval :     3035.42  3040.70  3043.32  3052.45  3065.06  3066.19
           -------------------------------------------------
          |                Property Printout                |
           -------------------------------------------------

    * Orbital Energies and Occupations

         #    Occupation            Energy/Eh            Energy/eV
      -------------------------------------------------------------
         1        2.0000           -0.7738906             -21.0586
       ...           ...                  ...                  ...
        44        2.0000           -0.4736998             -12.8900
        45        2.0000           -0.4694262             -12.7737
        46        2.0000           -0.4654055             -12.6643
        47        2.0000           -0.4601581             -12.5215
        48        2.0000           -0.4557212             -12.4008
        49        2.0000           -0.4550333             -12.3821
        50        2.0000           -0.4534925             -12.3402
        51        2.0000           -0.4487650             -12.2115
        52        2.0000           -0.4483102             -12.1991
        53        2.0000           -0.4378808             -11.9153
        54        2.0000           -0.4068561             -11.0711
        55        2.0000           -0.3940159             -10.7217
        56        2.0000           -0.3920215             -10.6674 (HOMO)
        57                         -0.2684264              -7.3043 (LUMO)
        58                         -0.2554263              -6.9505
        59                         -0.2470150              -6.7216
        60                         -0.1986765              -5.4063
        61                         -0.1763885              -4.7998
        62                         -0.1605232              -4.3681
        63                         -0.1215067              -3.3064
        64                         -0.0547899              -1.4909
        65                         -0.0435740              -1.1857
        66                         -0.0333947              -0.9087
        67                         -0.0273927              -0.7454
       ...                                ...                  ...
       110                          1.2546784              34.1415
      -------------------------------------------------------------
                  HL-Gap            0.1235951 Eh            3.3632 eV
             Fermi-level           -0.3302240 Eh           -8.9859 eV

     #   Z          covCN         q      C6AA      α(0)
     1   6 C        3.751    -0.130    23.057     6.848
     2   6 C        3.694     0.064    19.672     6.346
     3   8 O        1.703    -0.259    18.298     5.775
     4   6 C        2.713     0.372    20.700     7.448
     5   8 O        0.856    -0.469    23.114     6.446
     6   6 C        3.844    -0.100    22.376     6.729
     7   6 C        3.859     0.015    20.293     6.406
     8   1 H        0.923     0.090     1.875     2.141
     9   6 C        2.746     0.368    20.765     7.461
    10   8 O        0.856    -0.456    22.827     6.406
    11   8 O        1.704    -0.249    18.124     5.748
    12   6 C        3.698     0.068    19.601     6.333
    13   6 C        3.751    -0.121    22.891     6.823
    14  16 S        1.962    -0.133   146.638    20.381
    15  15 P        3.871     0.385   144.271    21.576
    16  16 S        0.926    -0.468   159.855    21.385
    17   8 O        1.656    -0.262    18.364     5.785
    18   6 C        3.813     0.018    20.262     6.407
    19   8 O        1.655    -0.250    18.158     5.752
    20   6 C        3.829     0.006    20.459     6.436
    21   1 H        0.925     0.071     2.075     2.253
    22   1 H        0.925     0.055     2.257     2.349
    23   1 H        0.925     0.076     2.019     2.222
    24   1 H        0.924     0.064     2.157     2.297
    25   1 H        0.925     0.090     1.881     2.145
    26   1 H        0.924     0.118     1.627     1.994
    27   1 H        0.924     0.112     1.675     2.024
    28   1 H        0.925     0.093     1.849     2.126
    29   1 H        0.924     0.076     2.025     2.226
    30   1 H        0.925     0.081     1.964     2.192
    31   1 H        0.925     0.051     2.308     2.376
    32   1 H        0.925     0.060     2.205     2.322
    33   1 H        0.924     0.076     2.026     2.226
    34   1 H        0.925     0.113     1.675     2.024
    35   1 H        0.924     0.077     2.008     2.216
    36   1 H        0.925     0.115     1.651     2.010
    37   1 H        0.925     0.092     1.862     2.134
    38   1 H        0.925     0.093     1.848     2.126

 Mol. C6AA /au·bohr⁶  :      18241.064321
 Mol. C8AA /au·bohr⁸  :     514322.323643
 Mol. α(0) /au        :        207.893380


Wiberg/Mayer (AO) data.
largest (>0.10) Wiberg bond orders for each atom

 ---------------------------------------------------------------------------
     #   Z sym  total        # sym  WBO       # sym  WBO       # sym  WBO
 ---------------------------------------------------------------------------
     1   6 C    3.987 --     2 C    1.014    22 H    0.985    21 H    0.984
                            23 H    0.979
     2   6 C    3.900 --     1 C    1.014    24 H    0.970    25 H    0.968
                             3 O    0.909
     3   8 O    2.331 --     4 C    1.188     2 C    0.909     5 O    0.176
     4   6 C    3.920 --     5 O    1.699     3 O    1.188     6 C    0.972
     5   8 O    1.992 --     4 C    1.699     3 O    0.176
     6   6 C    3.982 --     7 C    0.999     4 C    0.972    27 H    0.951
                            26 H    0.932
     7   6 C    3.971 --     6 C    0.999     9 C    0.958    14 S    0.955
                             8 H    0.920
     8   1 H    0.992 --     7 C    0.920
     9   6 C    3.921 --    10 O    1.699    11 O    1.194     7 C    0.958
    10   8 O    2.002 --     9 C    1.699    11 O    0.177
    11   8 O    2.365 --     9 C    1.194    12 C    0.897    10 O    0.177
    12   6 C    3.891 --    13 C    1.015    29 H    0.968    28 H    0.967
                            11 O    0.897
    13   6 C    3.988 --    12 C    1.015    31 H    0.985    32 H    0.984
                            30 H    0.977
    14  16 S    2.261 --    15 P    0.972     7 C    0.955    16 S    0.136
    15  15 P    5.278 --    16 S    1.536    19 O    1.332    17 O    1.289
                            14 S    0.972
    16  16 S    1.854 --    15 P    1.536    14 S    0.136
    17   8 O    2.386 --    15 P    1.289    18 C    0.915
    18   6 C    3.887 --    33 H    0.978    35 H    0.978    34 H    0.971
                            17 O    0.915
    19   8 O    2.397 --    15 P    1.332    20 C    0.889
    20   6 C    3.872 --    38 H    0.978    37 H    0.972    36 H    0.971
                            19 O    0.889
    21   1 H    0.995 --     1 C    0.984
    22   1 H    0.997 --     1 C    0.985
    23   1 H    0.994 --     1 C    0.979
    24   1 H    0.996 --     2 C    0.970
    25   1 H    0.992 --     2 C    0.968
    26   1 H    0.985 --     6 C    0.932
    27   1 H    0.987 --     6 C    0.951
    28   1 H    0.991 --    12 C    0.967
    29   1 H    0.994 --    12 C    0.968
    30   1 H    0.993 --    13 C    0.977
    31   1 H    0.997 --    13 C    0.985
    32   1 H    0.996 --    13 C    0.984
    33   1 H    0.994 --    18 C    0.978
    34   1 H    0.987 --    18 C    0.971
    35   1 H    0.994 --    18 C    0.978
    36   1 H    0.986 --    20 C    0.971
    37   1 H    0.992 --    20 C    0.972
    38   1 H    0.991 --    20 C    0.978
 ---------------------------------------------------------------------------

Topologies differ in total number of bonds
Writing topology from bond orders to xtbtopo.mol

molecular dipole:
                 x           y           z       tot (Debye)
 q only:        0.320      -1.594       2.782
   full:        0.216      -1.385       2.613       7.536
molecular quadrupole (traceless):
                xx          xy          yy          xz          yz          zz
 q only:       -3.163     -10.450      13.886     -16.251      16.890     -10.723
  q+dip:        1.087      -8.413       9.939     -15.962      16.978     -11.026
   full:        0.243      -8.781      10.264     -16.364      16.625     -10.506

           -------------------------------------------------
          |                Geometry Summary                 |
           -------------------------------------------------

      molecular mass/u    :      330.3579996
   center of mass at/Å    :       -0.0206266      -0.0253047      -0.0299665
  moments of inertia/u·Å² :        0.1311023E+04   0.2487976E+04   0.3204312E+04
rotational constants/cm⁻¹ :        0.1285838E-01   0.6775641E-02   0.5260921E-02

 * 34 selected distances

     #   Z          #   Z                                           value/Å
     1   6 C        2   6 C                                       1.5204312
     2   6 C        3   8 O                                       1.4408594
     3   8 O        4   6 C                                       1.3188019
     4   6 C        5   8 O                                       1.2110701
     6   6 C        7   6 C                                       1.5203576
     7   6 C        8   1 H                                       1.1009407
     9   6 C       10   8 O                                       1.2097647
     9   6 C       11   8 O                                       1.3154247
    11   8 O       12   6 C                                       1.4442233
    12   6 C       13   6 C                                       1.5185321
    14  16 S       15  15 P                                       2.1236351 (max)
    15  15 P       16  16 S                                       1.9564662
    15  15 P       17   8 O                                       1.6038817
    17   8 O       18   6 C                                       1.4308070
    15  15 P       19   8 O                                       1.5780048
    19   8 O       20   6 C                                       1.4410870
     1   6 C       21   1 H                                       1.0863624
     1   6 C       22   1 H                                       1.0875702
     1   6 C       23   1 H                                       1.0849143
     2   6 C       24   1 H                                       1.0936854
     2   6 C       25   1 H                                       1.0900573
     6   6 C       26   1 H                                       1.0935413
     6   6 C       27   1 H                                       1.0905247
    12   6 C       28   1 H                                       1.0895965
    12   6 C       29   1 H                                       1.0938879
    13   6 C       30   1 H                                       1.0846984 (min)
    13   6 C       31   1 H                                       1.0882534
    13   6 C       32   1 H                                       1.0875672
    18   6 C       33   1 H                                       1.0906300
    18   6 C       34   1 H                                       1.0874336
    18   6 C       35   1 H                                       1.0902810
    20   6 C       36   1 H                                       1.0866979
    20   6 C       37   1 H                                       1.0899725
    20   6 C       38   1 H                                       1.0881642

 * 5 distinct bonds (by element types)

   Z      Z             #   av. dist./Å        max./Å        min./Å
   1 H    6 C          19     1.0897252     1.1009407     1.0846984
   6 C    6 C           3     1.5197737     1.5204312     1.5185321
   6 C    8 O           8     1.3515048     1.4442233     1.2097647
   8 O   15 P           2     1.5909433     1.6038817     1.5780048
  15 P   16 S           2     2.0400507     2.1236351     1.9564662

           -------------------------------------------------
          |               Frequency Printout                |
           -------------------------------------------------
 projected vibrational frequencies (cm⁻¹)
eigval :       -0.00    -0.00    -0.00    -0.00     0.00     0.00
eigval :       46.01    50.01    54.73    61.51    60.36    64.40
eigval :       72.85    78.38    86.21    82.93    99.84   102.48
eigval :      113.93   128.05   148.22   157.44    91.78   173.66
eigval :      123.24   226.49   204.99   225.04   218.10   246.04
eigval :      286.04   293.49   305.19   328.83   368.36   400.07
eigval :      406.50   442.77   443.73   484.33   564.61   595.74
eigval :      638.86   654.08   722.19   738.54   742.49   773.19
eigval :      811.19   820.56   887.15   894.20   921.48   950.92
eigval :      969.36   987.60  1025.36  1039.27  1047.42  1090.82
eigval :     1094.00  1097.25  1095.72  1103.73  1109.91  1108.35
eigval :     1116.33  1139.54  1143.41  1156.87  1179.27  1195.90
eigval :     1203.11  1245.56  1246.62  1299.88  1304.79  1312.00
eigval :     1366.78  1381.96  1391.50  1396.35  1396.32  1420.03
eigval :     1423.94  1425.45  1431.59  1438.14  1448.51  1465.42
eigval :     1465.81  1479.58  1485.10  1706.31  1708.54  2849.96
eigval :     2952.04  2952.12  2962.35  2981.00  2981.59  2984.12
eigval :     2994.12  2999.03  2999.46  3005.56  3026.83  3030.92
eigval :     3035.42  3040.70  3043.32  3052.45  3065.06  3066.19
 reduced masses (amu)
   1: 19.64   2: 15.02   3: 15.13   4: 17.29   5: 15.16   6: 15.59   7: 20.77   8: 16.79
   9: 15.05  10: 18.56  11: 17.49  12: 15.78  13: 11.98  14: 13.01  15: 12.18  16: 10.01
  17: 11.95  18: 11.94  19: 14.16  20: 11.75  21: 16.23  22: 18.25  23:  1.73  24: 19.14
  25:  4.62  26: 13.22  27:  8.52  28: 11.52  29:  6.54  30:  9.39  31: 16.94  32: 11.41
  33: 10.24  34: 16.96  35: 14.57  36: 18.91  37: 15.79  38: 23.59  39: 13.73  40: 14.70
  41: 11.03  42: 10.65  43: 24.83  44: 12.28  45: 12.70  46: 21.81  47: 13.24  48: 22.86
  49:  3.98  50:  3.51  51:  9.80  52: 10.31  53:  8.71  54: 10.51  55:  9.94  56: 14.51
  57: 14.06  58:  8.73  59:  9.16  60:  6.91  61:  6.89  62:  7.39  63:  3.48  64:  4.18
  65:  6.33  66:  3.67  67:  4.17  68:  8.27  69:  5.76  70:  5.04  71:  8.90  72: 10.22
  73:  3.41  74:  3.73  75:  3.35  76:  5.23  77:  3.34  78:  4.49  79:  2.33  80:  2.33
  81:  3.03  82:  2.94  83:  1.96  84:  1.87  85:  1.71  86:  1.99  87:  1.50  88:  1.57
  89:  1.58  90:  1.47  91:  1.50  92:  1.56  93:  1.57  94: 13.41  95: 13.34  96:  1.75
  97:  1.71  98:  1.71  99:  1.79 100:  1.85 101:  1.62 102:  1.50 103:  1.75 104:  1.70
 105:  1.75 106:  1.69 107:  1.81 108:  1.86 109:  1.89 110:  1.79 111:  1.53 112:  1.63
 113:  1.74 114:  1.75
 IR intensities (km·mol⁻¹)
   1:  0.97   2:  0.95   3:  0.24   4:  0.08   5:  0.38   6:  0.14   7:  4.66   8:  4.08
   9:  4.55  10:  3.84  11:  2.90  12:  0.37  13:  2.66  14:  0.49  15:  8.76  16:  2.59
  17:  2.57  18:  1.85  19:  8.17  20:  7.48  21:  3.22  22:  7.68  23:  0.11  24:  4.42
  25:  0.60  26:  0.56  27:  6.52  28:  4.09  29: 14.88  30:  7.21  31: 28.44  32: 16.44
  33: 36.75  34: 29.80  35:  6.75  36: 17.10  37:  0.65  38:110.34  39: 13.21  40: 18.22
  41: 21.36  42: 11.55  43:239.20  44: 10.71  45:  9.75  46:286.17  47: 52.23  48:243.64
  49: 25.01  50:  2.17  51: 53.63  52:  3.83  53: 20.19  54:  3.47  55: 12.84  56:326.70
  57:171.50  58: 10.46  59: 69.30  60:  6.31  61: 23.89  62:  9.73  63:  0.66  64:  3.96
  65:145.35  66:  6.84  67:  7.03  68:111.74  69: 87.68  70:  6.55  71:130.80  72:489.78
  73: 79.86  74: 34.79  75: 59.64  76: 46.49  77:  6.31  78: 29.56  79: 17.82  80: 16.46
  81:  6.65  82:  8.96  83: 42.18  84: 15.76  85:  2.96  86:  4.55  87: 12.33  88: 11.72
  89:  8.99  90:  9.34  91:  6.53  92:  3.07  93:  4.66  94:******  95:267.58  96: 13.51
  97: 26.92  98: 15.88  99:  3.25 100: 13.50 101:  8.92 102: 11.35 103: 10.54 104:  0.64
 105:  5.02 106:  5.77 107:  1.31 108:  0.46 109: 36.32 110: 36.55 111: 27.37 112: 21.55
 113: 21.89 114: 15.46
 Raman intensities (Ä⁴*amu⁻¹)
   1:  0.00   2:  0.00   3:  0.00   4:  0.00   5:  0.00   6:  0.00   7:  0.00   8:  0.00
   9:  0.00  10:  0.00  11:  0.00  12:  0.00  13:  0.00  14:  0.00  15:  0.00  16:  0.00
  17:  0.00  18:  0.00  19:  0.00  20:  0.00  21:  0.00  22:  0.00  23:  0.00  24:  0.00
  25:  0.00  26:  0.00  27:  0.00  28:  0.00  29:  0.00  30:  0.00  31:  0.00  32:  0.00
  33:  0.00  34:  0.00  35:  0.00  36:  0.00  37:  0.00  38:  0.00  39:  0.00  40:  0.00
  41:  0.00  42:  0.00  43:  0.00  44:  0.00  45:  0.00  46:  0.00  47:  0.00  48:  0.00
  49:  0.00  50:  0.00  51:  0.00  52:  0.00  53:  0.00  54:  0.00  55:  0.00  56:  0.00
  57:  0.00  58:  0.00  59:  0.00  60:  0.00  61:  0.00  62:  0.00  63:  0.00  64:  0.00
  65:  0.00  66:  0.00  67:  0.00  68:  0.00  69:  0.00  70:  0.00  71:  0.00  72:  0.00
  73:  0.00  74:  0.00  75:  0.00  76:  0.00  77:  0.00  78:  0.00  79:  0.00  80:  0.00
  81:  0.00  82:  0.00  83:  0.00  84:  0.00  85:  0.00  86:  0.00  87:  0.00  88:  0.00
  89:  0.00  90:  0.00  91:  0.00  92:  0.00  93:  0.00  94:  0.00  95:  0.00  96:  0.00
  97:  0.00  98:  0.00  99:  0.00 100:  0.00 101:  0.00 102:  0.00 103:  0.00 104:  0.00
 105:  0.00 106:  0.00 107:  0.00 108:  0.00 109:  0.00 110:  0.00 111:  0.00 112:  0.00
 113:  0.00 114:  0.00
 output can be read by thermo (or use thermo option).
 writing <g98.out> molden fake output.
 recommended (thermochemical) frequency scaling factor: 1.0
           -------------------------------------------------
          |             Thermodynamic Functions             |
           -------------------------------------------------

Molecule has no symmetry elements
It seems to be the C1 point group
c1  symmetry found (for desy threshold:  0.10E+00) used in thermo

          ...................................................
          :                      SETUP                      :
          :.................................................:
          :  # frequencies                         108      :
          :  # imaginary freq.                       0      :
          :  linear?                             false      :
          :  only rotor calc.                    false      :
          :  symmetry                               c1      :
          :  rotational number                       1      :
          :  scaling factor                  1.0000000      :
          :  rotor cutoff                    0.0000000 cm⁻¹ :
          :  imag. cutoff                 -100.0000000 cm⁻¹ :
          :.................................................:

    mode    ω/cm⁻¹     T·S(HO)/kcal·mol⁻¹    T·S(FR)/kcal·mol⁻¹   T·S(vib)
   ------------------------------------------------------------------------
       1     46.01    -1.48534 (100.00%)    -1.08113 (  0.00%)    -1.48534
       2     50.01    -1.43619 (100.00%)    -1.05645 (  0.00%)    -1.43619
       3     54.73    -1.38304 (100.00%)    -1.02974 (  0.00%)    -1.38304
       4     61.51    -1.31428 (100.00%)    -0.99514 (  0.00%)    -1.31428
       5     60.36    -1.32537 (100.00%)    -1.00072 (  0.00%)    -1.32537
       6     64.40    -1.28734 (100.00%)    -0.98156 (  0.00%)    -1.28734
       7     72.85    -1.21487 (100.00%)    -0.94500 (  0.00%)    -1.21487
       8     78.38    -1.17204 (100.00%)    -0.92335 (  0.00%)    -1.17204
       9     86.21    -1.11638 (100.00%)    -0.89516 (  0.00%)    -1.11638
      10     82.93    -1.13901 (100.00%)    -0.90663 (  0.00%)    -1.13901
      11     99.84    -1.03086 (100.00%)    -0.85168 (  0.00%)    -1.03086
      12    102.48    -1.01568 (100.00%)    -0.84394 (  0.00%)    -1.01568
      13    113.93    -0.95435 (100.00%)    -0.81257 (  0.00%)    -0.95435
      14    128.05    -0.88703 (100.00%)    -0.77795 (  0.00%)    -0.88703
      15    148.22    -0.80351 (100.00%)    -0.73462 (  0.00%)    -0.80351
      16    157.44    -0.76932 (100.00%)    -0.71674 (  0.00%)    -0.76932
      17     91.78    -1.07984 (100.00%)    -0.87661 (  0.00%)    -1.07984
      18    173.66    -0.71421 (100.00%)    -0.68769 (  0.00%)    -0.71421
      19    123.24    -0.90903 (100.00%)    -0.78929 (  0.00%)    -0.90903
      20    226.49    -0.56846 (100.00%)    -0.60902 (  0.00%)    -0.56846
      21    204.99    -0.62248 (100.00%)    -0.63856 (  0.00%)    -0.62248
      22    225.04    -0.57190 (100.00%)    -0.61091 (  0.00%)    -0.57190
      23    218.10    -0.58878 (100.00%)    -0.62019 (  0.00%)    -0.58878
      24    246.04    -0.52439 (100.00%)    -0.58449 (  0.00%)    -0.52439
      25    286.04    -0.44642 (100.00%)    -0.53987 (  0.00%)    -0.44642
      26    293.49    -0.43344 (100.00%)    -0.53225 (  0.00%)    -0.43344
   ------------------------------------------------------------------------

   temp. (K)  partition function   enthalpy   heat capacity  entropy
                                   cal/mol     cal/K/mol   cal/K/mol   J/K/mol
 298.15  VIB  0.712E+11            13947.647     79.116     96.438
         ROT  0.781E+07              888.752      2.981     34.520
         INT  0.556E+18            14836.400     82.097    130.959
         TR   0.581E+28             1481.254      4.968     43.260
         TOT                       16317.6535    87.0647   174.2193   728.9335

       T/K    H(0)-H(T)+PV         H(T)/Eh          T*S/Eh         G(T)/Eh
   ------------------------------------------------------------------------
    298.15    0.260038E-01    0.314322E+00    0.827772E-01    0.231544E+00
   ------------------------------------------------------------------------

         :::::::::::::::::::::::::::::::::::::::::::::::::::::
         ::                  THERMODYNAMIC                  ::
         :::::::::::::::::::::::::::::::::::::::::::::::::::::
         :: total free energy         -64.463357006332 Eh   ::
         ::.................................................::
         :: total energy              -64.694901364587 Eh   ::
         :: zero point energy           0.288317731058 Eh   ::
         :: G(RRHO) w/o ZPVE           -0.056773372804 Eh   ::
         :: G(RRHO) contrib.            0.231544358254 Eh   ::
         :::::::::::::::::::::::::::::::::::::::::::::::::::::

optimized geometry written to: xtbopt.coord


           -------------------------------------------------
          | TOTAL ENERGY              -64.694901364587 Eh   |
          | TOTAL ENTHALPY            -64.380579797513 Eh   |
          | TOTAL FREE ENERGY         -64.463357006332 Eh   |
          | GRADIENT NORM               0.000057909846 Eh/α |
          | HOMO-LUMO GAP               3.363193036873 eV   |
           -------------------------------------------------

------------------------------------------------------------------------
 * finished run on 2025/04/09 at 09:47:35.732     
------------------------------------------------------------------------
 total:
 * wall-time:     0 d,  0 h,  0 min, 18.474 sec
 *  cpu-time:     0 d,  0 h,  0 min, 18.373 sec
 * ratio c/w:     0.995 speedup
 SCF:
 * wall-time:     0 d,  0 h,  0 min,  0.110 sec
 *  cpu-time:     0 d,  0 h,  0 min,  0.063 sec
 * ratio c/w:     0.574 speedup
 analytical hessian:
 * wall-time:     0 d,  0 h,  0 min,  8.887 sec
 *  cpu-time:     0 d,  0 h,  0 min,  8.884 sec
 * ratio c/w:     1.000 speedup

