
                                 *****************
                                 * O   R   C   A *
                                 *****************

                                            #,                                       
                                            ###                                      
                                            ####                                     
                                            #####                                    
                                            ######                                   
                                           ########,                                 
                                     ,,################,,,,,                         
                               ,,#################################,,                 
                          ,,##########################################,,             
                       ,#########################################, ''#####,          
                    ,#############################################,,   '####,        
                  ,##################################################,,,,####,       
                ,###########''''           ''''###############################       
              ,#####''   ,,,,##########,,,,          '''####'''          '####       
            ,##' ,,,,###########################,,,                        '##       
           ' ,,###''''                  '''############,,,                           
         ,,##''                                '''############,,,,        ,,,,,,###''
      ,#''                                            '''#######################'''  
     '                                                          ''''####''''         
             ,#######,   #######,   ,#######,      ##                                
            ,#'     '#,  ##    ##  ,#'     '#,    #''#        ,####,   ,####,        
            ##       ##  ##   ,#'  ##            #'  '#       #'       #'  '#        
            ##       ##  #######   ##           ,######,      #####,   #    #        
            '#,     ,#'  ##    ##  '#,     ,#' ,#      #,     #,   #   #,  ,#        
             '#######'   ##     ##  '#######'  #'      '#     '####' # '####'        



                #########################################################
                #                        -***-                          #
                #          Department of theory and spectroscopy        #
                #                                                       #
                #                      Frank Neese                      #
                #                                                       #
                #     Directorship, Architecture, Infrastructure        #
                #                    SHARK, DRIVERS                     #
                #        Core code/Algorithms in most modules           #
                #                                                       #
                #        Max Planck Institute fuer Kohlenforschung      #
                #                Kaiser Wilhelm Platz 1                 #
                #                 D-45470 Muelheim/Ruhr                 #
                #                      Germany                          #
                #                                                       #
                #                  All rights reserved                  #
                #                        -***-                          #
                #########################################################


                         Program Version 6.0.0  -   RELEASE  -


 With contributions from (in alphabetic order):
   Daniel Aravena         : Magnetic Suceptibility
   Michael Atanasov       : Ab Initio Ligand Field Theory (pilot matlab implementation)
   Alexander A. Auer      : GIAO ZORA, VPT2 properties, NMR spectrum
   Ute Becker             : All parallelization in ORCA, NUMFREQ, NUMCALC
   Giovanni Bistoni       : ED, misc. LED, open-shell LED, HFLD
   Martin Brehm           : Molecular dynamics
   Dmytro Bykov           : pre 5.0 version of the SCF Hessian
   Marcos Casanova-Páez   : Triplet and SCS-CIS(D). UHF-(DLPNO)-IP/EA/STEOM-CCSD. UHF-CVS-IP/STEOM-CCSD
   Vijay G. Chilkuri      : MRCI spin determinant printing, contributions to CSF-ICE
   Pauline Colinet        : FMM embedding
   Dipayan Datta          : RHF DLPNO-CCSD density
   Achintya Kumar Dutta   : EOM-CC, STEOM-CC
   Nicolas Foglia         : Exact transition moments, OPA infrastructure, MCD improvements
   Dmitry Ganyushin       : Spin-Orbit,Spin-Spin,Magnetic field MRCI
   Miquel Garcia          : C-PCM and meta-GGA Hessian, CCSD/C-PCM, Gaussian charge scheme
   Tiago L. C. Gouveia    : GS-ROHF, GS-ROCIS
   Yang Guo               : DLPNO-NEVPT2, F12-NEVPT2, CIM, IAO-localization
   Andreas Hansen         : Spin unrestricted coupled pair/coupled cluster methods
   Ingolf Harden          : AUTO-CI MPn and infrastructure 
   Benjamin Helmich-Paris : MC-RPA, TRAH-(SCF,CASSCF), AVAS, COSX integrals, SCF dyn. polar.
   Lee Huntington         : MR-EOM, pCC
   Robert Izsak           : Overlap fitted RIJCOSX, COSX-SCS-MP3, EOM
   Riya Kayal             : Wick's Theorem for AUTO-CI, AUTO-CI UHF-CCSDT
   Emily Kempfer          : AUTO-CI, RHF CISDT and CCSDT
   Christian Kollmar      : KDIIS, OOCD, Brueckner-CCSD(T), CCSD density, CASPT2, CASPT2-K, improved NEVPT2
   Axel Koslowski         : Symmetry handling
   Simone Kossmann        : Meta GGA functionals, TD-DFT gradient, OOMP2, (MP2 Hessian; deprecated post 5.0)
   Lucas Lang             : DCDCAS
   Marvin Lechner         : AUTO-CI (C++ implementation), FIC-MRCC
   Spencer Leger          : CASSCF response
   Dagmar Lenk            : GEPOL surface, SMD, ORCA-2-JSON
   Dimitrios Liakos       : Extrapolation schemes; Compound Job, initial MDCI parallelization
   Dimitrios Manganas     : Further ROCIS development; embedding schemes. LFT, Crystal Embedding
   Dimitrios Pantazis     : SARC Basis sets
   Anastasios Papadopoulos: AUTO-CI, single reference methods and gradients
   Taras Petrenko         : pre 6.0 DFT Hessian and TD-DFT gradient, (ASA, deprecated), ECA, 1-Electron XAS/XES, NRVS
   Peter Pinski           : DLPNO-MP2, DLPNO-MP2 Gradient
   Christoph Reimann      : Effective Core Potentials
   Marius Retegan         : Local ZFS, SOC
   Christoph Riplinger    : Optimizer, TS searches, QM/MM, DLPNO-CCSD(T), (RO)-DLPNO pert. Triples
   Michael Roemelt        : Original ROCIS implementation
   Masaaki Saitow         : Open-shell DLPNO-CCSD energy and density
   Barbara Sandhoefer     : DKH picture change effects
   Kantharuban Sivalingam : CASSCF convergence/infrastructure, NEVPT2 and variants, FIC-MRCI
   Bernardo de Souza      : ESD, SOC TD-DFT
   Georgi Stoychev        : AutoAux, RI-MP2 NMR, DLPNO-MP2 response, X2C
   Van Anh Tran           : RI-MP2 g-tensors
   Willem Van den Heuvel  : Paramagnetic NMR
   Zikuan Wang            : NOTCH, Electric field optimization 
   Frank Wennmohs         : Technical directorship and infrastructure
   Hang Xu                : AUTO-CI-Response properties 


 We gratefully acknowledge several colleagues who have allowed us to
 interface, adapt or use parts of their codes:
   Stefan Grimme, W. Hujo, H. Kruse, P. Pracht,  : VdW corrections, initial TS optimization,
                  C. Bannwarth, S. Ehlert,         DFT functionals, gCP, sTDA/sTD-DF
                  L. Wittmann, M. Mueller
   Ed Valeev, F. Pavosevic, A. Kumar             : LibInt (2-el integral package), F12 methods
   Garnet Chan, S. Sharma, J. Yang, R. Olivares  : DMRG
   Ulf Ekstrom                                   : XCFun DFT Library
   Mihaly Kallay                                 : mrcc  (arbitrary order and MRCC methods)
   Frank Weinhold                                : gennbo (NPA and NBO analysis)
   Simon Mueller                                 : openCOSMO-RS
   Christopher J. Cramer and Donald G. Truhlar   : smd solvation model
   Lars Goerigk                                  : TD-DFT with DH, B97 family of functionals
   V. Asgeirsson, H. Jonsson                     : NEB implementation
   FAccTs GmbH                                   : IRC, NEB, NEB-TS, DLPNO-Multilevel, CI-OPT
                                                   MM, QMMM, 2- and 3-layer-ONIOM, Crystal-QMMM,
                                                   LR-CPCM, SF, NACMEs, symmetry and pop. for TD-DFT,
                                                   nearIR, NL-DFT gradient (VV10), updates on ESD,
                                                   ML-optimized integration grids, MBIS, APM,
                                                   GOAT, DOCKER, SOLVATOR, interface openCOSMO-RS
   S Lehtola, MJT Oliveira, MAL Marques          : LibXC Library
   Liviu Ungur et al                             : ANISO software


 Your calculation uses the libint2 library for the computation of 2-el integrals
 For citations please refer to: http://libint.valeyev.net

 Your ORCA version has been built with support for libXC version: 6.2.2
 For citations please refer to: https://libxc.gitlab.io

 This ORCA versions uses:
   CBLAS   interface :  Fast vector & matrix operations
   LAPACKE interface :  Fast linear algebra routines
   SCALAPACK package :  Parallel linear algebra routines
   Shared memory     :  Shared parallel matrices
   BLAS/LAPACK       :  OpenBLAS 0.3.27  USE64BITINT DYNAMIC_ARCH NO_AFFINITY SkylakeX SINGLE_THREADED
        Core in use  :  SkylakeX
   Copyright (c) 2011-2014, The OpenBLAS Project


Your calculation utilizes the geometrical counterpoise correction gCP
Please cite in your paper:
H.Kruse, S. Grimme J.Chem.Phys., 136, (2012), 154101 
   

Your calculation utilizes the atom-pairwise dispersion correction
based on EEQ partial charges (D4)


================================================================================

----- Orbital basis set information -----
Your calculation utilizes the basis: def2-SV(P)
   F. Weigend and R. Ahlrichs, Phys. Chem. Chem. Phys. 7, 3297 (2005).

----- AuxJ basis set information -----
Your calculation utilizes the auxiliary basis: def2/J
   F. Weigend, Phys. Chem. Chem. Phys. 8, 1057 (2006).

================================================================================
                                        WARNINGS
                       Please study these warnings very carefully!
================================================================================


================================================================================
                                       INPUT FILE
================================================================================
NAME = sp.inp
|  1> ! pbe def2-sv(p) def2/J RI DEFGRID1 loosescf d4 GCP(DFT/SV(P)) printgap
|  2> %output
|  3>     printlevel normal
|  4> end
|  5> * xyz 0 1
|  6> C -1.0917166889 0.189062764 0.0020753522
|  7> C -0.1890128463 -1.0915901163 -0.0021427519
|  8> C 1.0917974396 -0.1890473323 0.0021641307
|  9> C 0.1890562176 1.0916145175 -0.002104859
| 10> F 0.321783193 1.8574216698 -1.0878801252
| 11> F 0.3236412027 1.8679224339 1.0757821785
| 12> F 1.8682125156 -0.3237024112 -1.0756624351
| 13> F 1.8574953944 -0.3218223026 1.0880167687
| 14> F -0.3239630152 -1.8678969275 1.0757030621
| 15> F -0.3216932525 -1.8573534927 -1.0879466063
| 16> F -1.8575776902 0.3217062428 1.0878212053
| 17> F -1.8679768172 0.3236996052 -1.0758289096
| 18> *
| 19> 
| 20>                          ****END OF INPUT****
================================================================================

                       ****************************
                       * Single Point Calculation *
                       ****************************

---------------------------------
CARTESIAN COORDINATES (ANGSTROEM)
---------------------------------
  C     -1.091717    0.189063    0.002075
  C     -0.189013   -1.091590   -0.002143
  C      1.091797   -0.189047    0.002164
  C      0.189056    1.091615   -0.002105
  F      0.321783    1.857422   -1.087880
  F      0.323641    1.867922    1.075782
  F      1.868213   -0.323702   -1.075662
  F      1.857495   -0.321822    1.088017
  F     -0.323963   -1.867897    1.075703
  F     -0.321693   -1.857353   -1.087947
  F     -1.857578    0.321706    1.087821
  F     -1.867977    0.323700   -1.075829

----------------------------
CARTESIAN COORDINATES (A.U.)
----------------------------
  NO LB      ZA    FRAG     MASS         X           Y           Z
   0 C     6.0000    0    12.011   -2.063046    0.357277    0.003922
   1 C     6.0000    0    12.011   -0.357183   -2.062806   -0.004049
   2 C     6.0000    0    12.011    2.063198   -0.357248    0.004090
   3 C     6.0000    0    12.011    0.357264    2.062852   -0.003978
   4 F     9.0000    0    18.998    0.608082    3.510018   -2.055796
   5 F     9.0000    0    18.998    0.611593    3.529862    2.032934
   6 F     9.0000    0    18.998    3.530410   -0.611709   -2.032707
   7 F     9.0000    0    18.998    3.510158   -0.608156    2.056054
   8 F     9.0000    0    18.998   -0.612201   -3.529814    2.032784
   9 F     9.0000    0    18.998   -0.607912   -3.509889   -2.055921
  10 F     9.0000    0    18.998   -3.510313    0.607937    2.055684
  11 F     9.0000    0    18.998   -3.529965    0.611704   -2.033022

--------------------------------
INTERNAL COORDINATES (ANGSTROEM)
--------------------------------
 C      0   0   0     0.000000000000     0.00000000     0.00000000
 C      1   0   0     1.566832415949     0.00000000     0.00000000
 C      2   1   0     1.566868537771    90.00770590     0.00000000
 C      1   2   3     1.566842806390    89.99251405     0.31035270
 F      4   1   2     1.335284603822   114.44280514   116.72205571
 F      4   1   2     1.335143275042   114.53020919   242.54811227
 F      3   2   1     1.335163835062   114.52158916   242.53710502
 F      3   2   1     1.335289669763   114.43755281   116.72368489
 F      2   1   3     1.335146213701   114.50889059   117.16220222
 F      2   1   3     1.335278116744   114.43629161   242.96254693
 F      1   2   3     1.335283274554   114.44550778   243.27929484
 F      1   2   3     1.335134623700   114.53308906   117.44872968

---------------------------
INTERNAL COORDINATES (A.U.)
---------------------------
 C      0   0   0     0.000000000000     0.00000000     0.00000000
 C      1   0   0     2.960884163893     0.00000000     0.00000000
 C      2   1   0     2.960952424244    90.00770590     0.00000000
 C      1   2   3     2.960903798982    89.99251405     0.31035270
 F      4   1   2     2.523322212065   114.44280514   116.72205571
 F      4   1   2     2.523055139376   114.53020919   242.54811227
 F      3   2   1     2.523093992183   114.52158916   242.53710502
 F      3   2   1     2.523331785305   114.43755281   116.72368489
 F      2   1   3     2.523060692636   114.50889059   117.16220222
 F      2   1   3     2.523309953264   114.43629161   242.96254693
 F      1   2   3     2.523319700113   114.44550778   243.27929484
 F      1   2   3     2.523038790710   114.53308906   117.44872968

---------------------
BASIS SET INFORMATION
---------------------
There are 2 groups of distinct atoms

 Group   1 Type C   : 7s4p1d contracted to 3s2p1d pattern {511/31/1}
 Group   2 Type F   : 7s4p1d contracted to 3s2p1d pattern {511/31/1}

Atom   0C    basis set group =>   1
Atom   1C    basis set group =>   1
Atom   2C    basis set group =>   1
Atom   3C    basis set group =>   1
Atom   4F    basis set group =>   2
Atom   5F    basis set group =>   2
Atom   6F    basis set group =>   2
Atom   7F    basis set group =>   2
Atom   8F    basis set group =>   2
Atom   9F    basis set group =>   2
Atom  10F    basis set group =>   2
Atom  11F    basis set group =>   2
---------------------------------
AUXILIARY/J BASIS SET INFORMATION
---------------------------------
There are 2 groups of distinct atoms

 Group   1 Type C   : 12s5p4d2f1g contracted to 6s4p3d1f1g pattern {711111/2111/211/2/1}
 Group   2 Type F   : 12s5p4d2f1g contracted to 6s4p3d1f1g pattern {711111/2111/211/2/1}

Atom   0C    basis set group =>   1
Atom   1C    basis set group =>   1
Atom   2C    basis set group =>   1
Atom   3C    basis set group =>   1
Atom   4F    basis set group =>   2
Atom   5F    basis set group =>   2
Atom   6F    basis set group =>   2
Atom   7F    basis set group =>   2
Atom   8F    basis set group =>   2
Atom   9F    basis set group =>   2
Atom  10F    basis set group =>   2
Atom  11F    basis set group =>   2
------------------------------------------------------------------------------
                             ORCA STARTUP CALCULATIONS
                           -- RI-GTO INTEGRALS CHOSEN --
------------------------------------------------------------------------------
------------------------------------------------------------------------------
                   ___                                                        
                  /   \      - P O W E R E D   B Y -                         
                 /     \                                                     
                 |  |  |   _    _      __       _____    __    __             
                 |  |  |  | |  | |    /  \     |  _  \  |  |  /  |          
                  \  \/   | |  | |   /    \    | | | |  |  | /  /          
                 / \  \   | |__| |  /  /\  \   | |_| |  |  |/  /          
                |  |  |   |  __  | /  /__\  \  |    /   |      \           
                |  |  |   | |  | | |   __   |  |    \   |  |\   \          
                \     /   | |  | | |  |  |  |  | |\  \  |  | \   \       
                 \___/    |_|  |_| |__|  |__|  |_| \__\ |__|  \__/        
                                                                              
                      - O R C A' S   B I G   F R I E N D -                    
                                      &                                       
                       - I N T E G R A L  F E E D E R -                       
                                                                              
 v1 FN, 2020, v2 2021, v3 2022-2024                                           
------------------------------------------------------------------------------


----------------------
SHARK INTEGRAL PACKAGE
----------------------

Number of atoms                             ...     12
Number of basis functions                   ...    168
Number of shells                            ...     72
Maximum angular momentum                    ...      2
Integral batch strategy                     ... SHARK/LIBINT Hybrid
RI-J (if used) integral strategy            ... SPLIT-RIJ (Revised 2003 algorithm where possible)
Printlevel                                  ...      1
Contraction scheme used                     ... SEGMENTED contraction
Prescreening option                         ... SCHWARTZ
   Thresh                                   ... 1.000e-09
   Tcut                                     ... 1.000e-10
   Tpresel                                  ... 1.000e-10 
Coulomb Range Separation                    ... NOT USED
Exchange Range Separation                   ... NOT USED
Multipole approximations                    ... NOT USED
Finite Nucleus Model                        ... NOT USED
CABS basis                                  ... NOT available
Auxiliary Coulomb fitting basis             ... AVAILABLE
   # of basis functions in Aux-J            ...    588
   # of shells in Aux-J                     ...    180
   Maximum angular momentum in Aux-J        ...      4
Auxiliary J/K fitting basis                 ... NOT available
Auxiliary Correlation fitting basis         ... NOT available
Auxiliary 'external' fitting basis          ... NOT available

Checking pre-screening integrals            ... done (  0.0 sec) Dimension = 72
Check shell pair data                       ... done (  0.0 sec)
Shell pair information
Shell pair cut-off parameter TPreSel        ...   1.0e-10
Total number of shell pairs                 ...      2628
Shell pairs after pre-screening             ...      2270
Total number of primitive shell pairs       ...     10596
Primitive shell pairs kept                  ...      6156
          la=0 lb=0:    540 shell pairs
          la=1 lb=0:    776 shell pairs
          la=1 lb=1:    284 shell pairs
          la=2 lb=0:    352 shell pairs
          la=2 lb=1:    256 shell pairs
          la=2 lb=2:     62 shell pairs

Calculating one electron integrals          ... done (  0.0 sec)
Calculating RI/J V-Matrix + Cholesky decomp.... done (  0.5 sec)
Calculating Nuclear repulsion               ... done (  0.0 sec) ENN=    887.752454000034 Eh

Diagonalization of the overlap matrix:
Smallest eigenvalue                        ... 1.102e-04
Time for diagonalization                   ...    0.003 sec
Threshold for overlap eigenvalues          ... 1.000e-07
Number of eigenvalues below threshold      ... 0
Time for construction of square roots      ...    0.016 sec
Total time needed                          ...    0.027 sec

-------------------
DFT GRID GENERATION
-------------------

General Integration Accuracy     IntAcc      ... 4.159
Radial Grid Type                 RadialGrid  ... OptM3 with GC (2021)
Angular Grid (max. ang.)         AngularGrid ... 3 (Lebedev-194)
Angular grid pruning method      GridPruning ... 4 (adaptive)
Weight generation scheme         WeightScheme... mBecke (2022)
Basis function cutoff            BFCut       ... 1.0000e-10
Integration weight cutoff        WCut        ... 1.0000e-14
Partially contracted basis set               ... off
Rotationally invariant grid construction     ... off
Angular grids for H and He will be reduced by one unit

Total number of grid points                  ...    39704
Total number of batches                      ...      628
Average number of points per batch           ...       63
Average number of grid points per atom       ...     3309
Initializing property integral containers    ... done (  0.0 sec)

SHARK setup successfully completed in   1.0 seconds

Maximum memory used throughout the entire STARTUP-calculation: 20.1 MB
-------------------------------------------------------------------------------
                                 ORCA GUESS
                   Start orbitals & Density for SCF / CASSCF
-------------------------------------------------------------------------------

------------
SCF SETTINGS
------------
Hamiltonian:
 Density Functional     Method          .... DFT(GTOs)
 Exchange Functional    Exchange        .... PBE
   PBE kappa parameter   XKappa         ....  0.804000
   PBE mue parameter    XMuePBE         ....  0.219520
 Correlation Functional Correlation     .... PBE
   PBE beta parameter  CBetaPBE         ....  0.066725
 LDA part of GGA corr.  LDAOpt          .... PW91-LDA
 Gradients option       PostSCFGGA      .... off
   NL short-range parameter             ....  6.400000
 RI-approximation to the Coulomb term is turned on
   Number of AuxJ basis functions       .... 588


General Settings:
 Integral files         IntName         .... sp
 Hartree-Fock type      HFTyp           .... RHF
 Total Charge           Charge          ....    0
 Multiplicity           Mult            ....    1
 Number of Electrons    NEL             ....   96
 Basis Dimension        Dim             ....  168
 Nuclear Repulsion      ENuc            ....    887.7524540000 Eh

Convergence Acceleration:
 AO-DIIS                CNVDIIS         .... on
   Start iteration      DIISMaxIt       ....    12
   Startup error        DIISStart       ....  0.200000
   # of expansion vecs  DIISMaxEq       ....     5
   Bias factor          DIISBfac        ....   1.050
   Max. coefficient     DIISMaxC        ....  10.000
 MO-DIIS                CNVKDIIS        .... off
 Trust-Rad. Augm. Hess. CNVTRAH         .... auto
   Auto Start mean grad. ratio tolernc. ....  1.125000
   Auto Start start iteration           ....    50
   Auto Start num. interpolation iter.  ....    10
   Max. Number of Micro iterations      ....    24
   Max. Number of Macro iterations      .... Maxiter - #DIIS iter
   Number of Davidson start vectors     ....     2
   Converg. threshold    (grad. norm)   ....   1.000e-04
   Grad. Scal. Fac. for Micro threshold ....   0.100
   Minimum threshold for Micro iter.    ....   1.000e-02
   NR start threshold (gradient norm)   ....   1.000e-04
   Initial trust radius                 ....   0.400
   Minimum AH scaling param. (alpha)    ....   1.000
   Maximum AH scaling param. (alpha)    .... 1000.000
   Quad. conv. algorithm                .... NR
   White noise on init. David. guess    .... on
   Maximum white noise                  ....   0.010
   Pseudo random numbers                .... off
   Inactive MOs                         .... canonical
   Orbital update algorithm             .... Taylor
   Preconditioner                       .... Diag
   Full preconditioner red. dimension   ....   250
 SOSCF                  CNVSOSCF        .... on
   Start iteration      SOSCFMaxIt      ....   150
   Startup grad/error   SOSCFStart      ....  0.003300
   Hessian update       SOSCFHessUp     .... L-BFGS
 Level Shifting         CNVShift        .... on
   Level shift para.    LevelShift      ....    0.2500
   Turn off err/grad.   ShiftErr        ....    0.0010
 Zerner damping         CNVZerner       .... off
 Static damping         CNVDamp         .... on
   Fraction old density DampFac         ....    0.7000
   Max. Damping (<1)    DampMax         ....    0.9800
   Min. Damping (>=0)   DampMin         ....    0.0000
   Turn off err/grad.   DampErr         ....    0.1000

SCF Procedure:
 Maximum # iterations   MaxIter         ....   125
 SCF integral mode      SCFMode         .... Direct
   Integral package                     .... SHARK and LIBINT hybrid scheme
 Reset frequency        DirectResetFreq ....    20
 Integral Threshold     Thresh          ....  1.000e-09 Eh
 Primitive CutOff       TCut            ....  1.000e-10 Eh

Convergence Tolerance:
 Convergence Check Mode ConvCheckMode   .... Total+1el-Energy
 Convergence forced     ConvForced      .... 0
 Energy Change          TolE            ....  1.000e-05 Eh
 1-El. energy change                    ....  1.000e-02 Eh
 Orbital Gradient       TolG            ....  1.000e-04
 Orbital Rotation angle TolX            ....  1.000e-04
 DIIS Error             TolErr          ....  5.000e-04

------------------------------
INITIAL GUESS: MODEL POTENTIAL
------------------------------
Loading Hartree-Fock densities                     ... done
Calculating cut-offs                               ... done
Initializing the effective Hamiltonian             ... done
Setting up the integral package (SHARK)            ... done
Starting the Coulomb interaction                   ... done (   0.1 sec)
Making the grid                                    ... done (   0.2 sec)
Mapping shells                                     ... done
Starting the XC term evaluation                    ... done (   0.2 sec)
  promolecular density results
     # of electrons  =     96.001893821
     EX              =   -100.513588784
     EC              =     -3.385888862
     EX+EC           =   -103.899477646
Transforming the Hamiltonian                       ... done (   0.0 sec)
Diagonalizing the Hamiltonian                      ... done (   0.0 sec)
Back transforming the eigenvectors                 ... done (   0.0 sec)
Now organizing SCF variables                       ... done
                      ------------------
                      INITIAL GUESS DONE (   0.5 sec)
                      ------------------
             **** ENERGY FILE WAS UPDATED (sp.en.tmp) ****
Finished Guess after   0.7 sec
Maximum memory used throughout the entire GUESS-calculation: 16.2 MB

-------------------------------------------------------------------------------------------
                                      ORCA LEAN-SCF
                              memory conserving SCF solver
-------------------------------------------------------------------------------------------

----------------------------------------D-I-I-S--------------------------------------------
Iteration    Energy (Eh)           Delta-E    RMSDP     MaxDP     DIISErr   Damp  Time(sec)
-------------------------------------------------------------------------------------------
               ***  Starting incremental Fock matrix formation  ***
    1    -949.3519134780915465     0.00e+00  4.41e-03  9.67e-02  1.07e-01  0.700   0.8
    2    -949.4157553685740822    -6.38e-02  2.49e-03  6.32e-02  3.01e-02  0.700   0.8
                               ***Turning on AO-DIIS***
    3    -949.4319600402345714    -1.62e-02  7.88e-04  2.12e-02  1.73e-02  0.700   0.8
    4    -949.4455559013538277    -1.36e-02  1.05e-03  2.28e-02  1.08e-02  0.000   0.7
                              *** Initializing SOSCF ***
---------------------------------------S-O-S-C-F--------------------------------------
Iteration    Energy (Eh)           Delta-E    RMSDP     MaxDP     MaxGrad    Time(sec)
--------------------------------------------------------------------------------------
    5    -949.4776483435493901    -3.21e-02  2.01e-04  5.92e-03  2.76e-03     1.2
               *** Restarting incremental Fock matrix formation ***
    6    -949.4777053996945142    -5.71e-05  9.14e-05  1.70e-03  5.60e-04     1.3
    7    -949.4776890043408457     1.64e-05  6.84e-05  1.11e-03  1.24e-03     1.0
    8    -949.4777127219897466    -2.37e-05  1.45e-05  4.47e-04  3.68e-05     0.7
    9    -949.4777124370950787     2.85e-07  1.01e-05  2.88e-04  2.79e-05     0.7
                 **** Energy Check signals convergence ****

               *****************************************************
               *                     SUCCESS                       *
               *           SCF CONVERGED AFTER   9 CYCLES          *
               *****************************************************

             **** ENERGY FILE WAS UPDATED (sp.en.tmp) ****

----------------
TOTAL SCF ENERGY
----------------

Total Energy       :       -949.47771243709508 Eh          -25836.60206 eV

Components:
Nuclear Repulsion  :        887.75245400003428 Eh           24156.97239 eV
Electronic Energy  :      -1837.23016643712936 Eh          -49993.57445 eV
One Electron Energy:      -3085.20470056832937 Eh          -83952.68797 eV
Two Electron Energy:       1247.97453413120002 Eh           33959.11352 eV

Virial components:
Potential Energy   :      -1893.80767587236551 Eh          -51533.12675 eV
Kinetic Energy     :        944.32996343527054 Eh           25696.52469 eV
Virial Ratio       :          2.00545121853711

DFT components:
N(Alpha)           :       47.999794055742 electrons
N(Beta)            :       47.999794055742 electrons
N(Total)           :       95.999588111485 electrons
E(X)               :     -101.088334992479 Eh       
E(C)               :       -3.382688419993 Eh       
E(XC)              :     -104.471023412472 Eh       

---------------
SCF CONVERGENCE
---------------

  Last Energy change         ...   -2.8489e-07  Tolerance :   1.0000e-05
  Last MAX-Density change    ...    2.8768e-04  Tolerance :   1.0000e-03
  Last RMS-Density change    ...    1.0086e-05  Tolerance :   1.0000e-04
  Last DIIS Error            ...    2.7610e-03  Tolerance :   5.0000e-04
  Last Orbital Gradient      ...    2.7878e-05  Tolerance :   1.0000e-04
  Last Orbital Rotation      ...    1.4053e-05  Tolerance :   1.0000e-04


----------------
ORBITAL ENERGIES
----------------

  NO   OCC          E(Eh)            E(eV) 
   0   2.0000     -24.317486      -661.7124 
   1   2.0000     -24.317282      -661.7069 
   2   2.0000     -24.317219      -661.7052 
   3   2.0000     -24.317213      -661.7050 
   4   2.0000     -24.317151      -661.7033 
   5   2.0000     -24.317145      -661.7032 
   6   2.0000     -24.316992      -661.6990 
   7   2.0000     -24.316973      -661.6985 
   8   2.0000     -10.090409      -274.5740 
   9   2.0000     -10.090243      -274.5695 
  10   2.0000     -10.090242      -274.5694 
  11   2.0000     -10.090063      -274.5646 
  12   2.0000      -1.206578       -32.8327 
  13   2.0000      -1.187641       -32.3173 
  14   2.0000      -1.187638       -32.3173 
  15   2.0000      -1.173540       -31.9337 
  16   2.0000      -1.136063       -30.9139 
  17   2.0000      -1.124648       -30.6032 
  18   2.0000      -1.124645       -30.6032 
  19   2.0000      -1.114956       -30.3395 
  20   2.0000      -0.821089       -22.3430 
  21   2.0000      -0.650381       -17.6978 
  22   2.0000      -0.650359       -17.6972 
  23   2.0000      -0.588793       -16.0219 
  24   2.0000      -0.577833       -15.7236 
  25   2.0000      -0.565580       -15.3902 
  26   2.0000      -0.565568       -15.3899 
  27   2.0000      -0.531179       -14.4541 
  28   2.0000      -0.531175       -14.4540 
  29   2.0000      -0.526818       -14.3354 
  30   2.0000      -0.526791       -14.3347 
  31   2.0000      -0.509365       -13.8605 
  32   2.0000      -0.432395       -11.7661 
  33   2.0000      -0.432388       -11.7659 
  34   2.0000      -0.423757       -11.5310 
  35   2.0000      -0.419155       -11.4058 
  36   2.0000      -0.416989       -11.3469 
  37   2.0000      -0.416449       -11.3321 
  38   2.0000      -0.402750       -10.9594 
  39   2.0000      -0.402745       -10.9593 
  40   2.0000      -0.394858       -10.7446 
  41   2.0000      -0.378781       -10.3072 
  42   2.0000      -0.373236       -10.1563 
  43   2.0000      -0.373234       -10.1562 
  44   2.0000      -0.366134        -9.9630 
  45   2.0000      -0.334339        -9.0978 
  46   2.0000      -0.334303        -9.0968 
  47   2.0000      -0.277492        -7.5509 
  48   0.0000      -0.073266        -1.9937 
  49   0.0000       0.027085         0.7370 
  50   0.0000       0.083310         2.2670 
  51   0.0000       0.083344         2.2679 
  52   0.0000       0.119502         3.2518 
  53   0.0000       0.119536         3.2527 
  54   0.0000       0.163640         4.4529 
  55   0.0000       0.163666         4.4536 
  56   0.0000       0.167020         4.5448 
  57   0.0000       0.168532         4.5860 
  58   0.0000       0.296599         8.0709 
*Only the first 10 virtual orbitals were printed.

                    ********************************
                    * MULLIKEN POPULATION ANALYSIS *
                    ********************************

-----------------------
MULLIKEN ATOMIC CHARGES
-----------------------
   0 C :    0.242745
   1 C :    0.242024
   2 C :    0.242857
   3 C :    0.242024
   4 F :   -0.120998
   5 F :   -0.121417
   6 F :   -0.121422
   7 F :   -0.120999
   8 F :   -0.121419
   9 F :   -0.120996
  10 F :   -0.120991
  11 F :   -0.121409
Sum of atomic charges:    0.0000000

--------------------------------
MULLIKEN REDUCED ORBITAL CHARGES
--------------------------------
  0 C s       :     3.038286  s :     3.038286
      pz      :     0.676532  p :     2.586933
      px      :     0.880468
      py      :     1.029934
      dz2     :     0.035184  d :     0.132035
      dxz     :     0.037631
      dyz     :     0.019762
      dx2y2   :     0.015084
      dxy     :     0.024374

  1 C s       :     3.038817  s :     3.038817
      pz      :     0.676605  p :     2.587118
      px      :     1.029896
      py      :     0.880617
      dz2     :     0.035186  d :     0.132041
      dxz     :     0.019764
      dyz     :     0.037628
      dx2y2   :     0.015090
      dxy     :     0.024373

  2 C s       :     3.038242  s :     3.038242
      pz      :     0.676507  p :     2.586873
      px      :     0.880453
      py      :     1.029912
      dz2     :     0.035182  d :     0.132028
      dxz     :     0.037628
      dyz     :     0.019761
      dx2y2   :     0.015084
      dxy     :     0.024373

  3 C s       :     3.038836  s :     3.038836
      pz      :     0.676599  p :     2.587099
      px      :     1.029891
      py      :     0.880609
      dz2     :     0.035186  d :     0.132041
      dxz     :     0.019762
      dyz     :     0.037629
      dx2y2   :     0.015089
      dxy     :     0.024374

  4 F s       :     3.889098  s :     3.889098
      pz      :     1.606226  p :     5.223459
      px      :     1.894580
      py      :     1.722654
      dz2     :     0.002249  d :     0.008441
      dxz     :     0.001407
      dyz     :     0.003146
      dx2y2   :     0.000834
      dxy     :     0.000806

  5 F s       :     3.889216  s :     3.889216
      pz      :     1.610146  p :     5.223756
      px      :     1.894382
      py      :     1.719228
      dz2     :     0.002207  d :     0.008445
      dxz     :     0.001390
      dyz     :     0.003162
      dx2y2   :     0.000861
      dxy     :     0.000826

  6 F s       :     3.889231  s :     3.889231
      pz      :     1.610186  p :     5.223747
      px      :     1.719188
      py      :     1.894373
      dz2     :     0.002207  d :     0.008444
      dxz     :     0.003162
      dyz     :     0.001389
      dx2y2   :     0.000861
      dxy     :     0.000826

  7 F s       :     3.889106  s :     3.889106
      pz      :     1.606181  p :     5.223453
      px      :     1.722700
      py      :     1.894572
      dz2     :     0.002249  d :     0.008441
      dxz     :     0.003145
      dyz     :     0.001407
      dx2y2   :     0.000834
      dxy     :     0.000806

  8 F s       :     3.889217  s :     3.889217
      pz      :     1.610173  p :     5.223758
      px      :     1.894346
      py      :     1.719238
      dz2     :     0.002207  d :     0.008445
      dxz     :     0.001390
      dyz     :     0.003161
      dx2y2   :     0.000861
      dxy     :     0.000826

  9 F s       :     3.889095  s :     3.889095
      pz      :     1.606209  p :     5.223460
      px      :     1.894580
      py      :     1.722671
      dz2     :     0.002249  d :     0.008441
      dxz     :     0.001407
      dyz     :     0.003146
      dx2y2   :     0.000834
      dxy     :     0.000806

 10 F s       :     3.889100  s :     3.889100
      pz      :     1.606240  p :     5.223449
      px      :     1.722628
      py      :     1.894582
      dz2     :     0.002249  d :     0.008441
      dxz     :     0.003146
      dyz     :     0.001407
      dx2y2   :     0.000834
      dxy     :     0.000806

 11 F s       :     3.889217  s :     3.889217
      pz      :     1.610130  p :     5.223746
      px      :     1.719239
      py      :     1.894377
      dz2     :     0.002207  d :     0.008445
      dxz     :     0.003162
      dyz     :     0.001390
      dx2y2   :     0.000861
      dxy     :     0.000826


------------------------
MULLIKEN OVERLAP CHARGES
------------------------
B(  0-C ,  2-C ) :  -0.1385 B(  0-C ,  4-F ) :  -0.0689 B(  0-C ,  5-F ) :  -0.0677 
B(  0-C ,  8-F ) :  -0.0676 B(  0-C ,  9-F ) :  -0.0688 B(  0-C , 10-F ) :   0.7066 
B(  0-C , 11-F ) :   0.7060 B(  1-C ,  3-C ) :  -0.1378 B(  1-C ,  6-F ) :  -0.0677 
B(  1-C ,  7-F ) :  -0.0689 B(  1-C ,  8-F ) :   0.7057 B(  1-C ,  9-F ) :   0.7063 
B(  1-C , 10-F ) :  -0.0690 B(  1-C , 11-F ) :  -0.0678 B(  2-C ,  4-F ) :  -0.0688 
B(  2-C ,  5-F ) :  -0.0676 B(  2-C ,  6-F ) :   0.7060 B(  2-C ,  7-F ) :   0.7066 
B(  2-C ,  8-F ) :  -0.0677 B(  2-C ,  9-F ) :  -0.0689 B(  3-C ,  4-F ) :   0.7063 
B(  3-C ,  5-F ) :   0.7057 B(  3-C ,  6-F ) :  -0.0678 B(  3-C ,  7-F ) :  -0.0690 
B(  3-C , 10-F ) :  -0.0689 B(  3-C , 11-F ) :  -0.0677 B(  4-F ,  5-F ) :  -0.0913 
B(  6-F ,  7-F ) :  -0.0913 B(  8-F ,  9-F ) :  -0.0913 B( 10-F , 11-F ) :  -0.0913 



                     *******************************
                     * LOEWDIN POPULATION ANALYSIS *
                     *******************************

----------------------
LOEWDIN ATOMIC CHARGES
----------------------
   0 C :    0.042015
   1 C :    0.042014
   2 C :    0.042053
   3 C :    0.042021
   4 F :   -0.021060
   5 F :   -0.020970
   6 F :   -0.020976
   7 F :   -0.021058
   8 F :   -0.020973
   9 F :   -0.021057
  10 F :   -0.021053
  11 F :   -0.020958

-------------------------------
LOEWDIN REDUCED ORBITAL CHARGES
-------------------------------
  0 C s       :     2.888592  s :     2.888592
      pz      :     0.782873  p :     2.774846
      px      :     0.917351
      py      :     1.074622
      dz2     :     0.079324  d :     0.294546
      dxz     :     0.085625
      dyz     :     0.036269
      dx2y2   :     0.028205
      dxy     :     0.065125

  1 C s       :     2.888631  s :     2.888631
      pz      :     0.782877  p :     2.774804
      px      :     1.074579
      py      :     0.917347
      dz2     :     0.079325  d :     0.294551
      dxz     :     0.036273
      dyz     :     0.085619
      dx2y2   :     0.028215
      dxy     :     0.065119

  2 C s       :     2.888613  s :     2.888613
      pz      :     0.782863  p :     2.774807
      px      :     0.917339
      py      :     1.074605
      dz2     :     0.079319  d :     0.294528
      dxz     :     0.085617
      dyz     :     0.036267
      dx2y2   :     0.028204
      dxy     :     0.065120

  3 C s       :     2.888634  s :     2.888634
      pz      :     0.782877  p :     2.774794
      px      :     1.074581
      py      :     0.917336
      dz2     :     0.079326  d :     0.294550
      dxz     :     0.036269
      dyz     :     0.085621
      dx2y2   :     0.028212
      dxy     :     0.065122

  4 F s       :     3.726663  s :     3.726663
      pz      :     1.647332  p :     5.280447
      px      :     1.893439
      py      :     1.739676
      dz2     :     0.003575  d :     0.013949
      dxz     :     0.002136
      dyz     :     0.005768
      dx2y2   :     0.001306
      dxy     :     0.001164

  5 F s       :     3.726596  s :     3.726596
      pz      :     1.650849  p :     5.280422
      px      :     1.893194
      py      :     1.736379
      dz2     :     0.003487  d :     0.013952
      dxz     :     0.002111
      dyz     :     0.005808
      dx2y2   :     0.001352
      dxy     :     0.001194

  6 F s       :     3.726608  s :     3.726608
      pz      :     1.650882  p :     5.280417
      px      :     1.736347
      py      :     1.893188
      dz2     :     0.003486  d :     0.013951
      dxz     :     0.005808
      dyz     :     0.002111
      dx2y2   :     0.001352
      dxy     :     0.001195

  7 F s       :     3.726666  s :     3.726666
      pz      :     1.647294  p :     5.280443
      px      :     1.739716
      py      :     1.893433
      dz2     :     0.003576  d :     0.013949
      dxz     :     0.005767
      dyz     :     0.002136
      dx2y2   :     0.001305
      dxy     :     0.001164

  8 F s       :     3.726597  s :     3.726597
      pz      :     1.650872  p :     5.280423
      px      :     1.893164
      py      :     1.736388
      dz2     :     0.003487  d :     0.013952
      dxz     :     0.002111
      dyz     :     0.005807
      dx2y2   :     0.001352
      dxy     :     0.001195

  9 F s       :     3.726659  s :     3.726659
      pz      :     1.647318  p :     5.280449
      px      :     1.893440
      py      :     1.739691
      dz2     :     0.003576  d :     0.013949
      dxz     :     0.002136
      dyz     :     0.005768
      dx2y2   :     0.001306
      dxy     :     0.001164

 10 F s       :     3.726661  s :     3.726661
      pz      :     1.647345  p :     5.280443
      px      :     1.739657
      py      :     1.893440
      dz2     :     0.003575  d :     0.013949
      dxz     :     0.005768
      dyz     :     0.002136
      dx2y2   :     0.001306
      dxy     :     0.001164

 11 F s       :     3.726589  s :     3.726589
      pz      :     1.650837  p :     5.280416
      px      :     1.736393
      py      :     1.893187
      dz2     :     0.003488  d :     0.013953
      dxz     :     0.005808
      dyz     :     0.002111
      dx2y2   :     0.001352
      dxy     :     0.001194


---------------------------------
LOEWDIN BOND ORDERS (THRESH 0.050000)
---------------------------------
B(  0-C ,  1-C ) :   0.9243 B(  0-C ,  2-C ) :   0.1213 B(  0-C ,  3-C ) :   0.9243 
B(  0-C ,  4-F ) :   0.0687 B(  0-C ,  5-F ) :   0.0686 B(  0-C ,  8-F ) :   0.0687 
B(  0-C ,  9-F ) :   0.0688 B(  0-C , 10-F ) :   1.3422 B(  0-C , 11-F ) :   1.3427 
B(  1-C ,  2-C ) :   0.9243 B(  1-C ,  3-C ) :   0.1214 B(  1-C ,  6-F ) :   0.0686 
B(  1-C ,  7-F ) :   0.0688 B(  1-C ,  8-F ) :   1.3427 B(  1-C ,  9-F ) :   1.3422 
B(  1-C , 10-F ) :   0.0687 B(  1-C , 11-F ) :   0.0686 B(  2-C ,  3-C ) :   0.9243 
B(  2-C ,  4-F ) :   0.0688 B(  2-C ,  5-F ) :   0.0687 B(  2-C ,  6-F ) :   1.3427 
B(  2-C ,  7-F ) :   1.3422 B(  2-C ,  8-F ) :   0.0686 B(  2-C ,  9-F ) :   0.0687 
B(  3-C ,  4-F ) :   1.3422 B(  3-C ,  5-F ) :   1.3427 B(  3-C ,  6-F ) :   0.0686 
B(  3-C ,  7-F ) :   0.0687 B(  3-C , 10-F ) :   0.0687 B(  3-C , 11-F ) :   0.0687 
B(  4-F ,  5-F ) :   0.0843 B(  6-F ,  7-F ) :   0.0843 B(  8-F ,  9-F ) :   0.0843 
B( 10-F , 11-F ) :   0.0843 

------------------------------------------
LOEWDIN REDUCED ORBITAL POPULATIONS PER MO
-------------------------------------------
THRESHOLD FOR PRINTING IS 0.1%%
                      0         1         2         3         4         5   
                 -24.31749 -24.31728 -24.31722 -24.31721 -24.31715 -24.31715
                   2.00000   2.00000   2.00000   2.00000   2.00000   2.00000
                  --------  --------  --------  --------  --------  --------
 4 F  s              13.8      14.6       0.0      43.1       0.0       6.4
 5 F  s              11.2      10.9       0.0       6.6       0.0      43.6
 6 F  s              11.6      11.5       6.8       0.0      43.5       0.0
 7 F  s              14.3      15.4      42.7       0.0       6.5       0.0
 8 F  s              10.9      10.4       0.0       6.4       0.0      43.3
 9 F  s              13.4      13.3       0.0      43.8       0.0       6.6
10 F  s              13.6      13.3      44.0       0.0       6.7       0.0
11 F  s              11.1      10.7       6.4       0.0      43.2       0.0

                      6         7         8         9        10        11   
                 -24.31699 -24.31697 -10.09041 -10.09024 -10.09024 -10.09006
                   2.00000   2.00000   2.00000   2.00000   2.00000   2.00000
                  --------  --------  --------  --------  --------  --------
 0 C  s               0.0       0.0      22.4      46.8       3.1      27.3
 1 C  s               0.0       0.0      23.5       1.6      48.4      26.1
 2 C  s               0.0       0.0      27.7      47.4       2.0      22.4
 3 C  s               0.0       0.0      26.0       3.8      46.0      23.8
 4 F  s              11.8      10.2       0.0       0.0       0.0       0.0
 5 F  s              12.9      14.7       0.0       0.0       0.0       0.0
 6 F  s              13.7      12.9       0.0       0.0       0.0       0.0
 7 F  s              10.1      11.1       0.0       0.0       0.0       0.0
 8 F  s              13.6      15.4       0.0       0.0       0.0       0.0
 9 F  s              12.3      10.6       0.0       0.0       0.0       0.0
10 F  s              10.7      11.5       0.0       0.0       0.0       0.0
11 F  s              14.9      13.6       0.0       0.0       0.0       0.0

                     12        13        14        15        16        17   
                  -1.20658  -1.18764  -1.18764  -1.17354  -1.13606  -1.12465
                   2.00000   2.00000   2.00000   2.00000   2.00000   2.00000
                  --------  --------  --------  --------  --------  --------
 0 C  s               7.3       3.8       3.4       2.3       0.0       0.0
 0 C  pz              0.0       0.0       0.0       0.0       5.6       7.5
 0 C  px              0.4       2.6       1.5       3.5       0.0       0.0
 0 C  py              0.0       0.4       1.4       0.1       0.0       0.0
 0 C  dz2             0.1       0.2       0.2       0.2       0.0       0.0
 0 C  dxz             0.0       0.0       0.0       0.0       0.5       1.0
 1 C  s               7.3       3.4       3.8       2.3       0.0       0.0
 1 C  pz              0.0       0.0       0.0       0.0       5.6       1.6
 1 C  px              0.0       1.4       0.4       0.1       0.0       0.0
 1 C  py              0.4       1.5       2.6       3.5       0.0       0.0
 1 C  dz2             0.1       0.2       0.2       0.2       0.0       0.0
 1 C  dyz             0.0       0.0       0.0       0.0       0.5       0.2
 2 C  s               7.3       3.8       3.4       2.3       0.0       0.0
 2 C  pz              0.0       0.0       0.0       0.0       5.6       7.5
 2 C  px              0.4       2.6       1.5       3.5       0.0       0.0
 2 C  py              0.0       0.4       1.4       0.1       0.0       0.0
 2 C  dz2             0.1       0.2       0.2       0.2       0.0       0.0
 2 C  dxz             0.0       0.0       0.0       0.0       0.5       1.0
 3 C  s               7.3       3.4       3.8       2.3       0.0       0.0
 3 C  pz              0.0       0.0       0.0       0.0       5.6       1.6
 3 C  px              0.0       1.4       0.4       0.1       0.0       0.0
 3 C  py              0.4       1.5       2.6       3.5       0.0       0.0
 3 C  dz2             0.1       0.2       0.2       0.2       0.0       0.0
 3 C  dyz             0.0       0.0       0.0       0.0       0.5       0.2
 4 F  s               8.0       8.0       9.0       8.9       9.2       3.4
 4 F  pz              0.4       0.4       0.4       0.4       0.1       0.0
 4 F  py              0.2       0.1       0.1       0.1       0.1       0.0
 5 F  s               8.0       8.0       9.0       8.9       9.2       3.3
 5 F  pz              0.4       0.4       0.4       0.4       0.1       0.0
 5 F  py              0.2       0.1       0.2       0.1       0.1       0.0
 6 F  s               8.0       9.0       8.0       8.9       9.2      16.1
 6 F  pz              0.4       0.4       0.4       0.4       0.1       0.2
 6 F  px              0.2       0.2       0.1       0.1       0.1       0.2
 7 F  s               8.0       9.0       8.0       8.9       9.2      16.1
 7 F  pz              0.4       0.4       0.4       0.4       0.1       0.2
 7 F  px              0.2       0.1       0.1       0.1       0.1       0.2
 8 F  s               8.0       8.0       9.0       8.9       9.2       3.3
 8 F  pz              0.4       0.4       0.4       0.4       0.1       0.0
 8 F  py              0.2       0.1       0.2       0.1       0.1       0.0
 9 F  s               8.0       8.0       9.0       8.9       9.2       3.4
 9 F  pz              0.4       0.4       0.4       0.4       0.1       0.0
 9 F  py              0.2       0.1       0.1       0.1       0.1       0.0
10 F  s               8.0       9.0       8.0       8.9       9.2      16.1
10 F  pz              0.4       0.4       0.4       0.4       0.1       0.2
10 F  px              0.2       0.1       0.1       0.1       0.1       0.2
11 F  s               8.0       9.0       8.0       8.9       9.2      16.1
11 F  pz              0.4       0.4       0.4       0.4       0.1       0.2
11 F  px              0.2       0.2       0.1       0.1       0.1       0.2

                     18        19        20        21        22        23   
                  -1.12465  -1.11496  -0.82109  -0.65038  -0.65036  -0.58879
                   2.00000   2.00000   2.00000   2.00000   2.00000   2.00000
                  --------  --------  --------  --------  --------  --------
 0 C  s               0.0       0.0       8.2      10.9       0.0       2.4
 0 C  pz              1.6       3.5       0.0       0.0       0.0       0.0
 0 C  px              0.0       0.0      11.3       0.4       0.3       1.5
 0 C  py              0.0       0.0       0.3       0.1       9.2       0.0
 0 C  dz2             0.0       0.0       0.3       0.0       0.0       0.0
 0 C  dxz             0.2       0.7       0.0       0.0       0.0       0.0
 0 C  dxy             0.0       0.0       0.0       0.0       0.3       0.0
 1 C  s               0.0       0.0       8.2       0.0      10.9       2.4
 1 C  pz              7.5       3.5       0.0       0.0       0.0       0.0
 1 C  px              0.0       0.0       0.3       9.2       0.1       0.0
 1 C  py              0.0       0.0      11.3       0.3       0.4       1.5
 1 C  dz2             0.0       0.0       0.3       0.0       0.0       0.0
 1 C  dyz             1.0       0.7       0.0       0.0       0.0       0.0
 1 C  dxy             0.0       0.0       0.0       0.3       0.0       0.0
 2 C  s               0.0       0.0       8.2      10.9       0.0       2.4
 2 C  pz              1.6       3.5       0.0       0.0       0.0       0.0
 2 C  px              0.0       0.0      11.3       0.4       0.3       1.5
 2 C  py              0.0       0.0       0.3       0.1       9.2       0.0
 2 C  dz2             0.0       0.0       0.3       0.0       0.0       0.0
 2 C  dxz             0.2       0.7       0.0       0.0       0.0       0.0
 2 C  dxy             0.0       0.0       0.0       0.0       0.3       0.0
 3 C  s               0.0       0.0       8.2       0.0      10.9       2.4
 3 C  pz              7.5       3.5       0.0       0.0       0.0       0.0
 3 C  px              0.0       0.0       0.3       9.2       0.1       0.0
 3 C  py              0.0       0.0      11.3       0.3       0.4       1.5
 3 C  dz2             0.0       0.0       0.3       0.0       0.0       0.0
 3 C  dyz             1.0       0.7       0.0       0.0       0.0       0.0
 3 C  dxy             0.0       0.0       0.0       0.3       0.0       0.0
 4 F  s              16.1      10.2       1.6       0.0       4.1       1.8
 4 F  pz              0.2       0.1       0.2       0.0       5.7       7.1
 4 F  px              0.0       0.0       0.0       0.7       0.1       0.0
 4 F  py              0.2       0.1       0.6       0.1       3.6       1.5
 5 F  s              16.1      10.2       1.6       0.0       4.1       1.8
 5 F  pz              0.2       0.1       0.2       0.0       5.6       7.0
 5 F  px              0.0       0.0       0.0       0.7       0.1       0.0
 5 F  py              0.2       0.1       0.6       0.1       3.7       1.5
 6 F  s               3.4      10.2       1.6       4.1       0.0       1.8
 6 F  pz              0.0       0.1       0.2       5.6       0.0       7.0
 6 F  px              0.0       0.1       0.6       3.7       0.1       1.5
 6 F  py              0.0       0.0       0.0       0.1       0.7       0.0
 7 F  s               3.4      10.2       1.6       4.1       0.0       1.8
 7 F  pz              0.0       0.1       0.2       5.6       0.0       7.1
 7 F  px              0.0       0.1       0.6       3.6       0.1       1.5
 7 F  py              0.0       0.0       0.0       0.1       0.7       0.0
 8 F  s              16.1      10.2       1.6       0.0       4.1       1.8
 8 F  pz              0.2       0.1       0.2       0.0       5.6       7.0
 8 F  px              0.0       0.0       0.0       0.7       0.1       0.0
 8 F  py              0.2       0.1       0.6       0.1       3.7       1.5
 9 F  s              16.1      10.2       1.6       0.0       4.1       1.8
 9 F  pz              0.2       0.1       0.2       0.0       5.6       7.1
 9 F  px              0.0       0.0       0.0       0.7       0.1       0.0
 9 F  py              0.2       0.1       0.6       0.1       3.6       1.5
10 F  s               3.3      10.2       1.6       4.1       0.0       1.8
10 F  pz              0.0       0.1       0.2       5.6       0.0       7.1
10 F  px              0.0       0.1       0.6       3.6       0.1       1.5
10 F  py              0.0       0.0       0.0       0.1       0.7       0.0
11 F  s               3.3      10.2       1.6       4.1       0.0       1.8
11 F  pz              0.0       0.1       0.2       5.6       0.0       7.0
11 F  px              0.0       0.1       0.6       3.7       0.1       1.5
11 F  py              0.0       0.0       0.0       0.1       0.7       0.0

                     24        25        26        27        28        29   
                  -0.57783  -0.56558  -0.56557  -0.53118  -0.53118  -0.52682
                   2.00000   2.00000   2.00000   2.00000   2.00000   2.00000
                  --------  --------  --------  --------  --------  --------
 0 C  s               0.5       0.0       0.0       0.0       0.0       0.4
 0 C  pz              0.0       0.6       5.5       8.7       0.2       0.0
 0 C  px              5.6       0.4       0.0       0.0       0.0       7.9
 0 C  py              0.2      13.0       1.4       0.0       0.0       0.3
 0 C  dxz             0.0       0.0       0.0       0.2       0.0       0.0
 0 C  dyz             0.0       0.0       0.0       0.0       0.1       0.0
 0 C  dx2y2           0.0       0.0       0.0       0.0       0.0       0.3
 1 C  s               0.5       0.0       0.0       0.0       0.0       0.0
 1 C  pz              0.0       0.6       5.5       0.2       8.7       0.0
 1 C  px              0.2      13.0       1.4       0.0       0.0       8.5
 1 C  py              5.7       0.4       0.0       0.0       0.0       0.3
 1 C  dxz             0.0       0.0       0.0       0.1       0.0       0.0
 1 C  dyz             0.0       0.0       0.0       0.0       0.2       0.0
 2 C  s               0.5       0.0       0.0       0.0       0.0       0.4
 2 C  pz              0.0       0.6       5.5       8.7       0.2       0.0
 2 C  px              5.7       0.4       0.0       0.0       0.0       7.9
 2 C  py              0.2      13.0       1.4       0.0       0.0       0.3
 2 C  dxz             0.0       0.0       0.0       0.2       0.0       0.0
 2 C  dyz             0.0       0.0       0.0       0.0       0.1       0.0
 2 C  dx2y2           0.0       0.0       0.0       0.0       0.0       0.3
 3 C  s               0.5       0.0       0.0       0.0       0.0       0.0
 3 C  pz              0.0       0.6       5.5       0.2       8.7       0.0
 3 C  px              0.2      13.0       1.4       0.0       0.0       8.5
 3 C  py              5.7       0.4       0.0       0.0       0.0       0.3
 3 C  dxz             0.0       0.0       0.0       0.1       0.0       0.0
 3 C  dyz             0.0       0.0       0.0       0.0       0.2       0.0
 4 F  s               1.3       0.2       1.4       0.0       2.1       0.0
 4 F  pz              7.7       0.2       2.2       0.2       7.5       0.0
 4 F  px              0.0       4.9       0.1       0.1       0.4       4.3
 4 F  py              0.2       0.1       5.2       0.3      10.3       0.1
 5 F  s               1.3       0.2       1.4       0.0       1.9       0.0
 5 F  pz              7.8       0.2       2.2       0.1       6.2       0.0
 5 F  px              0.0       3.9       1.2       0.1       0.4       4.4
 5 F  py              0.3       1.2       4.2       0.3      10.7       0.1
 6 F  s               1.3       0.2       1.4       1.9       0.0       0.5
 6 F  pz              7.7       0.2       2.2       6.2       0.1      11.2
 6 F  px              0.3       1.2       4.2      10.7       0.3       0.2
 6 F  py              0.0       3.9       1.2       0.4       0.1       0.0
 7 F  s               1.3       0.2       1.4       2.1       0.0       0.4
 7 F  pz              7.7       0.2       2.2       7.5       0.2      10.0
 7 F  px              0.2       0.1       5.2      10.3       0.3       0.5
 7 F  py              0.0       4.9       0.1       0.4       0.1       0.0
 8 F  s               1.3       0.2       1.4       0.0       1.9       0.0
 8 F  pz              7.8       0.2       2.2       0.1       6.2       0.0
 8 F  px              0.0       3.9       1.2       0.1       0.4       4.4
 8 F  py              0.3       1.2       4.2       0.3      10.7       0.1
 9 F  s               1.3       0.2       1.4       0.0       2.1       0.0
 9 F  pz              7.7       0.2       2.2       0.2       7.5       0.0
 9 F  px              0.0       4.9       0.1       0.1       0.4       4.3
 9 F  py              0.2       0.1       5.2       0.3      10.3       0.1
10 F  s               1.3       0.2       1.4       2.1       0.0       0.4
10 F  pz              7.7       0.2       2.2       7.5       0.2      10.0
10 F  px              0.2       0.1       5.2      10.3       0.3       0.5
10 F  py              0.0       4.9       0.1       0.4       0.1       0.0
11 F  s               1.3       0.2       1.4       1.9       0.0       0.5
11 F  pz              7.7       0.2       2.2       6.2       0.1      11.2
11 F  px              0.3       1.2       4.2      10.7       0.3       0.2
11 F  py              0.0       3.9       1.2       0.4       0.1       0.0

                     30        31        32        33        34        35   
                  -0.52679  -0.50936  -0.43239  -0.43239  -0.42376  -0.41916
                   2.00000   2.00000   2.00000   2.00000   2.00000   2.00000
                  --------  --------  --------  --------  --------  --------
 0 C  s               0.0       0.0       0.1       0.5       0.3       0.0
 0 C  pz              0.0       3.7       0.0       0.0       0.0       0.0
 0 C  px              0.3       0.0       0.4       0.9       0.5       0.0
 0 C  py              8.5       0.0       1.3       0.4       0.0       1.6
 0 C  dz2             0.0       0.0       0.1       0.7       0.6       0.0
 0 C  dxz             0.0       0.4       0.0       0.0       0.0       0.0
 0 C  dxy             0.0       0.0       0.4       0.1       0.0       0.4
 1 C  s               0.4       0.0       0.5       0.1       0.3       0.0
 1 C  pz              0.0       3.7       0.0       0.0       0.0       0.0
 1 C  px              0.3       0.0       0.4       1.3       0.0       1.6
 1 C  py              7.9       0.0       0.9       0.4       0.5       0.0
 1 C  dz2             0.0       0.0       0.7       0.1       0.6       0.0
 1 C  dyz             0.0       0.4       0.0       0.0       0.0       0.0
 1 C  dx2y2           0.3       0.0       0.0       0.1       0.1       0.0
 1 C  dxy             0.0       0.0       0.1       0.4       0.0       0.4
 2 C  s               0.0       0.0       0.1       0.5       0.3       0.0
 2 C  pz              0.0       3.7       0.0       0.0       0.0       0.0
 2 C  px              0.3       0.0       0.4       0.9       0.5       0.0
 2 C  py              8.5       0.0       1.3       0.4       0.0       1.6
 2 C  dz2             0.0       0.0       0.1       0.7       0.6       0.0
 2 C  dxz             0.0       0.4       0.0       0.0       0.0       0.0
 2 C  dxy             0.0       0.0       0.4       0.1       0.0       0.4
 3 C  s               0.4       0.0       0.5       0.1       0.3       0.0
 3 C  pz              0.0       3.7       0.0       0.0       0.0       0.0
 3 C  px              0.3       0.0       0.4       1.3       0.0       1.6
 3 C  py              7.9       0.0       0.9       0.4       0.5       0.0
 3 C  dz2             0.0       0.0       0.7       0.1       0.6       0.0
 3 C  dyz             0.0       0.4       0.0       0.0       0.0       0.0
 3 C  dx2y2           0.3       0.0       0.0       0.1       0.1       0.0
 3 C  dxy             0.0       0.0       0.1       0.4       0.0       0.4
 4 F  s               0.4       0.8       0.0       0.0       0.0       0.0
 4 F  pz             10.0       4.5       1.8       0.3       2.1       0.0
 4 F  px              0.0       0.2       2.6       6.4       0.3      11.7
 4 F  py              0.5       5.1       8.5       2.9       9.4       0.3
 5 F  s               0.5       0.8       0.0       0.0       0.0       0.0
 5 F  pz             11.2       4.3       1.9       0.3       2.1       0.0
 5 F  px              0.0       0.2       2.6       6.5       0.3      10.6
 5 F  py              0.2       5.2       8.4       2.9       9.3       0.3
 6 F  s               0.0       0.8       0.0       0.0       0.0       0.0
 6 F  pz              0.0       4.3       0.3       1.9       2.1       0.0
 6 F  px              0.1       5.2       2.9       8.4       9.3       0.3
 6 F  py              4.4       0.2       6.5       2.6       0.3      10.6
 7 F  s               0.0       0.8       0.0       0.0       0.0       0.0
 7 F  pz              0.0       4.5       0.3       1.8       2.1       0.0
 7 F  px              0.1       5.1       2.9       8.5       9.4       0.3
 7 F  py              4.3       0.2       6.4       2.6       0.3      11.7
 8 F  s               0.5       0.8       0.0       0.0       0.0       0.0
 8 F  pz             11.2       4.3       1.9       0.3       2.1       0.0
 8 F  px              0.0       0.2       2.6       6.5       0.3      10.6
 8 F  py              0.2       5.2       8.4       2.9       9.3       0.3
 9 F  s               0.4       0.8       0.0       0.0       0.0       0.0
 9 F  pz             10.0       4.5       1.8       0.3       2.1       0.0
 9 F  px              0.0       0.2       2.6       6.4       0.3      11.7
 9 F  py              0.5       5.1       8.5       2.9       9.4       0.3
10 F  s               0.0       0.8       0.0       0.0       0.0       0.0
10 F  pz              0.0       4.5       0.3       1.8       2.1       0.0
10 F  px              0.1       5.1       2.9       8.5       9.4       0.3
10 F  py              4.3       0.2       6.4       2.6       0.3      11.7
11 F  s               0.0       0.8       0.0       0.0       0.0       0.0
11 F  pz              0.0       4.3       0.3       1.9       2.1       0.0
11 F  px              0.1       5.2       2.9       8.4       9.3       0.3
11 F  py              4.4       0.2       6.5       2.6       0.3      10.6

                     36        37        38        39        40        41   
                  -0.41699  -0.41645  -0.40275  -0.40275  -0.39486  -0.37878
                   2.00000   2.00000   2.00000   2.00000   2.00000   2.00000
                  --------  --------  --------  --------  --------  --------
 0 C  s               0.4       0.0       0.0       0.0       0.0       0.0
 0 C  pz              0.0       0.0       0.5       0.3       1.1       0.0
 0 C  px              1.1       0.0       0.0       0.0       0.0       0.0
 0 C  dz2             0.9       0.0       0.0       0.0       0.0       0.0
 0 C  dxz             0.0       0.0       0.1       0.2       0.5       0.0
 0 C  dyz             0.0       0.5       0.3       0.3       0.0       0.3
 0 C  dx2y2           0.2       0.0       0.0       0.0       0.0       0.0
 1 C  s               0.4       0.0       0.0       0.0       0.0       0.0
 1 C  pz              0.0       0.0       0.3       0.5       1.1       0.0
 1 C  py              1.1       0.0       0.0       0.0       0.0       0.0
 1 C  dz2             0.9       0.0       0.0       0.0       0.0       0.0
 1 C  dxz             0.0       0.5       0.3       0.3       0.0       0.3
 1 C  dyz             0.0       0.0       0.2       0.1       0.5       0.0
 1 C  dx2y2           0.2       0.0       0.0       0.0       0.0       0.0
 2 C  s               0.4       0.0       0.0       0.0       0.0       0.0
 2 C  pz              0.0       0.0       0.5       0.3       1.1       0.0
 2 C  px              1.1       0.0       0.0       0.0       0.0       0.0
 2 C  dz2             0.9       0.0       0.0       0.0       0.0       0.0
 2 C  dxz             0.0       0.0       0.1       0.2       0.5       0.0
 2 C  dyz             0.0       0.5       0.3       0.3       0.0       0.3
 2 C  dx2y2           0.2       0.0       0.0       0.0       0.0       0.0
 3 C  s               0.4       0.0       0.0       0.0       0.0       0.0
 3 C  pz              0.0       0.0       0.3       0.5       1.1       0.0
 3 C  py              1.1       0.0       0.0       0.0       0.0       0.0
 3 C  dz2             0.9       0.0       0.0       0.0       0.0       0.0
 3 C  dxz             0.0       0.5       0.3       0.3       0.0       0.3
 3 C  dyz             0.0       0.0       0.2       0.1       0.5       0.0
 3 C  dx2y2           0.2       0.0       0.0       0.0       0.0       0.0
 4 F  pz              0.9       0.0       1.4       2.0       8.4       0.0
 4 F  px              0.3      11.3      10.8       8.5       0.1      12.0
 4 F  py             10.0       0.4       1.4       0.1       3.2       0.4
 5 F  pz              1.0       0.0       1.4       2.0       8.5       0.0
 5 F  px              0.3      12.5      10.8       8.4       0.1      12.0
 5 F  py              9.9       0.4       1.4       0.1       3.1       0.4
 6 F  pz              1.0       0.0       2.0       1.4       8.5       0.0
 6 F  px              9.9       0.4       0.1       1.4       3.1       0.4
 6 F  py              0.3      12.4       8.4      10.8       0.1      12.0
 7 F  pz              0.9       0.0       2.0       1.4       8.4       0.0
 7 F  px             10.0       0.4       0.1       1.4       3.2       0.4
 7 F  py              0.3      11.3       8.5      10.9       0.1      12.0
 8 F  pz              1.0       0.0       1.4       2.0       8.5       0.0
 8 F  px              0.3      12.5      10.8       8.4       0.1      12.0
 8 F  py              9.9       0.4       1.4       0.1       3.1       0.4
 9 F  pz              0.9       0.0       1.4       2.0       8.4       0.0
 9 F  px              0.3      11.3      10.8       8.5       0.1      12.0
 9 F  py             10.0       0.4       1.4       0.1       3.2       0.4
10 F  pz              0.9       0.0       2.0       1.4       8.4       0.0
10 F  px             10.0       0.4       0.1       1.4       3.2       0.4
10 F  py              0.3      11.3       8.5      10.8       0.1      12.0
11 F  pz              1.0       0.0       2.0       1.4       8.5       0.0
11 F  px              9.9       0.4       0.1       1.4       3.1       0.4
11 F  py              0.3      12.5       8.4      10.8       0.1      12.0

                     42        43        44        45        46        47   
                  -0.37324  -0.37323  -0.36613  -0.33434  -0.33430  -0.27749
                   2.00000   2.00000   2.00000   2.00000   2.00000   2.00000
                  --------  --------  --------  --------  --------  --------
 0 C  s               0.0       0.0       0.0       4.4       0.0       0.0
 0 C  pz              0.1       0.1       0.0       0.0       0.0       0.0
 0 C  px              0.0       0.0       0.0       6.5       0.1       0.3
 0 C  py              0.0       0.0       0.0       0.1       5.0      10.2
 0 C  dz2             0.0       0.0       0.0       0.7       0.0       0.0
 0 C  dxz             0.3       0.1       0.2       0.0       0.0       0.0
 0 C  dx2y2           0.0       0.0       0.0       0.1       0.2       0.1
 0 C  dxy             0.0       0.0       0.0       0.0       1.3       0.6
 1 C  s               0.0       0.0       0.0       0.0       4.4       0.0
 1 C  pz              0.1       0.1       0.0       0.0       0.0       0.0
 1 C  px              0.0       0.0       0.0       5.0       0.1      10.2
 1 C  py              0.0       0.0       0.0       0.1       6.5       0.3
 1 C  dz2             0.0       0.0       0.0       0.0       0.7       0.0
 1 C  dyz             0.1       0.3       0.2       0.0       0.0       0.0
 1 C  dx2y2           0.0       0.0       0.0       0.2       0.1       0.1
 1 C  dxy             0.0       0.0       0.0       1.3       0.0       0.6
 2 C  s               0.0       0.0       0.0       4.4       0.0       0.0
 2 C  pz              0.1       0.1       0.0       0.0       0.0       0.0
 2 C  px              0.0       0.0       0.0       6.5       0.1       0.3
 2 C  py              0.0       0.0       0.0       0.1       5.1      10.2
 2 C  dz2             0.0       0.0       0.0       0.7       0.0       0.0
 2 C  dxz             0.3       0.1       0.2       0.0       0.0       0.0
 2 C  dx2y2           0.0       0.0       0.0       0.1       0.2       0.1
 2 C  dxy             0.0       0.0       0.0       0.0       1.3       0.6
 3 C  s               0.0       0.0       0.0       0.0       4.4       0.0
 3 C  pz              0.1       0.1       0.0       0.0       0.0       0.0
 3 C  px              0.0       0.0       0.0       5.0       0.1      10.2
 3 C  py              0.0       0.0       0.0       0.1       6.5       0.3
 3 C  dz2             0.0       0.0       0.0       0.0       0.7       0.0
 3 C  dyz             0.1       0.3       0.2       0.0       0.0       0.0
 3 C  dx2y2           0.0       0.0       0.0       0.2       0.1       0.1
 3 C  dxy             0.0       0.0       0.0       1.3       0.0       0.6
 4 F  pz              4.4       6.9       6.6       0.0       0.1       0.0
 4 F  px              3.7       0.8       0.2       8.3       0.1       6.7
 4 F  py              2.4       6.3       5.6       0.1       7.1       0.2
 5 F  pz              4.5       7.1       6.7       0.0       0.1       0.0
 5 F  px              3.7       0.8       0.2       8.3       0.1       6.7
 5 F  py              2.4       6.2       5.5       0.1       7.1       0.2
 6 F  pz              7.1       4.5       6.7       0.1       0.0       0.0
 6 F  px              6.2       2.4       5.5       7.1       0.1       0.2
 6 F  py              0.8       3.7       0.2       0.1       8.3       6.7
 7 F  pz              6.9       4.4       6.6       0.1       0.0       0.0
 7 F  px              6.3       2.4       5.6       7.1       0.1       0.2
 7 F  py              0.8       3.7       0.2       0.1       8.3       6.7
 8 F  pz              4.5       7.1       6.7       0.0       0.1       0.0
 8 F  px              3.7       0.8       0.2       8.3       0.1       6.7
 8 F  py              2.4       6.2       5.5       0.1       7.1       0.2
 9 F  pz              4.4       6.9       6.6       0.0       0.1       0.0
 9 F  px              3.7       0.8       0.2       8.3       0.1       6.7
 9 F  py              2.4       6.3       5.6       0.1       7.1       0.2
10 F  pz              6.9       4.4       6.6       0.1       0.0       0.0
10 F  px              6.3       2.4       5.6       7.1       0.1       0.2
10 F  py              0.8       3.7       0.2       0.1       8.3       6.7
11 F  pz              7.1       4.5       6.7       0.1       0.0       0.0
11 F  px              6.2       2.4       5.5       7.1       0.1       0.2
11 F  py              0.8       3.7       0.2       0.1       8.3       6.7

                     48        49        50        51        52        53   
                  -0.07327   0.02709   0.08331   0.08334   0.11950   0.11954
                   0.00000   0.00000   0.00000   0.00000   0.00000   0.00000
                  --------  --------  --------  --------  --------  --------
 0 C  s               0.0       7.2       0.0       3.8       0.0       0.0
 0 C  pz             11.3       0.0       0.0       0.0      27.8       0.3
 0 C  px              0.0       5.7       0.1      16.5       0.0       0.0
 0 C  py              0.0       0.2      15.0       0.1       0.0       0.0
 0 C  dz2             0.0       0.8       0.0       1.2       0.0       0.0
 0 C  dxz             3.6       0.0       0.0       0.0       4.0       0.0
 0 C  dyz             0.1       0.0       0.0       0.0       0.1       1.4
 0 C  dx2y2           0.0       2.2       0.5       0.7       0.0       0.0
 0 C  dxy             0.0       0.3       2.8       0.2       0.0       0.0
 1 C  s               0.0       7.2       3.8       0.0       0.0       0.0
 1 C  pz             11.3       0.0       0.0       0.0       0.3      27.8
 1 C  px              0.0       0.2       0.1      15.0       0.0       0.0
 1 C  py              0.0       5.7      16.5       0.1       0.0       0.0
 1 C  dz2             0.0       0.8       1.2       0.0       0.0       0.0
 1 C  dxz             0.1       0.0       0.0       0.0       1.4       0.1
 1 C  dyz             3.6       0.0       0.0       0.0       0.0       4.0
 1 C  dx2y2           0.0       2.2       0.7       0.5       0.0       0.0
 1 C  dxy             0.0       0.3       0.2       2.8       0.0       0.0
 2 C  s               0.0       7.2       0.0       3.8       0.0       0.0
 2 C  pz             11.3       0.0       0.0       0.0      27.8       0.3
 2 C  px              0.0       5.7       0.1      16.5       0.0       0.0
 2 C  py              0.0       0.2      15.1       0.1       0.0       0.0
 2 C  dz2             0.0       0.8       0.0       1.2       0.0       0.0
 2 C  dxz             3.6       0.0       0.0       0.0       4.0       0.0
 2 C  dyz             0.1       0.0       0.0       0.0       0.1       1.4
 2 C  dx2y2           0.0       2.2       0.5       0.7       0.0       0.0
 2 C  dxy             0.0       0.3       2.8       0.2       0.0       0.0
 3 C  s               0.0       7.2       3.8       0.0       0.0       0.0
 3 C  pz             11.3       0.0       0.0       0.0       0.3      27.8
 3 C  px              0.0       0.2       0.1      15.0       0.0       0.0
 3 C  py              0.0       5.7      16.5       0.1       0.0       0.0
 3 C  dz2             0.0       0.8       1.2       0.0       0.0       0.0
 3 C  dxz             0.1       0.0       0.0       0.0       1.4       0.1
 3 C  dyz             3.6       0.0       0.0       0.0       0.0       4.0
 3 C  dx2y2           0.0       2.2       0.7       0.5       0.0       0.0
 3 C  dxy             0.0       0.3       0.2       2.8       0.0       0.0
 4 F  s               0.8       1.5       0.3       0.0       0.0       2.1
 4 F  pz              0.3       2.6       1.0       0.0       0.0       1.1
 4 F  px              0.1       0.0       0.0       2.4       0.5       0.1
 4 F  py              3.7       0.2       0.4       0.0       0.0       4.1
 4 F  dxz             0.0       0.0       0.0       0.1       0.0       0.0
 4 F  dyz             0.1       0.0       0.0       0.0       0.0       0.3
 5 F  s               0.8       1.5       0.3       0.0       0.0       2.0
 5 F  pz              0.3       2.6       1.0       0.0       0.0       1.0
 5 F  px              0.1       0.0       0.0       2.4       0.4       0.1
 5 F  py              3.7       0.2       0.4       0.0       0.0       4.1
 5 F  dxz             0.0       0.0       0.0       0.1       0.0       0.0
 5 F  dyz             0.1       0.0       0.0       0.0       0.0       0.3
 6 F  s               0.8       1.5       0.0       0.3       2.0       0.0
 6 F  pz              0.3       2.6       0.0       1.0       1.0       0.0
 6 F  px              3.7       0.2       0.0       0.4       4.1       0.0
 6 F  py              0.1       0.0       2.4       0.0       0.1       0.4
 6 F  dxz             0.1       0.0       0.0       0.0       0.3       0.0
 6 F  dyz             0.0       0.0       0.1       0.0       0.0       0.0
 7 F  s               0.8       1.5       0.0       0.3       2.1       0.0
 7 F  pz              0.3       2.6       0.0       1.0       1.1       0.0
 7 F  px              3.7       0.2       0.0       0.4       4.1       0.0
 7 F  py              0.1       0.0       2.4       0.0       0.1       0.5
 7 F  dxz             0.1       0.0       0.0       0.0       0.3       0.0
 7 F  dyz             0.0       0.0       0.1       0.0       0.0       0.0
 8 F  s               0.8       1.5       0.3       0.0       0.0       2.0
 8 F  pz              0.3       2.6       1.0       0.0       0.0       1.0
[...]
                   0.00000   0.00000   0.00000   0.00000   0.00000   0.00000
                  --------  --------  --------  --------  --------  --------
 0 C  s               1.6       0.0       0.9       0.0       0.0       0.0
 0 C  pz              0.0       1.4       0.0       0.0       2.5       1.1
 0 C  px              0.9       0.0       0.7       0.0       0.0       0.0
 0 C  dz2             0.0       0.0       3.7       0.0       0.0       0.0
 0 C  dxz             0.0       1.6       0.0       0.0       4.6       4.2
 0 C  dyz             0.0       0.0       0.0       0.3       0.1       0.1
 0 C  dx2y2           1.7       0.0       0.4       0.0       0.0       0.0
 0 C  dxy             0.2       0.0       0.0       0.0       0.0       0.0
 1 C  s               1.6       0.0       0.9       0.0       0.0       0.0
 1 C  pz              0.0       1.4       0.0       2.5       0.0       1.1
 1 C  py              0.9       0.0       0.7       0.0       0.0       0.0
 1 C  dz2             0.0       0.0       3.7       0.0       0.0       0.0
 1 C  dxz             0.0       0.0       0.0       0.1       0.3       0.1
 1 C  dyz             0.0       1.6       0.0       4.6       0.0       4.2
 1 C  dx2y2           1.7       0.0       0.4       0.0       0.0       0.0
 1 C  dxy             0.2       0.0       0.0       0.0       0.0       0.0
 2 C  s               1.6       0.0       0.9       0.0       0.0       0.0
 2 C  pz              0.0       1.4       0.0       0.0       2.5       1.1
 2 C  px              0.9       0.0       0.7       0.0       0.0       0.0
 2 C  dz2             0.0       0.0       3.7       0.0       0.0       0.0
 2 C  dxz             0.0       1.6       0.0       0.0       4.6       4.2
 2 C  dyz             0.0       0.0       0.0       0.3       0.1       0.1
 2 C  dx2y2           1.7       0.0       0.4       0.0       0.0       0.0
 2 C  dxy             0.2       0.0       0.0       0.0       0.0       0.0
 3 C  s               1.6       0.0       0.9       0.0       0.0       0.0
 3 C  pz              0.0       1.4       0.0       2.5       0.0       1.1
 3 C  py              0.9       0.0       0.7       0.0       0.0       0.0
 3 C  dz2             0.0       0.0       3.7       0.0       0.0       0.0
 3 C  dxz             0.0       0.0       0.0       0.1       0.3       0.1
 3 C  dyz             0.0       1.6       0.0       4.6       0.0       4.2
 3 C  dx2y2           1.7       0.0       0.4       0.0       0.0       0.0
 3 C  dxy             0.2       0.0       0.0       0.0       0.0       0.0
 4 F  s               0.6       1.1       0.1       2.3       0.0       0.6
 4 F  pz              0.3       0.3       0.0       0.7       0.0       0.4
 4 F  py              0.0       0.2       0.3       0.3       0.0       0.1
 4 F  dz2             7.0       2.5       1.7       4.8       0.1       3.5
 4 F  dxz             0.1       0.2       0.1       0.4       0.0       0.1
 4 F  dyz             1.9       6.2       4.6      10.7       0.3       4.9
 4 F  dx2y2           0.1       0.8       2.3       0.8       0.1       0.2
 4 F  dxy             0.0       0.1       0.3       0.2       0.5       0.0
 5 F  s               0.6       1.0       0.2       2.3       0.0       0.6
 5 F  pz              0.4       0.3       0.0       0.7       0.0       0.4
 5 F  py              0.0       0.2       0.3       0.3       0.0       0.1
 5 F  dz2             7.2       2.4       1.7       4.6       0.1       3.3
 5 F  dxz             0.1       0.2       0.1       0.4       0.0       0.2
 5 F  dyz             2.2       5.7       4.8      10.9       0.3       5.1
 5 F  dx2y2           0.1       0.7       2.5       0.8       0.2       0.2
 5 F  dxy             0.0       0.1       0.3       0.2       0.5       0.0
 6 F  s               0.6       1.0       0.2       0.0       2.3       0.6
 6 F  pz              0.4       0.3       0.0       0.0       0.7       0.4
 6 F  px              0.0       0.2       0.3       0.0       0.3       0.1
 6 F  dz2             7.2       2.4       1.7       0.1       4.6       3.3
 6 F  dxz             2.1       5.7       4.9       0.3      10.9       5.1
 6 F  dyz             0.1       0.2       0.1       0.0       0.4       0.2
 6 F  dx2y2           0.1       0.7       2.5       0.2       0.8       0.2
 6 F  dxy             0.0       0.1       0.3       0.5       0.2       0.0
 7 F  s               0.6       1.1       0.1       0.0       2.3       0.6
 7 F  pz              0.3       0.3       0.0       0.0       0.7       0.4
 7 F  px              0.0       0.2       0.3       0.0       0.3       0.1
 7 F  dz2             7.0       2.5       1.7       0.1       4.8       3.5
 7 F  dxz             1.8       6.2       4.6       0.3      10.7       4.9
 7 F  dyz             0.1       0.2       0.1       0.0       0.4       0.1
 7 F  dx2y2           0.1       0.8       2.3       0.1       0.8       0.2
 7 F  dxy             0.0       0.1       0.3       0.5       0.2       0.0
 8 F  s               0.6       1.0       0.2       2.3       0.0       0.6
 8 F  pz              0.4       0.3       0.0       0.7       0.0       0.4
 8 F  py              0.0       0.2       0.3       0.3       0.0       0.1
 8 F  dz2             7.2       2.4       1.7       4.6       0.1       3.3
 8 F  dxz             0.1       0.2       0.1       0.4       0.0       0.2
 8 F  dyz             2.2       5.7       4.8      10.9       0.3       5.1
 8 F  dx2y2           0.1       0.7       2.5       0.8       0.2       0.2
 8 F  dxy             0.0       0.1       0.3       0.2       0.5       0.0
 9 F  s               0.6       1.1       0.1       2.3       0.0       0.6
 9 F  pz              0.3       0.3       0.0       0.7       0.0       0.4
 9 F  py              0.0       0.2       0.3       0.3       0.0       0.1
 9 F  dz2             7.0       2.5       1.7       4.8       0.1       3.5
 9 F  dxz             0.1       0.2       0.1       0.4       0.0       0.1
 9 F  dyz             1.9       6.2       4.6      10.7       0.3       4.9
 9 F  dx2y2           0.1       0.8       2.3       0.8       0.1       0.2
 9 F  dxy             0.0       0.1       0.3       0.2       0.5       0.0
10 F  s               0.6       1.1       0.1       0.0       2.3       0.6
10 F  pz              0.3       0.3       0.0       0.0       0.7       0.4
10 F  px              0.0       0.2       0.3       0.0       0.3       0.1
10 F  dz2             7.1       2.5       1.7       0.1       4.8       3.5
10 F  dxz             1.9       6.2       4.6       0.3      10.7       4.9
10 F  dyz             0.1       0.2       0.1       0.0       0.4       0.1
10 F  dx2y2           0.1       0.8       2.3       0.1       0.8       0.2
10 F  dxy             0.0       0.1       0.3       0.5       0.2       0.0
11 F  s               0.6       1.0       0.2       0.0       2.3       0.6
11 F  pz              0.4       0.3       0.0       0.0       0.7       0.4
11 F  px              0.0       0.2       0.3       0.0       0.3       0.1
11 F  dz2             7.2       2.4       1.7       0.1       4.6       3.3
11 F  dxz             2.2       5.7       4.9       0.3      10.9       5.1
11 F  dyz             0.1       0.2       0.1       0.0       0.4       0.2
11 F  dx2y2           0.1       0.7       2.5       0.2       0.8       0.2
11 F  dxy             0.0       0.1       0.3       0.5       0.2       0.0



                      *****************************
                      * MAYER POPULATION ANALYSIS *
                      *****************************

  NA   - Mulliken gross atomic population
  ZA   - Total nuclear charge
  QA   - Mulliken gross atomic charge
  VA   - Mayer's total valence
  BVA  - Mayer's bonded valence
  FA   - Mayer's free valence

  ATOM       NA         ZA         QA         VA         BVA        FA
  0 C      5.7573     6.0000     0.2427     4.2435     4.2435     0.0000
  1 C      5.7580     6.0000     0.2420     4.2436     4.2436     0.0000
  2 C      5.7571     6.0000     0.2429     4.2435     4.2435     0.0000
  3 C      5.7580     6.0000     0.2420     4.2436     4.2436    -0.0000
  4 F      9.1210     9.0000    -0.1210     1.2584     1.2584     0.0000
  5 F      9.1214     9.0000    -0.1214     1.2584     1.2584     0.0000
  6 F      9.1214     9.0000    -0.1214     1.2584     1.2584     0.0000
  7 F      9.1210     9.0000    -0.1210     1.2585     1.2585    -0.0000
  8 F      9.1214     9.0000    -0.1214     1.2584     1.2584    -0.0000
  9 F      9.1210     9.0000    -0.1210     1.2584     1.2584    -0.0000
 10 F      9.1210     9.0000    -0.1210     1.2585     1.2585     0.0000
 11 F      9.1214     9.0000    -0.1214     1.2584     1.2584    -0.0000

  Mayer bond orders larger than 0.100000
B(  0-C ,  1-C ) :   0.9394 B(  0-C ,  3-C ) :   0.9394 B(  0-C , 10-F ) :   1.1653 
B(  0-C , 11-F ) :   1.1636 B(  1-C ,  2-C ) :   0.9395 B(  1-C ,  8-F ) :   1.1635 
B(  1-C ,  9-F ) :   1.1652 B(  2-C ,  3-C ) :   0.9395 B(  2-C ,  6-F ) :   1.1636 
B(  2-C ,  7-F ) :   1.1652 B(  3-C ,  4-F ) :   1.1652 B(  3-C ,  5-F ) :   1.1635 


-------
TIMINGS
-------

Total SCF time: 0 days 0 hours 0 min 8 sec 

Total time                  ....       8.379 sec
Sum of individual times     ....       7.932 sec  ( 94.7%)

SCF preparation             ....       0.181 sec  (  2.2%)
Fock matrix formation       ....       6.820 sec  ( 81.4%)
  Startup                   ....       0.052 sec  (  0.8% of F)
  Split-RI-J                ....       2.230 sec  ( 32.7% of F)
  XC integration            ....       4.084 sec  ( 59.9% of F)
    XC Preparation          ....       0.000 sec  (  0.0% of XC)
    Basis function eval.    ....       0.960 sec  ( 23.5% of XC)
    Density eval.           ....       0.513 sec  ( 12.6% of XC)
    XC-Functional eval.     ....       0.252 sec  (  6.2% of XC)
    XC-Potential eval.      ....       0.671 sec  ( 16.4% of XC)
Diagonalization             ....       0.000 sec  (  0.0%)
Density matrix formation    ....       0.176 sec  (  2.1%)
Total Energy calculation    ....       0.029 sec  (  0.3%)
Population analysis         ....       0.084 sec  (  1.0%)
Orbital Transformation      ....       0.044 sec  (  0.5%)
Orbital Orthonormalization  ....       0.000 sec  (  0.0%)
DIIS solution               ....       0.422 sec  (  5.0%)
  MO trafo                  ....       0.000 sec  (  0.0 % of DIIS)
  Orb grad                  ....       0.000 sec  (  0.0 % of DIIS)
  Energy W gradient         ....       0.000 sec  (  0.0 % of DIIS)
  DIIS error                ....       0.004 sec  (  0.8 % of DIIS)
  DIIS work                 ....       0.384 sec  ( 90.9 % of DIIS)
  Form Q                    ....       0.000 sec  (  0.0 % of DIIS)
  Form QpQm                 ....       0.000 sec  (  0.0 % of DIIS)
  Exp/Cayley                ....       0.000 sec  (  0.0 % of DIIS)
  Orb update                ....       0.000 sec  (  0.0 % of DIIS)
  Wake-sleep                ....       0.011 sec  (  2.6 % of DIIS)
SOSCF solution              ....       0.175 sec  (  2.1%)
  MO trafo                  ....       0.066 sec  ( 37.6 % of SOSCF)
  Orb grad                  ....       0.002 sec  (  1.4 % of SOSCF)
  Rot update                ....       0.071 sec  ( 40.6 % of SOSCF)
  Step                      ....       0.036 sec  ( 20.4 % of SOSCF)
Finished LeanSCF after   8.7 sec

Maximum memory used throughout the entire LEANSCF-calculation: 13.6 MB


-------------------------------------------------------------------------------
                          DFT DISPERSION CORRECTION                            
                                                                               
                                DFTD4 V3.4.0                                   
-------------------------------------------------------------------------------
The PBE functional is recognized
Active option DFTDOPT                   ...         5   

-------------------------   ----------------
Dispersion correction           -0.011892411
-------------------------   ----------------

------------------   -----------------
gCP correction             0.111810806
------------------   -----------------

-------------------------   --------------------
FINAL SINGLE POINT ENERGY      -949.377794041694
-------------------------   --------------------


------------------------------------------------------------------------------
                              ORCA PROPERTY CALCULATIONS
------------------------------------------------------------------------------

GBWName                                 ... sp.gbw
Number of atoms                         ...     12
Number of basis functions               ...    168
Max core memory                         ...   1024 MB

Electric properties:
Dipole moment                           ... YES
Quadrupole moment                       ...  NO
Static polarizability (Dipole/Dipole)   ...  NO
Static polarizability (Dipole/Quad.)    ...  NO
Static polarizability (Quad./Quad.)     ...  NO
Static polarizability (Velocity)        ...  NO

Atomic electric properties:
Dipole moment                           ...  NO
Quadrupole moment                       ...  NO
Static polarizability                   ...  NO

Choice of electric origin               ... Center of mass
Position of electric origin             ...     0.000000     0.000000    -0.000000

General magnetic properties:
Magnetizability                         ...  NO

EPR properties:
g-Tensor (aka g-matrix)                 ...  NO
Zero-Field splitting spin-orbit         ...  NO
Zero-field splitting spin-spin          ...  NO
Hyperfine couplings                     ...  NO (   0 nuclei)
Quadrupole couplings                    ...  NO (   0 nuclei)
Contact density                         ...  NO (   0 nuclei)

NMR properties:
Chemical shifts                         ...  NO (   0 nuclei)
Spin-rotation constants                 ...  NO (   0 nuclei)
Spin-spin couplings                     ...  NO (   0 nuclei,    0 pairs)

Choice of magnetic origin               ... GIAO
Position of magnetic origin             ...     0.000000     0.000000     0.000000

Properties with geometric perturbations:
SCF Hessian                             ...  NO
IR spectrum                             ...  NO
VCD spectrum                            ...  NO
X-ray spectroscopy properties:
SCF XES/XAS/RIXS spectra                ...  NO


-------------
DIPOLE MOMENT
-------------

Method             : SCF
Type of density    : Electron Density
Multiplicity       :   1
Irrep              :   0
Energy             :  -949.4777124370950787 Eh
Relativity type    : 
Basis              : AO
                                X                 Y                 Z
Electronic contribution:      0.000034257       0.000026669      -0.000003621
Nuclear contribution   :      0.000072707       0.000023333      -0.000004761
                        -----------------------------------------
Total Dipole Moment    :      0.000106964       0.000050002      -0.000008383
                        -----------------------------------------
Magnitude (a.u.)       :      0.000118371
Magnitude (Debye)      :      0.000300876



--------------------
Rotational spectrum 
--------------------
 
Rotational constants in cm-1:             0.035198             0.035194             0.027995 
Rotational constants in MHz :          1055.219953          1055.094233           839.277575 

Dipole components along the rotational axes: 
x,y,z [a.u.] :     0.000107    -0.000050    -0.000008 
x,y,z [Debye]:     0.000272    -0.000127    -0.000021 

 

Dipole moment calculation done in   0.0 sec 

Maximum memory used throughout the entire PROP-calculation: 9.2 MB

--------------------------------
SUGGESTED CITATIONS FOR THIS RUN
--------------------------------

Below you find a list of papers that are relevant to this ORCA run
We neither can nor want to force you to cite these papers, but we appreciate if you do
You receive ORCA, which is the product of decades of hard work by many enthusiastic individuals, for free
The only thing we kindly ask in return is that you cite our papers,
We deeply appreciate it, if you show your appreciation for ORCA by not just citing the generic ORCA reference.

Please note that relegating all ORCA citations to the supporting information does *not* help us.
SI sections are not indexed - citations you put there will not count into any citation statistics
But we need these citations in order to attract the funding resources that allow us to do what we are doing

Therefore, if you are a happy ORCA user, please consider citing a few of the papers listed below in the main body of your paper

In addition to the list printed below, the program has created the file sp.bibtex that contains the list in bibtex format
You can import this file easily into all common literature databanks and citation aid programs


List of essential papers. We consider these as the minimum necessary citations

  1. Neese,F.
     Software update: the ORCA program system, version 5.0
     WIRES Comput. Molec. Sci., 2022 12(1)e1606
     doi.org/10.1002/wcms.1606

List of papers to cite with high priority. The work reported in these papers was absolutely
necessary for this run to complete.
Our perspective: the developers of density functionals and basis sets usually get cited in chemistry papers
Good! But without the algorithms to do something with them, the functionals or basis sets would not do anything.
Hence, in our opinion, the algorithm design and method developments papers are equally worthy of getting cited

  1. Neese,F.
     An improvement of the resolution of the identity approximation for the formation of the Coulomb matrix
     J. Comp. Chem., 2003 24(14)1740-1747
     doi.org/10.1002/jcc.10318
  2. Neese,F.
     The SHARK Integral Generation and Digestion System
     J. Comp. Chem., 2022  1-16
     doi.org/10.1002/jcc.26942
  3. Caldeweyher,E.; Bannwarth,C.; Grimme,S.
     Extension of the D3 dispersion coefficient model
     J. Chem. Phys., 2017 147 034112-XXXX
     doi.org/10.1063/1.4993215
  4. Caldeweyher,E.; Ehlert,S.; Hansen,A.; Neugebauer,H.; Spicher,S.; Bannwarth,C.; Grimme,S.
     A generally applicable atomic-charge dependent London dispersion correction
     J. Chem. Phys., 2019 150 154122-XXXX
     doi.org/10.1063/1.5090222
  5. Caldeweyher,E.; Mewes,J.; Ehlert,S.; Grimme,S.
     Extension and evaluation of the D4 London-dispersion model for periodic systems
     Phys. Chem. Chem. Phys., 2020 22(16)8499-8512
     doi.org/10.1039/D0CP00502A

List of suggested additional citations. These are papers that are important in the 'surrounding' of 
of this run, or papers that preceded the highly important papers. If you like your results we are grateful for a citation.

  1. Neese,F.
     The ORCA program system
     WIRES Comput. Molec. Sci., 2012 2(1)73-78
     doi.org/10.1002/wcms.81
  2. Neese,F.
     Software update: the ORCA program system, version 4.0
     WIRES Comput. Molec. Sci., 2018 8(1)1-6
     doi.org/10.1002/wcms.1327
  3. Neese,F.; Wennmohs,F.; Becker,U.; Riplinger,C.
     The ORCA quantum chemistry program package
     J. Chem. Phys., 2020 152 Art. No. L224108
     doi.org/10.1063/5.0004608

List of optional additional citations

  1. Neese,F.
     Approximate second-order SCF convergence for spin unrestricted wavefunctions
     Chem. Phys. Lett., 2000 325(1-3)93-98
     doi.org/10.1016/s0009-2614(00)00662-x

Timings for individual modules:

Sum of individual times          ...       10.610 sec (=   0.177 min)
Startup calculation              ...        1.091 sec (=   0.018 min)  10.3 %
SCF iterations                   ...        9.411 sec (=   0.157 min)  88.7 %
Property calculations            ...        0.108 sec (=   0.002 min)   1.0 %
                             ****ORCA TERMINATED NORMALLY****
TOTAL RUN TIME: 0 days 0 hours 0 minutes 11 seconds 263 msec
