38
 energy: -1981.481898066257 gnorm: 0.001023179590 xtb: 6.7.1 (edcfbbe)
C            4.99426832447368       -1.59579357556072        0.69208162144620
C            4.41046926166612       -2.60819183824618       -0.26564139777428
O            2.95464933878820       -2.45695663889411       -0.35273692536805
C            2.49203075346166       -1.49802289093348       -1.16722450331101
O            3.19647238619273       -0.79379488103863       -1.87090764880847
C            0.98423945840350       -1.44199089629314       -1.15732236859334
C            0.48967410852632       -0.00241767894896       -1.24556686403110
H            0.93220582873516        0.48314250042682       -2.12681955279543
C            0.95886898516358        0.82029646184493       -0.05262954761744
O            1.85867562135545        0.44352845890984        0.67623409633142
O            0.35137899759772        1.99805761591816        0.03974408969235
C            0.77243371195447        2.85756076255469        1.15339052996961
C           -0.02888504001679        4.12868826609622        1.05980247409027
S           -1.32479427416201        0.08949229945735       -1.61785510021701
P           -2.26578696709490       -0.00472582887377        0.27321103078695
S           -1.29991194291776       -0.86730558803279        1.72248804006681
O           -2.70233292771923        1.52621561072626        0.49470844509364
C           -3.23147632955860        1.93552089081769        1.79184122616217
O           -3.69435131965382       -0.64031430469325       -0.13164225662643
C           -3.82807648419203       -2.08163529929516       -0.27965768037788
H            4.53147690746441       -1.68387560408352        1.67924131902044
H            6.06687195426345       -1.78738452859957        0.79826398941478
H            4.86309265833799       -0.57374521449557        0.32663377858445
H            4.54425787009379       -3.62836606122342        0.09808013921640
H            4.83451289119921       -2.52380459427831       -1.26913678788689
H            0.58571194756064       -1.94021642664078       -0.27228494592930
H            0.64597712149569       -1.99229083757440       -2.04262088204443
H            0.58295663469999        2.31349185684642        2.08369049066557
H            1.84648343633815        3.03777093095563        1.05488580742316
H           -1.10098656228211        3.92723204583461        1.13941420721487
H            0.25952871456512        4.78728393074549        1.88427802473880
H            0.16856488799873        4.64987158271774        0.11886435745663
H           -2.43486019053801        1.91446953692254        2.53954335887276
H           -4.05779488177175        1.28606848118618        2.09373639722726
H           -3.59161695239936        2.95446064578686        1.64956803200075
H           -4.85365413874449       -2.24761297715893       -0.60986305117139
H           -3.65488885759830       -2.57381454922208        0.68065560933472
H           -3.12779890692173       -2.45638141477356       -1.03225220595888
38
 energy: -1981.481901003481 gnorm: 0.000666148513 xtb: 6.7.1 (edcfbbe)
C            4.99389014679332       -1.59543171059445        0.69180184596464
C            4.41067614936105       -2.60873701508754       -0.26538743055647
O            2.95470166251262       -2.45777698018597       -0.35309379953971
C            2.49213509880345       -1.49973571141786       -1.16890112171740
O            3.19656754565348       -0.79595460979003       -1.87264328334201
C            0.98430136036762       -1.44284798905040       -1.15760135507123
C            0.49152353303179       -0.00271729023368       -1.24586428198125
H            0.93368678726160        0.48215324880348       -2.12740529614485
C            0.96030554178932        0.81982088289431       -0.05267536798416
O            1.86079813266213        0.44382930273982        0.67574692026395
O            0.35150562079942        1.99711084024300        0.04010683365396
C            0.77114430339720        2.85700052266089        1.15405911066837
C           -0.03077433040147        4.12776739248850        1.05988802911079
S           -1.32272820995357        0.08774106686834       -1.61821334311428
P           -2.26568086959569       -0.00239732404764        0.27253299046357
S           -1.29790791536871       -0.86648932862534        1.71951937897518
O           -2.70283857484219        1.52826911972740        0.49562698876847
C           -3.23186937383400        1.93670633365883        1.79309274387507
O           -3.69441105531122       -0.63888072219157       -0.13021260792652
C           -3.82682302053130       -2.08048783017967       -0.27932994869065
H            4.53074824364219       -1.68346083913223        1.67879200447041
H            6.06664025682511       -1.78573581873930        0.79794536390591
H            4.86153625141387       -0.57390000602401        0.32572820045279
H            4.54420304742501       -3.62864827271190        0.09908665044035
H            4.83479383638655       -2.52504448907838       -1.26884755831906
H            0.58640197152176       -1.94038285513619       -0.27200808938755
H            0.64488710066383       -1.99285134484044       -2.04257340757613
H            0.58081718469791        2.31265915680918        2.08413940276323
H            1.84532242943598        3.03746015418491        1.05654426497616
H           -1.10263445333316        3.92642282142613        1.13988671578967
H            0.25749659619350        4.78693421549468        1.88403489262563
H            0.16590573868155        4.64853564891102        0.11855479735144
H           -2.43522986401710        1.91457114840796        2.54055423406035
H           -4.05835590506210        1.28739466757661        2.09396618384200
H           -3.59144246814867        2.95555162613562        1.65074798219346
H           -4.85180922703701       -2.24668771789913       -0.61051356947579
H           -3.65401412620997       -2.57297526205425        0.68059473103880
H           -3.12589074747487       -2.45427019172947       -1.03148412798292
38
 energy: -1981.481901003481 gnorm: 0.000666148513 xtb: 6.7.1 (edcfbbe)
C            4.99389014679332       -1.59543171059445        0.69180184596464
C            4.41067614936105       -2.60873701508754       -0.26538743055647
O            2.95470166251262       -2.45777698018597       -0.35309379953971
C            2.49213509880345       -1.49973571141786       -1.16890112171740
O            3.19656754565348       -0.79595460979003       -1.87264328334201
C            0.98430136036762       -1.44284798905040       -1.15760135507123
C            0.49152353303179       -0.00271729023368       -1.24586428198125
H            0.93368678726160        0.48215324880348       -2.12740529614485
C            0.96030554178932        0.81982088289431       -0.05267536798416
O            1.86079813266213        0.44382930273982        0.67574692026395
O            0.35150562079942        1.99711084024300        0.04010683365396
C            0.77114430339720        2.85700052266089        1.15405911066837
C           -0.03077433040147        4.12776739248850        1.05988802911079
S           -1.32272820995357        0.08774106686834       -1.61821334311428
P           -2.26568086959569       -0.00239732404764        0.27253299046357
S           -1.29790791536871       -0.86648932862534        1.71951937897518
O           -2.70283857484219        1.52826911972740        0.49562698876847
C           -3.23186937383400        1.93670633365883        1.79309274387507
O           -3.69441105531122       -0.63888072219157       -0.13021260792652
C           -3.82682302053130       -2.08048783017967       -0.27932994869065
H            4.53074824364219       -1.68346083913223        1.67879200447041
H            6.06664025682511       -1.78573581873930        0.79794536390591
H            4.86153625141387       -0.57390000602401        0.32572820045279
H            4.54420304742501       -3.62864827271190        0.09908665044035
H            4.83479383638655       -2.52504448907838       -1.26884755831906
H            0.58640197152176       -1.94038285513619       -0.27200808938755
H            0.64488710066383       -1.99285134484044       -2.04257340757613
H            0.58081718469791        2.31265915680918        2.08413940276323
H            1.84532242943598        3.03746015418491        1.05654426497616
H           -1.10263445333316        3.92642282142613        1.13988671578967
H            0.25749659619350        4.78693421549468        1.88403489262563
H            0.16590573868155        4.64853564891102        0.11855479735144
H           -2.43522986401710        1.91457114840796        2.54055423406035
H           -4.05835590506210        1.28739466757661        2.09396618384200
H           -3.59144246814867        2.95555162613562        1.65074798219346
H           -4.85180922703701       -2.24668771789913       -0.61051356947579
H           -3.65401412620997       -2.57297526205425        0.68059473103880
H           -3.12589074747487       -2.45427019172947       -1.03148412798292
