      -----------------------------------------------------------      
     |                   =====================                   |     
     |                           x T B                           |     
     |                   =====================                   |     
     |                         S. Grimme                         |     
     |          Mulliken Center for Theoretical Chemistry        |     
     |                    University of Bonn                     |     
      -----------------------------------------------------------      

   * xtb version 6.7.1 (edcfbbe) compiled by 'albert@albert-system' on 2024-07-22

   xtb is free software: you can redistribute it and/or modify it under
   the terms of the GNU Lesser General Public License as published by
   the Free Software Foundation, either version 3 of the License, or
   (at your option) any later version.
   
   xtb is distributed in the hope that it will be useful,
   but WITHOUT ANY WARRANTY; without even the implied warranty of
   MERCHANTABILITY or FITNESS FOR A PARTICULAR PURPOSE.  See the
   GNU Lesser General Public License for more details.
   
   Cite this work as:
   * C. Bannwarth, E. Caldeweyher, S. Ehlert, A. Hansen, P. Pracht,
     J. Seibert, S. Spicher, S. Grimme, WIREs Comput. Mol. Sci., 2020, 11,
     e01493. DOI: 10.1002/wcms.1493
   
   for GFN2-xTB:
   * C. Bannwarth, S. Ehlert and S. Grimme., J. Chem. Theory Comput., 2019,
     15, 1652-1671. DOI: 10.1021/acs.jctc.8b01176
   for GFN1-xTB:
   * S. Grimme, C. Bannwarth, P. Shushkov, J. Chem. Theory Comput., 2017,
     13, 1989-2009. DOI: 10.1021/acs.jctc.7b00118
   for GFN0-xTB:
   * P. Pracht, E. Caldeweyher, S. Ehlert, S. Grimme, ChemRxiv, 2019, preprint.
     DOI: 10.26434/chemrxiv.8326202.v1
   for GFN-FF:
   * S. Spicher and S. Grimme, Angew. Chem. Int. Ed., 2020, 59, 15665-15673.
     DOI: 10.1002/anie.202004239
   
   for ALPB and GBSA implicit solvation:
   * S. Ehlert, M. Stahn, S. Spicher, S. Grimme, J. Chem. Theory Comput.,
     2021, 17, 4250-4261. DOI: 10.1021/acs.jctc.1c00471
   
   for ddCOSMO and CPCM-X implicit solvation:
   * M. Stahn, S. Ehlert, S. Grimme, J. Phys. Chem. A,
     2023, XX, XXXX-XXXX. DOI: 10.1021/acs.jpca.3c04382
   
   for DFT-D4:
   * E. Caldeweyher, C. Bannwarth and S. Grimme, J. Chem. Phys., 2017,
     147, 034112. DOI: 10.1063/1.4993215
   * E. Caldeweyher, S. Ehlert, A. Hansen, H. Neugebauer, S. Spicher,
     C. Bannwarth and S. Grimme, J. Chem. Phys., 2019, 150, 154122.
     DOI: 10.1063/1.5090222
   * E. Caldeweyher, J.-M. Mewes, S. Ehlert and S. Grimme, Phys. Chem. Chem. Phys.
     2020, 22, 8499-8512. DOI: 10.1039/D0CP00502A
   
   for sTDA-xTB:
   * S. Grimme and C. Bannwarth, J. Chem. Phys., 2016, 145, 054103.
     DOI: 10.1063/1.4959605
   
   in the mass-spec context:
   * V. Asgeirsson, C. Bauer and S. Grimme, Chem. Sci., 2017, 8, 4879.
     DOI: 10.1039/c7sc00601b
   * J. Koopman and S. Grimme, ACS Omega 2019, 4, 12, 15120-15133.
     DOI: 10.1021/acsomega.9b02011
   
   for metadynamics refer to:
   * S. Grimme, J. Chem. Theory Comput., 2019, 155, 2847-2862
     DOI: 10.1021/acs.jctc.9b00143
   
   for SPH calculations refer to:
   * S. Spicher and S. Grimme, J. Chem. Theory Comput., 2021, 17, 1701-1714
     DOI: 10.1021/acs.jctc.0c01306
   
   for ONIOM refer to:
   * C. Plett, A. Katbashev, S. Ehlert, S. Grimme, M. Bursch,
     Phys. Chem. Chem. Phys., 2023, 25, 17860-17868. DOI: 10.1039/D3CP02178E
   
   for DIPRO refer to:
   * J. Kohn, N. Gildemeister, S. Grimme, D. Fazzi, A. Hansen,
     J. Chem. Phys., 2023, just accepted.
   
   for PTB refer to:
   * S. Grimme, M. Mueller, A. Hansen, J. Chem. Phys., 2023, 158, 124111.
     DOI: 10.1063/5.0137838
   
   with help from (in alphabetical order)
   P. Atkinson, C. Bannwarth, F. Bohle, G. Brandenburg, E. Caldeweyher
   M. Checinski, S. Dohm, S. Ehlert, S. Ehrlich, I. Gerasimov, C. Hölzer
   A. Katbashev, J. Kohn, J. Koopman, C. Lavigne, S. Lehtola, F. März, M. Müller,
   F. Musil, H. Neugebauer, J. Pisarek, C. Plett, P. Pracht, F. Pultar,
   J. Seibert, P. Shushkov, S. Spicher, M. Stahn, M. Steiner, T. Strunk,
   J. Stückrath, T. Rose, and J. Unsleber
   
 * started run on 2025/04/03 at 19:42:17.120     
   ID    Z sym.   atoms
    1    6 C      1-6
    2    8 O      7
    3   35 Br     8
    4    1 H      9-13

           -------------------------------------------------
          |                Calculation Setup                |
           -------------------------------------------------

          program call               : /srv/scratch/z5358697/.xtb/bin/xtb xtb_opt.coord --opt normal --orca -I xtb_opt-xcontrol-inp
          hostname                   : k147
          coordinate file            : xtb_opt.coord
          omp threads                :                     1

           -------------------------------------------------
          |                   Orca driver                   |
           -------------------------------------------------
orca executable           : /apps/z_install_tree/linux-rocky8-ivybridge/gcc-12.2.0/orca-6.0.0-srtngmq3qlimg2qxbl6avaaiffipurdx/bin/orca
orca input file           : xtb_opt.inp
orca input line           : 
orca parallel             : false
orca number of threads    : 1
                         * ORCA takes the control...
  ------------------------------------------------------------------------

                                 *****************
                                 * O   R   C   A *
                                 *****************

                                            #,                                       
                                            ###                                      
                                            ####                                     
                                            #####                                    
                                            ######                                   
                                           ########,                                 
                                     ,,################,,,,,                         
                               ,,#################################,,                 
                          ,,##########################################,,             
                       ,#########################################, ''#####,          
                    ,#############################################,,   '####,        
                  ,##################################################,,,,####,       
                ,###########''''           ''''###############################       
              ,#####''   ,,,,##########,,,,          '''####'''          '####       
            ,##' ,,,,###########################,,,                        '##       
           ' ,,###''''                  '''############,,,                           
         ,,##''                                '''############,,,,        ,,,,,,###''
      ,#''                                            '''#######################'''  
     '                                                          ''''####''''         
             ,#######,   #######,   ,#######,      ##                                
            ,#'     '#,  ##    ##  ,#'     '#,    #''#        ,####,   ,####,        
            ##       ##  ##   ,#'  ##            #'  '#       #'       #'  '#        
            ##       ##  #######   ##           ,######,      #####,   #    #        
            '#,     ,#'  ##    ##  '#,     ,#' ,#      #,     #,   #   #,  ,#        
             '#######'   ##     ##  '#######'  #'      '#     '####' # '####'        



                #########################################################
                #                        -***-                          #
                #          Department of theory and spectroscopy        #
                #                                                       #
                #                      Frank Neese                      #
                #                                                       #
                #     Directorship, Architecture, Infrastructure        #
                #                    SHARK, DRIVERS                     #
                #        Core code/Algorithms in most modules           #
                #                                                       #
                #        Max Planck Institute fuer Kohlenforschung      #
                #                Kaiser Wilhelm Platz 1                 #
                #                 D-45470 Muelheim/Ruhr                 #
                #                      Germany                          #
                #                                                       #
                #                  All rights reserved                  #
                #                        -***-                          #
                #########################################################


                         Program Version 6.0.0  -   RELEASE  -


 With contributions from (in alphabetic order):
   Daniel Aravena         : Magnetic Suceptibility
   Michael Atanasov       : Ab Initio Ligand Field Theory (pilot matlab implementation)
   Alexander A. Auer      : GIAO ZORA, VPT2 properties, NMR spectrum
   Ute Becker             : All parallelization in ORCA, NUMFREQ, NUMCALC
   Giovanni Bistoni       : ED, misc. LED, open-shell LED, HFLD
   Martin Brehm           : Molecular dynamics
   Dmytro Bykov           : pre 5.0 version of the SCF Hessian
   Marcos Casanova-Páez   : Triplet and SCS-CIS(D). UHF-(DLPNO)-IP/EA/STEOM-CCSD. UHF-CVS-IP/STEOM-CCSD
   Vijay G. Chilkuri      : MRCI spin determinant printing, contributions to CSF-ICE
   Pauline Colinet        : FMM embedding
   Dipayan Datta          : RHF DLPNO-CCSD density
   Achintya Kumar Dutta   : EOM-CC, STEOM-CC
   Nicolas Foglia         : Exact transition moments, OPA infrastructure, MCD improvements
   Dmitry Ganyushin       : Spin-Orbit,Spin-Spin,Magnetic field MRCI
   Miquel Garcia          : C-PCM and meta-GGA Hessian, CCSD/C-PCM, Gaussian charge scheme
   Tiago L. C. Gouveia    : GS-ROHF, GS-ROCIS
   Yang Guo               : DLPNO-NEVPT2, F12-NEVPT2, CIM, IAO-localization
   Andreas Hansen         : Spin unrestricted coupled pair/coupled cluster methods
   Ingolf Harden          : AUTO-CI MPn and infrastructure 
   Benjamin Helmich-Paris : MC-RPA, TRAH-(SCF,CASSCF), AVAS, COSX integrals, SCF dyn. polar.
   Lee Huntington         : MR-EOM, pCC
   Robert Izsak           : Overlap fitted RIJCOSX, COSX-SCS-MP3, EOM
   Riya Kayal             : Wick's Theorem for AUTO-CI, AUTO-CI UHF-CCSDT
   Emily Kempfer          : AUTO-CI, RHF CISDT and CCSDT
   Christian Kollmar      : KDIIS, OOCD, Brueckner-CCSD(T), CCSD density, CASPT2, CASPT2-K, improved NEVPT2
   Axel Koslowski         : Symmetry handling
   Simone Kossmann        : Meta GGA functionals, TD-DFT gradient, OOMP2, (MP2 Hessian; deprecated post 5.0)
   Lucas Lang             : DCDCAS
   Marvin Lechner         : AUTO-CI (C++ implementation), FIC-MRCC
   Spencer Leger          : CASSCF response
   Dagmar Lenk            : GEPOL surface, SMD, ORCA-2-JSON
   Dimitrios Liakos       : Extrapolation schemes; Compound Job, initial MDCI parallelization
   Dimitrios Manganas     : Further ROCIS development; embedding schemes. LFT, Crystal Embedding
   Dimitrios Pantazis     : SARC Basis sets
   Anastasios Papadopoulos: AUTO-CI, single reference methods and gradients
   Taras Petrenko         : pre 6.0 DFT Hessian and TD-DFT gradient, (ASA, deprecated), ECA, 1-Electron XAS/XES, NRVS
   Peter Pinski           : DLPNO-MP2, DLPNO-MP2 Gradient
   Christoph Reimann      : Effective Core Potentials
   Marius Retegan         : Local ZFS, SOC
   Christoph Riplinger    : Optimizer, TS searches, QM/MM, DLPNO-CCSD(T), (RO)-DLPNO pert. Triples
   Michael Roemelt        : Original ROCIS implementation
   Masaaki Saitow         : Open-shell DLPNO-CCSD energy and density
   Barbara Sandhoefer     : DKH picture change effects
   Kantharuban Sivalingam : CASSCF convergence/infrastructure, NEVPT2 and variants, FIC-MRCI
   Bernardo de Souza      : ESD, SOC TD-DFT
   Georgi Stoychev        : AutoAux, RI-MP2 NMR, DLPNO-MP2 response, X2C
   Van Anh Tran           : RI-MP2 g-tensors
   Willem Van den Heuvel  : Paramagnetic NMR
   Zikuan Wang            : NOTCH, Electric field optimization 
   Frank Wennmohs         : Technical directorship and infrastructure
   Hang Xu                : AUTO-CI-Response properties 


 We gratefully acknowledge several colleagues who have allowed us to
 interface, adapt or use parts of their codes:
   Stefan Grimme, W. Hujo, H. Kruse, P. Pracht,  : VdW corrections, initial TS optimization,
                  C. Bannwarth, S. Ehlert,         DFT functionals, gCP, sTDA/sTD-DF
                  L. Wittmann, M. Mueller
   Ed Valeev, F. Pavosevic, A. Kumar             : LibInt (2-el integral package), F12 methods
   Garnet Chan, S. Sharma, J. Yang, R. Olivares  : DMRG
   Ulf Ekstrom                                   : XCFun DFT Library
   Mihaly Kallay                                 : mrcc  (arbitrary order and MRCC methods)
   Frank Weinhold                                : gennbo (NPA and NBO analysis)
   Simon Mueller                                 : openCOSMO-RS
   Christopher J. Cramer and Donald G. Truhlar   : smd solvation model
   Lars Goerigk                                  : TD-DFT with DH, B97 family of functionals
   V. Asgeirsson, H. Jonsson                     : NEB implementation
   FAccTs GmbH                                   : IRC, NEB, NEB-TS, DLPNO-Multilevel, CI-OPT
                                                   MM, QMMM, 2- and 3-layer-ONIOM, Crystal-QMMM,
                                                   LR-CPCM, SF, NACMEs, symmetry and pop. for TD-DFT,
                                                   nearIR, NL-DFT gradient (VV10), updates on ESD,
                                                   ML-optimized integration grids, MBIS, APM,
                                                   GOAT, DOCKER, SOLVATOR, interface openCOSMO-RS
   S Lehtola, MJT Oliveira, MAL Marques          : LibXC Library
   Liviu Ungur et al                             : ANISO software


 Your calculation uses the libint2 library for the computation of 2-el integrals
 For citations please refer to: http://libint.valeyev.net

 Your ORCA version has been built with support for libXC version: 6.2.2
 For citations please refer to: https://libxc.gitlab.io

 This ORCA versions uses:
   CBLAS   interface :  Fast vector & matrix operations
   LAPACKE interface :  Fast linear algebra routines
   SCALAPACK package :  Parallel linear algebra routines
   Shared memory     :  Shared parallel matrices
   BLAS/LAPACK       :  OpenBLAS 0.3.27  USE64BITINT DYNAMIC_ARCH NO_AFFINITY SkylakeX SINGLE_THREADED
        Core in use  :  SkylakeX
   Copyright (c) 2011-2014, The OpenBLAS Project




***************************************
The coordinates will be read from file: xtb_opt.xyz
***************************************


Your calculation utilizes the geometrical counterpoise correction gCP
Please cite in your paper:
H.Kruse, S. Grimme J.Chem.Phys., 136, (2012), 154101 
   

Your calculation utilizes the atom-pairwise dispersion correction
based on EEQ partial charges (D4)


Your calculation utilizes the SMD solvation module
Please cite in your paper:
A.V. Marenich, C.J. Cramer, D.G. Truhlar J. Phys. Chem. B, 113, (2009), 6378 

================================================================================

----- Orbital basis set information -----
Your calculation utilizes the basis: def2-mTZVPP
   Stefan Grimme, Andreas Hansen, Sebastian Ehlert, and Jan-Michael Mewes 
   J. Chem. Phys. 154, 064103 (2021). DOI: 10.1063/5.0040021

----- AuxJ basis set information -----
Your calculation utilizes the auxiliary basis: def2/J
   F. Weigend, Phys. Chem. Chem. Phys. 8, 1057 (2006).

================================================================================
                                        WARNINGS
                       Please study these warnings very carefully!
================================================================================

Using LibXC functional ID 497 : Re-regularized SCAN exchange by Furness et al
[ 1]  J. W. Furness, A. D. Kaplan, J. Ning, J. P. Perdew, and J. Sun.,  J. Phys. Chem. Lett. 11, 8208-8215 (2020)
[ 2]  J. W. Furness, A. D. Kaplan, J. Ning, J. P. Perdew, and J. Sun.,  J. Phys. Chem. Lett. 11, 9248-9248 (2020)
Using LibXC functional ID 498 : Re-regularized SCAN correlation by Furness et al
[ 1]  J. W. Furness, A. D. Kaplan, J. Ning, J. P. Perdew, and J. Sun.,  J. Phys. Chem. Lett. 11, 8208-8215 (2020)
[ 2]  J. W. Furness, A. D. Kaplan, J. Ning, J. P. Perdew, and J. Sun.,  J. Phys. Chem. Lett. 11, 9248-9248 (2020)
Using LibXC functional ID 497 : Re-regularized SCAN exchange by Furness et al
[ 1]  J. W. Furness, A. D. Kaplan, J. Ning, J. P. Perdew, and J. Sun.,  J. Phys. Chem. Lett. 11, 8208-8215 (2020)
[ 2]  J. W. Furness, A. D. Kaplan, J. Ning, J. P. Perdew, and J. Sun.,  J. Phys. Chem. Lett. 11, 9248-9248 (2020)
Using LibXC functional ID 498 : Re-regularized SCAN correlation by Furness et al
[ 1]  J. W. Furness, A. D. Kaplan, J. Ning, J. P. Perdew, and J. Sun.,  J. Phys. Chem. Lett. 11, 8208-8215 (2020)
[ 2]  J. W. Furness, A. D. Kaplan, J. Ning, J. P. Perdew, and J. Sun.,  J. Phys. Chem. Lett. 11, 9248-9248 (2020)

================================================================================
                                       INPUT FILE
================================================================================
NAME = xtb_opt.inp
|  1> ! r2scan-3c def2/J RI DEFGRID2 scfconv7 ENGRAD tightSCF miniprint
|  2> %cpcm
|  3>     smd true
|  4>     smdsolvent "water"
|  5> end
|  6> * xyzfile 0 1 xtb_opt.xyz
|  7> 
|  8>                          ****END OF INPUT****
================================================================================

                     *******************************
                     * Energy+Gradient Calculation *
                     *******************************

---------------------------------
CARTESIAN COORDINATES (ANGSTROEM)
---------------------------------
  C     -1.935880   -1.204031   -0.000038
  C     -0.556048   -1.207171    0.000312
  C      0.121310    0.000009    0.000612
  C     -0.555386    1.205316    0.000337
  C     -1.938093    1.203693   -0.000030
  C     -2.639403    0.000611   -0.000088
  O     -3.988904   -0.055811   -0.000252
  Br     2.044684    0.000744   -0.000115
  H     -2.489778   -2.128476   -0.000195
  H     -0.012336   -2.138353    0.000394
  H     -0.011173    2.136387    0.000177
  H     -2.467607    2.144041   -0.000236
  H     -4.379567    0.832117   -0.000166

----------------------------
CARTESIAN COORDINATES (A.U.)
----------------------------
  NO LB      ZA    FRAG     MASS         X           Y           Z
   0 C     6.0000    0    12.011   -3.658283   -2.275288   -0.000072
   1 C     6.0000    0    12.011   -1.050779   -2.281223    0.000589
   2 C     6.0000    0    12.011    0.229243    0.000017    0.001156
   3 C     6.0000    0    12.011   -1.049527    2.277717    0.000637
   4 C     6.0000    0    12.011   -3.662466    2.274650   -0.000056
   5 C     6.0000    0    12.011   -4.987749    0.001154   -0.000167
   6 O     8.0000    0    15.999   -7.537935   -0.105468   -0.000476
   7 Br   35.0000    0    79.900    3.863892    0.001405   -0.000218
   8 H     1.0000    0     1.008   -4.704999   -4.022237   -0.000368
   9 H     1.0000    0     1.008   -0.023312   -4.040901    0.000744
  10 H     1.0000    0     1.008   -0.021114    4.037186    0.000334
  11 H     1.0000    0     1.008   -4.663102    4.051650   -0.000446
  12 H     1.0000    0     1.008   -8.276181    1.572474   -0.000314

------------------------------------------------------------------------------
                   ___                                                        
                  /   \      - P O W E R E D   B Y -                         
                 /     \                                                     
                 |  |  |   _    _      __       _____    __    __             
                 |  |  |  | |  | |    /  \     |  _  \  |  |  /  |          
                  \  \/   | |  | |   /    \    | | | |  |  | /  /          
                 / \  \   | |__| |  /  /\  \   | |_| |  |  |/  /          
                |  |  |   |  __  | /  /__\  \  |    /   |      \           
                |  |  |   | |  | | |   __   |  |    \   |  |\   \          
                \     /   | |  | | |  |  |  |  | |\  \  |  | \   \       
                 \___/    |_|  |_| |__|  |__|  |_| \__\ |__|  \__/        
                                                                              
                      - O R C A' S   B I G   F R I E N D -                    
                                      &                                       
                       - I N T E G R A L  F E E D E R -                       
                                                                              
 v1 FN, 2020, v2 2021, v3 2022-2024                                           
------------------------------------------------------------------------------


----------------------
SHARK INTEGRAL PACKAGE
----------------------

Number of atoms                             ...     13
Number of basis functions                   ...    199
Number of shells                            ...     93
Maximum angular momentum                    ...      2
Integral batch strategy                     ... SHARK/LIBINT Hybrid
RI-J (if used) integral strategy            ... SPLIT-RIJ (Revised 2003 algorithm where possible)
Printlevel                                  ...      1
Contraction scheme used                     ... SEGMENTED contraction
Prescreening option                         ... SCHWARTZ
   Thresh                                   ... 3.000e-11
   Tcut                                     ... 1.000e-12
   Tpresel                                  ... 1.000e-12 
Coulomb Range Separation                    ... NOT USED
Exchange Range Separation                   ... NOT USED
Multipole approximations                    ... NOT USED
Finite Nucleus Model                        ... NOT USED
CABS basis                                  ... NOT available
Auxiliary Coulomb fitting basis             ... AVAILABLE
   # of basis functions in Aux-J            ...    456
   # of shells in Aux-J                     ...    148
   Maximum angular momentum in Aux-J        ...      4
Auxiliary J/K fitting basis                 ... NOT available
Auxiliary Correlation fitting basis         ... NOT available
Auxiliary 'external' fitting basis          ... NOT available

Checking pre-screening integrals            ... done (  0.0 sec) Dimension = 93
Check shell pair data                       ... done (  0.0 sec)
Shell pair information
Shell pair cut-off parameter TPreSel        ...   1.0e-12
Total number of shell pairs                 ...      4371
Shell pairs after pre-screening             ...      3891
Total number of primitive shell pairs       ...     18190
Primitive shell pairs kept                  ...     11222
          la=0 lb=0:   1135 shell pairs
          la=1 lb=0:   1429 shell pairs
          la=1 lb=1:    462 shell pairs
          la=2 lb=0:    493 shell pairs
          la=2 lb=1:    313 shell pairs
          la=2 lb=2:     59 shell pairs

Calculating one electron integrals          ... done (  0.0 sec)
Calculating RI/J V-Matrix + Cholesky decomp.... done (  0.1 sec)
Calculating Nuclear repulsion               ... done (  0.0 sec) ENN=    522.364250444308 Eh

Diagonalization of the overlap matrix:
Smallest eigenvalue                        ... 3.110e-05
Time for diagonalization                   ...    0.004 sec
Threshold for overlap eigenvalues          ... 1.000e-07
Number of eigenvalues below threshold      ... 0
Time for construction of square roots      ...    0.013 sec
Total time needed                          ...    0.025 sec

-------------------
DFT GRID GENERATION
-------------------

General Integration Accuracy     IntAcc      ... 4.388
Radial Grid Type                 RadialGrid  ... OptM3 with GC (2021)
Angular Grid (max. ang.)         AngularGrid ... 4 (Lebedev-302)
Angular grid pruning method      GridPruning ... 4 (adaptive)
Weight generation scheme         WeightScheme... mBecke (2022)
Basis function cutoff            BFCut       ... 1.0000e-11
Integration weight cutoff        WCut        ... 1.0000e-14
Partially contracted basis set               ... off
Rotationally invariant grid construction     ... off
Angular grids for H and He will be reduced by one unit
Diffuse basis detected: some atoms will have their outermost
                        angular grid increased by 1.
Core-polarized basis detected: some atoms will have their core
                               angular grid increased.

Total number of grid points                  ...    69858
Total number of batches                      ...     1098
Average number of points per batch           ...       63
Average number of grid points per atom       ...     5374
Initializing property integral containers    ... done (  0.0 sec)

SHARK setup successfully completed in   1.0 seconds

Maximum memory used throughout the entire STARTUP-calculation: 35.7 MB
Occupation numbers will be reassigned to an Aufbau configuration
             **** ENERGY FILE WAS UPDATED (xtb_opt.en.tmp) ****
Finished Guess after   0.2 sec
Maximum memory used throughout the entire GUESS-calculation: 14.4 MB
--------------------
CPCM SOLVATION MODEL
--------------------
CPCM parameters:
  Epsilon                                         ...      78.3550
  Refrac                                          ...       1.3328
  Rsolv                                           ...       1.3000
  Surface type                                    ... GAUSSIAN VDW
  Discretization scheme                           ... Constant charge density
    Threshold for H atoms                         ...       5.0000 (charges/Ang^2)
    Threshold for non-H atoms                     ...       5.0000 (charges/Ang^2)
  Epsilon function type                           ...         CPCM
Solvent:                                          ... WATER
SMD-CDS solvent descriptors:
  Soln                                            ...       1.3328
  Soln25                                          ...       1.3323
  Sola                                            ...       0.0000
  Solb                                            ...       0.0000
  Solg                                            ...       0.0000
  Solc                                            ...       0.0000
  Solh                                            ...       0.0000
Radii:
  Scheme                                          ... Element-dependent radii
  Radius for C  used is    3.4960 Bohr (=   1.8500 Ang.)
  Radius for O  used is    2.8724 Bohr (=   1.5200 Ang.)
  Radius for Br used is    5.7826 Bohr (=   3.0600 Ang.)
  Radius for H  used is    2.2677 Bohr (=   1.2000 Ang.)
Calculating surface                               ...        done! (  0.0s)
Cavity surface points                             ...         1329
Cavity Volume                                     ...    1288.1761
Cavity Surface-area                               ...     665.6323
Calculating surface distance matrix               ...        done! (  0.0s)
Performing Cholesky decomposition & store         ...        done! (  0.1s)
Overall time for CPCM initialization              ...                 0.1s

----------------------------------------D-I-I-S--------------------------------------------
Iteration    Energy (Eh)           Delta-E    RMSDP     MaxDP     DIISErr   Damp  Time(sec)
-------------------------------------------------------------------------------------------
               ***  Starting incremental Fock matrix formation  ***
                              *** Initializing SOSCF ***
---------------------------------------S-O-S-C-F--------------------------------------
Iteration    Energy (Eh)           Delta-E    RMSDP     MaxDP     MaxGrad    Time(sec)
--------------------------------------------------------------------------------------
    1    -2880.9542461095197723     0.00e+00  2.16e-06  6.52e-05  4.95e-06     2.6
               *** Restarting incremental Fock matrix formation ***
    2    -2880.9542461108931093    -1.37e-09  1.94e-06  6.73e-05  2.59e-05     2.6
    3    -2880.9542460972202207     1.37e-08  1.37e-06  3.25e-05  2.48e-05     1.9
                 **** Energy Check signals convergence ****

               *****************************************************
               *                     SUCCESS                       *
               *           SCF CONVERGED AFTER   3 CYCLES          *
               *****************************************************


SMD CDS free energy correction energy :                 2.64505     Kcal/mol
Total Energy after SMD CDS correction =             -2880.950030938 Eh
             **** ENERGY FILE WAS UPDATED (xtb_opt.en.tmp) ****

----------------
TOTAL SCF ENERGY
----------------

Total Energy       :      -2880.95003093844980 Eh          -78394.63585 eV

Components:
Nuclear Repulsion  :        522.36425044430825 Eh           14214.25389 eV
Electronic Energy  :      -3403.30100988161757 Eh          -92608.52861 eV
One Electron Energy:      -5036.55478630196922 Eh         -137051.62331 eV
Two Electron Energy:       1633.25377642035164 Eh           44443.09470 eV
CPCM Dielectric    :         -0.01748665991081 Eh              -0.47584 eV
SMD CDS (Gcds)     :          0.00421515877039 Eh               0.11470 eV

Virial components:
Potential Energy   :      -5757.21071924775606 Eh         -156661.66820 eV
Kinetic Energy     :       2876.26068830930672 Eh           78267.03235 eV
Virial Ratio       :          2.00163036078343

DFT components:
N(Alpha)           :       42.000008032144 electrons
N(Beta)            :       42.000008032144 electrons
N(Total)           :       84.000016064287 electrons
E(X)               :     -130.914980270118 Eh       
E(C)               :       -3.330190813611 Eh       
E(XC)              :     -134.245171083729 Eh       

CPCM Solvation Model Properties:
Surface-charge          :         -0.02333104093305
Corrected charge        :          0.00000000000000
Outlying charge corr.   :          0.00003750640408 Eh               0.00102 eV
Free-energy (cav+disp)  :          0.00421515877039 Eh               0.11470 eV

---------------
SCF CONVERGENCE
---------------

  Last Energy change         ...   -1.3673e-08  Tolerance :   1.0000e-07
  Last MAX-Density change    ...    3.2503e-05  Tolerance :   1.0000e-07
  Last RMS-Density change    ...    1.3707e-06  Tolerance :   5.0000e-09
  Last DIIS Error            ...    7.2536e-05  Tolerance :   1.0000e-07
  Last Orbital Gradient      ...    2.4786e-05  Tolerance :   1.0000e-04
  Last Orbital Rotation      ...    3.3616e-05  Tolerance :   1.0000e-04


----------------
ORBITAL ENERGIES
----------------

  NO   OCC          E(Eh)            E(eV) 
   0   2.0000    -482.227316    -13122.0724 
   1   2.0000     -62.298831     -1695.2374 
   2   2.0000     -56.079138     -1525.9909 
   3   2.0000     -56.076686     -1525.9242 
   4   2.0000     -56.076636     -1525.9228 
   5   2.0000     -18.987122      -516.6659 
   6   2.0000     -10.104528      -274.9582 
   7   2.0000     -10.090377      -274.5731 
   8   2.0000     -10.048876      -273.4438 
   9   2.0000     -10.048719      -273.4395 
  10   2.0000     -10.041142      -273.2334 
  11   2.0000     -10.039945      -273.2008 
  12   2.0000      -8.630704      -234.8534 
  13   2.0000      -6.438080      -175.1891 
  14   2.0000      -6.424633      -174.8232 
  15   2.0000      -6.424384      -174.8164 
  16   2.0000      -2.535695       -68.9998 
  17   2.0000      -2.532311       -68.9077 
  18   2.0000      -2.532179       -68.9041 
  19   2.0000      -2.522162       -68.6315 
  20   2.0000      -2.522159       -68.6314 
  21   2.0000      -1.033632       -28.1265 
  22   2.0000      -0.843530       -22.9536 
  23   2.0000      -0.766279       -20.8515 
  24   2.0000      -0.731772       -19.9125 
  25   2.0000      -0.689116       -18.7518 
  26   2.0000      -0.602248       -16.3880 
  27   2.0000      -0.574481       -15.6324 
  28   2.0000      -0.523482       -14.2447 
  29   2.0000      -0.464228       -12.6323 
  30   2.0000      -0.442499       -12.0410 
  31   2.0000      -0.416117       -11.3231 
  32   2.0000      -0.401773       -10.9328 
  33   2.0000      -0.394250       -10.7281 
  34   2.0000      -0.366639        -9.9768 
  35   2.0000      -0.342097        -9.3089 
  36   2.0000      -0.340982        -9.2786 
  37   2.0000      -0.316680        -8.6173 
  38   2.0000      -0.275204        -7.4887 
  39   2.0000      -0.266113        -7.2413 
  40   2.0000      -0.251206        -6.8357 
  41   2.0000      -0.206006        -5.6057 
  42   0.0000      -0.044347        -1.2068 
  43   0.0000      -0.028044        -0.7631 
  44   0.0000      -0.024517        -0.6671 
  45   0.0000       0.080145         2.1809 
  46   0.0000       0.106789         2.9059 
  47   0.0000       0.115781         3.1506 
  48   0.0000       0.122376         3.3300 
  49   0.0000       0.133290         3.6270 
  50   0.0000       0.153367         4.1733 
  51   0.0000       0.168219         4.5775 
  52   0.0000       0.173937         4.7331 
*Only the first 10 virtual orbitals were printed.
Total SCF time: 0 days 0 hours 0 min 7 sec 
Finished LeanSCF after   7.8 sec

Maximum memory used throughout the entire LEANSCF-calculation: 26.2 MB


-------------------------------------------------------------------------------
                          DFT DISPERSION CORRECTION                            
                                                                               
                                DFTD4 V3.4.0                                   
-------------------------------------------------------------------------------
-------------------------   ----------------
Dispersion correction           -0.004574689
-------------------------   ----------------

------------------   -----------------
gCP correction             0.004038828
------------------   -----------------

-------------------------   --------------------
FINAL SINGLE POINT ENERGY     -2880.950566800068
-------------------------   --------------------

------------------------------------------------------------------------------
                         ORCA SCF GRADIENT CALCULATION
------------------------------------------------------------------------------

Nuc. rep. gradient        (SHARK) ... done (  0.0 sec)
HCore & Overlap gradient  (SHARK) ... done (  0.2 sec)
Split-RIJ-J gradient      (SHARK) ... done (  1.5 sec)
XC gradient                       ... done (  4.4 sec)
CPCM gradient                     ... done (  0.8 sec)
SMD gradient                      ... done (  0.0 sec)
Dispersion correction             ... done (  0.0 sec)

-------------------
DISPERSION GRADIENT
-------------------

   1   C   :   -0.000041448   -0.000056316   -0.000000002
   2   C   :    0.000022959   -0.000055269    0.000000011
   3   C   :    0.000055523   -0.000001033    0.000000017
   4   C   :    0.000025423    0.000052905    0.000000011
   5   C   :   -0.000044644    0.000053220   -0.000000003
   6   C   :   -0.000065828   -0.000000887   -0.000000006
   7   O   :   -0.000088798    0.000014994   -0.000000011
   8   Br  :    0.000180352   -0.000000078   -0.000000011
   9   H   :   -0.000023143   -0.000036816   -0.000000005
  10   H   :    0.000016560   -0.000036620    0.000000006
  11   H   :    0.000017668    0.000036524    0.000000003
  12   H   :   -0.000021915    0.000036094   -0.000000005
  13   H   :   -0.000032710   -0.000006717   -0.000000006

Difference to translation invariance:
           :    0.0000000000   -0.0000000000   -0.0000000000

Difference to rotation invariance:
           :    0.0000000000   -0.0000000000    0.0000000000

Norm of the Dispersion gradient    ...    0.0002699025
RMS gradient                       ...    0.0000432190
MAX gradient                       ...    0.0001803520
gCP correction                   ... done

------------------
CARTESIAN GRADIENT
------------------

   1   C   :    0.007771077   -0.001211957   -0.000013573
   2   C   :   -0.004905704    0.000732675   -0.000011795
   3   C   :   -0.005540864    0.000260546    0.000044855
   4   C   :   -0.004721300   -0.000505290    0.000008079
   5   C   :    0.003471314   -0.001116015   -0.000014737
   6   C   :   -0.012362624   -0.002728069    0.000001704
   7   O   :    0.016095813    0.001650107    0.000005140
   8   Br  :    0.000373777    0.000091134   -0.000020167
   9   H   :    0.001761976    0.005315795    0.000000403
  10   H   :   -0.000980618    0.004040781    0.000004502
  11   H   :   -0.000805237   -0.004012386   -0.000006120
  12   H   :    0.003662111   -0.003844144    0.000000177
  13   H   :   -0.003819720    0.001326824    0.000001532

Difference to translation invariance:
           :    0.0000000003    0.0000000000   -0.0000000000

Difference to rotation invariance:
           :   -0.0000005213    0.0000018901    0.0003900137

Norm of the Cartesian gradient     ...    0.0261770211
RMS gradient                       ...    0.0041916781
MAX gradient                       ...    0.0160958131

-------
TIMINGS
-------

Total SCF gradient time     ....        7.658 sec

Densities                   ....       0.001 sec  (  0.0%)
One electron gradient       ....       0.191 sec  (  2.5%)
RI-J Coulomb gradient       ....       1.546 sec  ( 20.2%)
XC gradient                 ....       4.428 sec  ( 57.8%)
CPCM gradient               ....       0.807 sec  ( 10.5%)
   A-Matrix (El+Nuc)        ....       0.055 sec  (  0.7%)
   Potential                ....       0.752 sec  (  9.8%)
SMD gradient                ....       0.012 sec  (  0.2%)

Maximum memory used throughout the entire SCFGRAD-calculation: 34.6 MB

------------------------------------------------------------------------------
                              ORCA PROPERTY CALCULATIONS
------------------------------------------------------------------------------

GBWName                                 ... xtb_opt.gbw
Number of atoms                         ...     13
Number of basis functions               ...    199
Max core memory                         ...   1024 MB

Electric properties:
Dipole moment                           ... YES
Quadrupole moment                       ...  NO
Static polarizability (Dipole/Dipole)   ...  NO
Static polarizability (Dipole/Quad.)    ...  NO
Static polarizability (Quad./Quad.)     ...  NO
Static polarizability (Velocity)        ...  NO

Atomic electric properties:
Dipole moment                           ...  NO
Quadrupole moment                       ...  NO
Static polarizability                   ...  NO

Choice of electric origin               ... Center of mass
Position of electric origin             ...    -0.000089     0.000001     0.000000

General magnetic properties:
Magnetizability                         ...  NO

EPR properties:
g-Tensor (aka g-matrix)                 ...  NO
Zero-Field splitting spin-orbit         ...  NO
Zero-field splitting spin-spin          ...  NO
Hyperfine couplings                     ...  NO (   0 nuclei)
Quadrupole couplings                    ...  NO (   0 nuclei)
Contact density                         ...  NO (   0 nuclei)

NMR properties:
Chemical shifts                         ...  NO (   0 nuclei)
Spin-rotation constants                 ...  NO (   0 nuclei)
Spin-spin couplings                     ...  NO (   0 nuclei,    0 pairs)

Choice of magnetic origin               ... GIAO
Position of magnetic origin             ...     0.000000     0.000000     0.000000

Properties with geometric perturbations:
SCF Hessian                             ...  NO
IR spectrum                             ...  NO
VCD spectrum                            ...  NO
X-ray spectroscopy properties:
SCF XES/XAS/RIXS spectra                ...  NO


-------------
DIPOLE MOMENT
-------------

Method             : SCF
Type of density    : Electron Density
Multiplicity       :   1
Irrep              :   0
Energy             : -2880.9500309384497996 Eh
Relativity type    : 
Basis              : AO
                                X                 Y                 Z
Electronic contribution:     26.606864059      -0.019261108      -0.001211109
Nuclear contribution   :    -27.825868282       0.785703152       0.001041194
                        -----------------------------------------
Total Dipole Moment    :     -1.219004224       0.766442044      -0.000169915
                        -----------------------------------------
Magnitude (a.u.)       :      1.439932197
Magnitude (Debye)      :      3.660016779



--------------------
Rotational spectrum 
--------------------
 
Rotational constants in cm-1:             0.189571             0.021027             0.018927 
Rotational constants in MHz :          5683.192916           630.365355           567.427724 

Dipole components along the rotational axes: 
x,y,z [a.u.] :     1.219005     0.766442    -0.000170 
x,y,z [Debye]:     3.098463     1.948140    -0.000432 

 

Dipole moment calculation done in   0.0 sec 

Maximum memory used throughout the entire PROP-calculation: 13.0 MB

--------------------------------
SUGGESTED CITATIONS FOR THIS RUN
--------------------------------

Below you find a list of papers that are relevant to this ORCA run
We neither can nor want to force you to cite these papers, but we appreciate if you do
You receive ORCA, which is the product of decades of hard work by many enthusiastic individuals, for free
The only thing we kindly ask in return is that you cite our papers,
We deeply appreciate it, if you show your appreciation for ORCA by not just citing the generic ORCA reference.

Please note that relegating all ORCA citations to the supporting information does *not* help us.
SI sections are not indexed - citations you put there will not count into any citation statistics
But we need these citations in order to attract the funding resources that allow us to do what we are doing

Therefore, if you are a happy ORCA user, please consider citing a few of the papers listed below in the main body of your paper

In addition to the list printed below, the program has created the file xtb_opt.bibtex that contains the list in bibtex format
You can import this file easily into all common literature databanks and citation aid programs


List of essential papers. We consider these as the minimum necessary citations

  1. Neese,F.
     Software update: the ORCA program system, version 5.0
     WIRES Comput. Molec. Sci., 2022 12(1)e1606
     doi.org/10.1002/wcms.1606
  2. Grimme,S.; Hansen,A.; Ehlert,S.; Mewes,J.
     r2SCAN-3c: A 'Swiss army knife' composite electronic-structure method
     J. Chem. Phys., 2021 154 064103
     doi.org/10.1063/5.0040021

List of papers to cite with high priority. The work reported in these papers was absolutely
necessary for this run to complete.
Our perspective: the developers of density functionals and basis sets usually get cited in chemistry papers
Good! But without the algorithms to do something with them, the functionals or basis sets would not do anything.
Hence, in our opinion, the algorithm design and method developments papers are equally worthy of getting cited

  1. Neese,F.
     An improvement of the resolution of the identity approximation for the formation of the Coulomb matrix
     J. Comp. Chem., 2003 24(14)1740-1747
     doi.org/10.1002/jcc.10318
  2. Garcia-Rates,M.; Neese,F.
     Effect of the Solute Cavity on the Solvation Energy and its Derivatives within the Framework of the Gaussian Charge Scheme
     J. Comput. Chem., 2020 41 922-939
     doi.org/10.1002/jcc.26139
  3. Neese,F.
     The SHARK Integral Generation and Digestion System
     J. Comp. Chem., 2022  1-16
     doi.org/10.1002/jcc.26942
  4. Lehtola,S.; Steigemann,C.; Oliveira,M.; Marques,M.
     Recent developments in Libxc - A comprehensive library of functionals for density functional theory
     Software X, 2018 7 
     doi.org/10.1016/j.softx.2017.11.002
  5. Caldeweyher,E.; Bannwarth,C.; Grimme,S.
     Extension of the D3 dispersion coefficient model
     J. Chem. Phys., 2017 147 034112-XXXX
     doi.org/10.1063/1.4993215
  6. Caldeweyher,E.; Ehlert,S.; Hansen,A.; Neugebauer,H.; Spicher,S.; Bannwarth,C.; Grimme,S.
     A generally applicable atomic-charge dependent London dispersion correction
     J. Chem. Phys., 2019 150 154122-XXXX
     doi.org/10.1063/1.5090222
  7. Caldeweyher,E.; Mewes,J.; Ehlert,S.; Grimme,S.
     Extension and evaluation of the D4 London-dispersion model for periodic systems
     Phys. Chem. Chem. Phys., 2020 22(16)8499-8512
     doi.org/10.1039/D0CP00502A

List of suggested additional citations. These are papers that are important in the 'surrounding' of 
of this run, or papers that preceded the highly important papers. If you like your results we are grateful for a citation.

  1. Neese,F.
     The ORCA program system
     WIRES Comput. Molec. Sci., 2012 2(1)73-78
     doi.org/10.1002/wcms.81
  2. Neese,F.
     Software update: the ORCA program system, version 4.0
     WIRES Comput. Molec. Sci., 2018 8(1)1-6
     doi.org/10.1002/wcms.1327
  3. Neese,F.; Wennmohs,F.; Becker,U.; Riplinger,C.
     The ORCA quantum chemistry program package
     J. Chem. Phys., 2020 152 Art. No. L224108
     doi.org/10.1063/5.0004608

List of optional additional citations

  1. Neese,F.
     Approximate second-order SCF convergence for spin unrestricted wavefunctions
     Chem. Phys. Lett., 2000 325(1-3)93-98
     doi.org/10.1016/s0009-2614(00)00662-x

Timings for individual modules:

Sum of individual times          ...       17.001 sec (=   0.283 min)
Startup calculation              ...        1.067 sec (=   0.018 min)   6.3 %
SCF iterations                   ...        8.081 sec (=   0.135 min)  47.5 %
Property calculations            ...        0.099 sec (=   0.002 min)   0.6 %
SCF Gradient evaluation          ...        7.753 sec (=   0.129 min)  45.6 %
                             ****ORCA TERMINATED NORMALLY****
TOTAL RUN TIME: 0 days 0 hours 0 minutes 17 seconds 673 msec
  ------------------------------------------------------------------------
          * successful ORCA run, taking over control again...

         :::::::::::::::::::::::::::::::::::::::::::::::::::::
         ::                  ORCA SUMMARY                   ::
         :::::::::::::::::::::::::::::::::::::::::::::::::::::
         :: total energy           -2880.950566800068 Eh    ::
         :: gradient norm              0.026177021112 Eh/a0 ::
         :: HOMO-LUMO gap              0.000000000000 eV    ::
         :::::::::::::::::::::::::::::::::::::::::::::::::::::

      ----------------------------------------------------------- 
     |                       L-ANC optimizer                     |
      ----------------------------------------------------------- 
          low memory version by Sebastian Ehlert

          ...................................................
          :                      SETUP                      :
          :.................................................:
          :   energy convergence        0.5000000E-05 Eh    :
          :   grad. convergence         0.1000000E-02 Eh/a0 :
          :   optimization log               true           :
          :   writing optlog all                1     steps :
          :   Hessian reset                    20     steps :
          :   maximium step len.        1.0000000     a0    :
          :   LBFGS images                     20           :
          ...................................................
 * calculating model hessian...
Using Lindh-Hessian (1995)
 Shifting diagonal of input Hessian by   1.000000000000000E-002
 Lowest  eigenvalues of input Hessian
    0.000000    0.000000    0.000000    0.000000    0.000000    0.000000
    0.014715    0.023697    0.025553    0.032958    0.034249    0.051497
    0.054015    0.074898    0.086222    0.101805    0.109825    0.112938
 Highest eigenvalues
    1.489286    1.604841    1.716026    1.898986    2.014014    2.108525
 

........................................................................
.............................. CYCLE    1 ..............................
........................................................................
                         * ORCA takes the control...
  ------------------------------------------------------------------------

                                 *****************
                                 * O   R   C   A *
                                 *****************

                                            #,                                       
                                            ###                                      
                                            ####                                     
                                            #####                                    
                                            ######                                   
                                           ########,                                 
                                     ,,################,,,,,                         
                               ,,#################################,,                 
                          ,,##########################################,,             
                       ,#########################################, ''#####,          
                    ,#############################################,,   '####,        
                  ,##################################################,,,,####,       
                ,###########''''           ''''###############################       
              ,#####''   ,,,,##########,,,,          '''####'''          '####       
            ,##' ,,,,###########################,,,                        '##       
           ' ,,###''''                  '''############,,,                           
         ,,##''                                '''############,,,,        ,,,,,,###''
      ,#''                                            '''#######################'''  
     '                                                          ''''####''''         
             ,#######,   #######,   ,#######,      ##                                
            ,#'     '#,  ##    ##  ,#'     '#,    #''#        ,####,   ,####,        
            ##       ##  ##   ,#'  ##            #'  '#       #'       #'  '#        
            ##       ##  #######   ##           ,######,      #####,   #    #        
            '#,     ,#'  ##    ##  '#,     ,#' ,#      #,     #,   #   #,  ,#        
             '#######'   ##     ##  '#######'  #'      '#     '####' # '####'        



                #########################################################
                #                        -***-                          #
                #          Department of theory and spectroscopy        #
                #                                                       #
                #                      Frank Neese                      #
                #                                                       #
                #     Directorship, Architecture, Infrastructure        #
                #                    SHARK, DRIVERS                     #
                #        Core code/Algorithms in most modules           #
                #                                                       #
                #        Max Planck Institute fuer Kohlenforschung      #
                #                Kaiser Wilhelm Platz 1                 #
                #                 D-45470 Muelheim/Ruhr                 #
                #                      Germany                          #
                #                                                       #
                #                  All rights reserved                  #
                #                        -***-                          #
                #########################################################


                         Program Version 6.0.0  -   RELEASE  -


 With contributions from (in alphabetic order):
   Daniel Aravena         : Magnetic Suceptibility
   Michael Atanasov       : Ab Initio Ligand Field Theory (pilot matlab implementation)
   Alexander A. Auer      : GIAO ZORA, VPT2 properties, NMR spectrum
   Ute Becker             : All parallelization in ORCA, NUMFREQ, NUMCALC
   Giovanni Bistoni       : ED, misc. LED, open-shell LED, HFLD
   Martin Brehm           : Molecular dynamics
   Dmytro Bykov           : pre 5.0 version of the SCF Hessian
   Marcos Casanova-Páez   : Triplet and SCS-CIS(D). UHF-(DLPNO)-IP/EA/STEOM-CCSD. UHF-CVS-IP/STEOM-CCSD
   Vijay G. Chilkuri      : MRCI spin determinant printing, contributions to CSF-ICE
   Pauline Colinet        : FMM embedding
   Dipayan Datta          : RHF DLPNO-CCSD density
   Achintya Kumar Dutta   : EOM-CC, STEOM-CC
   Nicolas Foglia         : Exact transition moments, OPA infrastructure, MCD improvements
   Dmitry Ganyushin       : Spin-Orbit,Spin-Spin,Magnetic field MRCI
   Miquel Garcia          : C-PCM and meta-GGA Hessian, CCSD/C-PCM, Gaussian charge scheme
   Tiago L. C. Gouveia    : GS-ROHF, GS-ROCIS
   Yang Guo               : DLPNO-NEVPT2, F12-NEVPT2, CIM, IAO-localization
   Andreas Hansen         : Spin unrestricted coupled pair/coupled cluster methods
   Ingolf Harden          : AUTO-CI MPn and infrastructure 
   Benjamin Helmich-Paris : MC-RPA, TRAH-(SCF,CASSCF), AVAS, COSX integrals, SCF dyn. polar.
   Lee Huntington         : MR-EOM, pCC
   Robert Izsak           : Overlap fitted RIJCOSX, COSX-SCS-MP3, EOM
   Riya Kayal             : Wick's Theorem for AUTO-CI, AUTO-CI UHF-CCSDT
   Emily Kempfer          : AUTO-CI, RHF CISDT and CCSDT
   Christian Kollmar      : KDIIS, OOCD, Brueckner-CCSD(T), CCSD density, CASPT2, CASPT2-K, improved NEVPT2
   Axel Koslowski         : Symmetry handling
   Simone Kossmann        : Meta GGA functionals, TD-DFT gradient, OOMP2, (MP2 Hessian; deprecated post 5.0)
   Lucas Lang             : DCDCAS
   Marvin Lechner         : AUTO-CI (C++ implementation), FIC-MRCC
   Spencer Leger          : CASSCF response
   Dagmar Lenk            : GEPOL surface, SMD, ORCA-2-JSON
   Dimitrios Liakos       : Extrapolation schemes; Compound Job, initial MDCI parallelization
   Dimitrios Manganas     : Further ROCIS development; embedding schemes. LFT, Crystal Embedding
   Dimitrios Pantazis     : SARC Basis sets
   Anastasios Papadopoulos: AUTO-CI, single reference methods and gradients
   Taras Petrenko         : pre 6.0 DFT Hessian and TD-DFT gradient, (ASA, deprecated), ECA, 1-Electron XAS/XES, NRVS
   Peter Pinski           : DLPNO-MP2, DLPNO-MP2 Gradient
   Christoph Reimann      : Effective Core Potentials
   Marius Retegan         : Local ZFS, SOC
   Christoph Riplinger    : Optimizer, TS searches, QM/MM, DLPNO-CCSD(T), (RO)-DLPNO pert. Triples
   Michael Roemelt        : Original ROCIS implementation
   Masaaki Saitow         : Open-shell DLPNO-CCSD energy and density
   Barbara Sandhoefer     : DKH picture change effects
   Kantharuban Sivalingam : CASSCF convergence/infrastructure, NEVPT2 and variants, FIC-MRCI
   Bernardo de Souza      : ESD, SOC TD-DFT
   Georgi Stoychev        : AutoAux, RI-MP2 NMR, DLPNO-MP2 response, X2C
   Van Anh Tran           : RI-MP2 g-tensors
   Willem Van den Heuvel  : Paramagnetic NMR
   Zikuan Wang            : NOTCH, Electric field optimization 
   Frank Wennmohs         : Technical directorship and infrastructure
   Hang Xu                : AUTO-CI-Response properties 


 We gratefully acknowledge several colleagues who have allowed us to
 interface, adapt or use parts of their codes:
   Stefan Grimme, W. Hujo, H. Kruse, P. Pracht,  : VdW corrections, initial TS optimization,
                  C. Bannwarth, S. Ehlert,         DFT functionals, gCP, sTDA/sTD-DF
                  L. Wittmann, M. Mueller
   Ed Valeev, F. Pavosevic, A. Kumar             : LibInt (2-el integral package), F12 methods
   Garnet Chan, S. Sharma, J. Yang, R. Olivares  : DMRG
   Ulf Ekstrom                                   : XCFun DFT Library
   Mihaly Kallay                                 : mrcc  (arbitrary order and MRCC methods)
   Frank Weinhold                                : gennbo (NPA and NBO analysis)
   Simon Mueller                                 : openCOSMO-RS
   Christopher J. Cramer and Donald G. Truhlar   : smd solvation model
   Lars Goerigk                                  : TD-DFT with DH, B97 family of functionals
   V. Asgeirsson, H. Jonsson                     : NEB implementation
   FAccTs GmbH                                   : IRC, NEB, NEB-TS, DLPNO-Multilevel, CI-OPT
                                                   MM, QMMM, 2- and 3-layer-ONIOM, Crystal-QMMM,
                                                   LR-CPCM, SF, NACMEs, symmetry and pop. for TD-DFT,
                                                   nearIR, NL-DFT gradient (VV10), updates on ESD,
                                                   ML-optimized integration grids, MBIS, APM,
                                                   GOAT, DOCKER, SOLVATOR, interface openCOSMO-RS
   S Lehtola, MJT Oliveira, MAL Marques          : LibXC Library
   Liviu Ungur et al                             : ANISO software


 Your calculation uses the libint2 library for the computation of 2-el integrals
 For citations please refer to: http://libint.valeyev.net

 Your ORCA version has been built with support for libXC version: 6.2.2
 For citations please refer to: https://libxc.gitlab.io

 This ORCA versions uses:
   CBLAS   interface :  Fast vector & matrix operations
   LAPACKE interface :  Fast linear algebra routines
   SCALAPACK package :  Parallel linear algebra routines
   Shared memory     :  Shared parallel matrices
   BLAS/LAPACK       :  OpenBLAS 0.3.27  USE64BITINT DYNAMIC_ARCH NO_AFFINITY SkylakeX SINGLE_THREADED
        Core in use  :  SkylakeX
   Copyright (c) 2011-2014, The OpenBLAS Project




***************************************
The coordinates will be read from file: xtb_opt.xyz
***************************************


Your calculation utilizes the geometrical counterpoise correction gCP
Please cite in your paper:
H.Kruse, S. Grimme J.Chem.Phys., 136, (2012), 154101 
   

Your calculation utilizes the atom-pairwise dispersion correction
based on EEQ partial charges (D4)


Your calculation utilizes the SMD solvation module
Please cite in your paper:
A.V. Marenich, C.J. Cramer, D.G. Truhlar J. Phys. Chem. B, 113, (2009), 6378 

================================================================================

----- Orbital basis set information -----
Your calculation utilizes the basis: def2-mTZVPP
   Stefan Grimme, Andreas Hansen, Sebastian Ehlert, and Jan-Michael Mewes 
   J. Chem. Phys. 154, 064103 (2021). DOI: 10.1063/5.0040021

----- AuxJ basis set information -----
Your calculation utilizes the auxiliary basis: def2/J
   F. Weigend, Phys. Chem. Chem. Phys. 8, 1057 (2006).

================================================================================
                                        WARNINGS
                       Please study these warnings very carefully!
================================================================================

WARNING: Old DensityContainer found on disk!
         Will remove this file - 
         If you want to keep old densities, please start your calculation with a different basename. 

Using LibXC functional ID 497 : Re-regularized SCAN exchange by Furness et al
[ 1]  J. W. Furness, A. D. Kaplan, J. Ning, J. P. Perdew, and J. Sun.,  J. Phys. Chem. Lett. 11, 8208-8215 (2020)
[ 2]  J. W. Furness, A. D. Kaplan, J. Ning, J. P. Perdew, and J. Sun.,  J. Phys. Chem. Lett. 11, 9248-9248 (2020)
Using LibXC functional ID 498 : Re-regularized SCAN correlation by Furness et al
[ 1]  J. W. Furness, A. D. Kaplan, J. Ning, J. P. Perdew, and J. Sun.,  J. Phys. Chem. Lett. 11, 8208-8215 (2020)
[ 2]  J. W. Furness, A. D. Kaplan, J. Ning, J. P. Perdew, and J. Sun.,  J. Phys. Chem. Lett. 11, 9248-9248 (2020)
Using LibXC functional ID 497 : Re-regularized SCAN exchange by Furness et al
[ 1]  J. W. Furness, A. D. Kaplan, J. Ning, J. P. Perdew, and J. Sun.,  J. Phys. Chem. Lett. 11, 8208-8215 (2020)
[ 2]  J. W. Furness, A. D. Kaplan, J. Ning, J. P. Perdew, and J. Sun.,  J. Phys. Chem. Lett. 11, 9248-9248 (2020)
Using LibXC functional ID 498 : Re-regularized SCAN correlation by Furness et al
[ 1]  J. W. Furness, A. D. Kaplan, J. Ning, J. P. Perdew, and J. Sun.,  J. Phys. Chem. Lett. 11, 8208-8215 (2020)
[ 2]  J. W. Furness, A. D. Kaplan, J. Ning, J. P. Perdew, and J. Sun.,  J. Phys. Chem. Lett. 11, 9248-9248 (2020)

================================================================================
                                       INPUT FILE
================================================================================
NAME = xtb_opt.inp
|  1> ! r2scan-3c def2/J RI DEFGRID2 scfconv7 ENGRAD tightSCF miniprint
|  2> %cpcm
|  3>     smd true
|  4>     smdsolvent "water"
|  5> end
|  6> * xyzfile 0 1 xtb_opt.xyz
|  7> 
|  8>                          ****END OF INPUT****
================================================================================

                     *******************************
                     * Energy+Gradient Calculation *
                     *******************************

---------------------------------
CARTESIAN COORDINATES (ANGSTROEM)
---------------------------------
  C     -1.939467   -1.207501    0.000054
  C     -0.552638   -1.210759    0.000191
  C      0.127664    0.000195    0.000153
  C     -0.550396    1.210357    0.000118
  C     -1.939611    1.208887    0.000017
  C     -2.638642    0.001461   -0.000043
  O     -3.997824   -0.057281   -0.000208
  Br     2.049988   -0.001314    0.000397
  H     -2.493462   -2.139010   -0.000054
  H     -0.011555   -2.148612    0.000245
  H     -0.008918    2.147951    0.000132
  H     -2.478090    2.150798   -0.000116
  H     -4.375230    0.833902   -0.000175

----------------------------
CARTESIAN COORDINATES (A.U.)
----------------------------
  NO LB      ZA    FRAG     MASS         X           Y           Z
   0 C     6.0000    0    12.011   -3.665061   -2.281845    0.000102
   1 C     6.0000    0    12.011   -1.044335   -2.288003    0.000362
   2 C     6.0000    0    12.011    0.241249    0.000369    0.000289
   3 C     6.0000    0    12.011   -1.040098    2.287242    0.000222
   4 C     6.0000    0    12.011   -3.665333    2.284466    0.000032
   5 C     6.0000    0    12.011   -4.986311    0.002762   -0.000081
   6 O     8.0000    0    15.999   -7.554793   -0.108246   -0.000393
   7 Br   35.0000    0    79.900    3.873915   -0.002483    0.000750
   8 H     1.0000    0     1.008   -4.711961   -4.042144   -0.000103
   9 H     1.0000    0     1.008   -0.021835   -4.060287    0.000462
  10 H     1.0000    0     1.008   -0.016853    4.059038    0.000250
  11 H     1.0000    0     1.008   -4.682911    4.064418   -0.000220
  12 H     1.0000    0     1.008   -8.267986    1.575847   -0.000331

------------------------------------------------------------------------------
                   ___                                                        
                  /   \      - P O W E R E D   B Y -                         
                 /     \                                                     
                 |  |  |   _    _      __       _____    __    __             
                 |  |  |  | |  | |    /  \     |  _  \  |  |  /  |          
                  \  \/   | |  | |   /    \    | | | |  |  | /  /          
                 / \  \   | |__| |  /  /\  \   | |_| |  |  |/  /          
                |  |  |   |  __  | /  /__\  \  |    /   |      \           
                |  |  |   | |  | | |   __   |  |    \   |  |\   \          
                \     /   | |  | | |  |  |  |  | |\  \  |  | \   \       
                 \___/    |_|  |_| |__|  |__|  |_| \__\ |__|  \__/        
                                                                              
                      - O R C A' S   B I G   F R I E N D -                    
                                      &                                       
                       - I N T E G R A L  F E E D E R -                       
                                                                              
 v1 FN, 2020, v2 2021, v3 2022-2024                                           
------------------------------------------------------------------------------


----------------------
SHARK INTEGRAL PACKAGE
----------------------

Number of atoms                             ...     13
Number of basis functions                   ...    199
Number of shells                            ...     93
Maximum angular momentum                    ...      2
Integral batch strategy                     ... SHARK/LIBINT Hybrid
RI-J (if used) integral strategy            ... SPLIT-RIJ (Revised 2003 algorithm where possible)
Printlevel                                  ...      1
Contraction scheme used                     ... SEGMENTED contraction
Prescreening option                         ... SCHWARTZ
   Thresh                                   ... 3.000e-11
   Tcut                                     ... 1.000e-12
   Tpresel                                  ... 1.000e-12 
Coulomb Range Separation                    ... NOT USED
Exchange Range Separation                   ... NOT USED
Multipole approximations                    ... NOT USED
Finite Nucleus Model                        ... NOT USED
CABS basis                                  ... NOT available
Auxiliary Coulomb fitting basis             ... AVAILABLE
   # of basis functions in Aux-J            ...    456
   # of shells in Aux-J                     ...    148
   Maximum angular momentum in Aux-J        ...      4
Auxiliary J/K fitting basis                 ... NOT available
Auxiliary Correlation fitting basis         ... NOT available
Auxiliary 'external' fitting basis          ... NOT available

Checking pre-screening integrals            ... done (  0.0 sec) Dimension = 93
Check shell pair data                       ... done (  0.0 sec)
Shell pair information
Shell pair cut-off parameter TPreSel        ...   1.0e-12
Total number of shell pairs                 ...      4371
Shell pairs after pre-screening             ...      3889
Total number of primitive shell pairs       ...     18190
Primitive shell pairs kept                  ...     11217
          la=0 lb=0:   1135 shell pairs
          la=1 lb=0:   1427 shell pairs
          la=1 lb=1:    462 shell pairs
          la=2 lb=0:    493 shell pairs
          la=2 lb=1:    313 shell pairs
          la=2 lb=2:     59 shell pairs

Calculating one electron integrals          ... done (  0.0 sec)
Calculating RI/J V-Matrix + Cholesky decomp.... done (  0.1 sec)
Calculating Nuclear repulsion               ... done (  0.0 sec) ENN=    521.132283448085 Eh

Diagonalization of the overlap matrix:
Smallest eigenvalue                        ... 3.188e-05
Time for diagonalization                   ...    0.004 sec
Threshold for overlap eigenvalues          ... 1.000e-07
Number of eigenvalues below threshold      ... 0
Time for construction of square roots      ...    0.017 sec
Total time needed                          ...    0.029 sec

-------------------
DFT GRID GENERATION
-------------------

General Integration Accuracy     IntAcc      ... 4.388
Radial Grid Type                 RadialGrid  ... OptM3 with GC (2021)
Angular Grid (max. ang.)         AngularGrid ... 4 (Lebedev-302)
Angular grid pruning method      GridPruning ... 4 (adaptive)
Weight generation scheme         WeightScheme... mBecke (2022)
Basis function cutoff            BFCut       ... 1.0000e-11
Integration weight cutoff        WCut        ... 1.0000e-14
Partially contracted basis set               ... off
Rotationally invariant grid construction     ... off
Angular grids for H and He will be reduced by one unit
Diffuse basis detected: some atoms will have their outermost
                        angular grid increased by 1.
Core-polarized basis detected: some atoms will have their core
                               angular grid increased.

Total number of grid points                  ...    69863
Total number of batches                      ...     1099
Average number of points per batch           ...       63
Average number of grid points per atom       ...     5374
Initializing property integral containers    ... done (  0.0 sec)

SHARK setup successfully completed in   1.0 seconds

Maximum memory used throughout the entire STARTUP-calculation: 35.7 MB
Occupation numbers will be reassigned to an Aufbau configuration
             **** ENERGY FILE WAS UPDATED (xtb_opt.en.tmp) ****
Finished Guess after   0.3 sec
Maximum memory used throughout the entire GUESS-calculation: 14.4 MB
--------------------
CPCM SOLVATION MODEL
--------------------
CPCM parameters:
  Epsilon                                         ...      78.3550
  Refrac                                          ...       1.3328
  Rsolv                                           ...       1.3000
  Surface type                                    ... GAUSSIAN VDW
  Discretization scheme                           ... Constant charge density
    Threshold for H atoms                         ...       5.0000 (charges/Ang^2)
    Threshold for non-H atoms                     ...       5.0000 (charges/Ang^2)
  Epsilon function type                           ...         CPCM
Solvent:                                          ... WATER
SMD-CDS solvent descriptors:
  Soln                                            ...       1.3328
  Soln25                                          ...       1.3323
  Sola                                            ...       0.0000
  Solb                                            ...       0.0000
  Solg                                            ...       0.0000
  Solc                                            ...       0.0000
  Solh                                            ...       0.0000
Radii:
  Scheme                                          ... Element-dependent radii
  Radius for C  used is    3.4960 Bohr (=   1.8500 Ang.)
  Radius for O  used is    2.8724 Bohr (=   1.5200 Ang.)
  Radius for Br used is    5.7826 Bohr (=   3.0600 Ang.)
  Radius for H  used is    2.2677 Bohr (=   1.2000 Ang.)
Calculating surface                               ...        done! (  0.0s)
Cavity surface points                             ...         1331
Cavity Volume                                     ...    1289.9718
Cavity Surface-area                               ...     666.7470
Calculating surface distance matrix               ...        done! (  0.0s)
Performing Cholesky decomposition & store         ...        done! (  0.1s)
Overall time for CPCM initialization              ...                 0.1s

----------------------------------------D-I-I-S--------------------------------------------
Iteration    Energy (Eh)           Delta-E    RMSDP     MaxDP     DIISErr   Damp  Time(sec)
-------------------------------------------------------------------------------------------
               ***  Starting incremental Fock matrix formation  ***
    1    -2880.9546808043915007     0.00e+00  7.97e-05  2.13e-03  4.04e-03  0.700   2.6
                              *** Initializing SOSCF ***
---------------------------------------S-O-S-C-F--------------------------------------
Iteration    Energy (Eh)           Delta-E    RMSDP     MaxDP     MaxGrad    Time(sec)
--------------------------------------------------------------------------------------
    2    -2880.9547200365445860    -3.92e-05  2.23e-04  6.38e-03  2.96e-03     2.3
               *** Restarting incremental Fock matrix formation ***
    3    -2880.9548023211445980    -8.23e-05  6.25e-05  1.06e-03  3.93e-04     2.6
    4    -2880.9547986883067097     3.63e-06  3.09e-05  7.02e-04  5.34e-04     2.2
    5    -2880.9548069370084704    -8.25e-06  1.92e-05  3.95e-04  1.28e-04     2.2
    6    -2880.9548062276439850     7.09e-07  1.17e-05  2.25e-04  2.32e-04     2.2
    7    -2880.9548073016449052    -1.07e-06  3.38e-06  1.23e-04  1.90e-05     2.4
                  *** Gradient check signals convergence ***

               *****************************************************
               *                     SUCCESS                       *
               *           SCF CONVERGED AFTER   7 CYCLES          *
               *****************************************************


SMD CDS free energy correction energy :                 2.60888     Kcal/mol
Total Energy after SMD CDS correction =             -2880.950649792 Eh
             **** ENERGY FILE WAS UPDATED (xtb_opt.en.tmp) ****

----------------
TOTAL SCF ENERGY
----------------

Total Energy       :      -2880.95064979185690 Eh          -78394.65269 eV

Components:
Nuclear Repulsion  :        521.13228344808522 Eh           14180.73037 eV
Electronic Energy  :      -3402.06953045479349 Eh          -92575.01835 eV
One Electron Energy:      -5034.08831543950873 Eh         -136984.50722 eV
Two Electron Energy:       1632.01878498471547 Eh           44409.48887 eV
CPCM Dielectric    :         -0.01756029493656 Eh              -0.47784 eV
SMD CDS (Gcds)     :          0.00415750978814 Eh               0.11313 eV

Virial components:
Potential Energy   :      -5757.10116819221639 Eh         -156658.68716 eV
Kinetic Energy     :       2876.15051840035949 Eh           78264.03447 eV
Virial Ratio       :          2.00166894304063

DFT components:
N(Alpha)           :       42.000008539841 electrons
N(Beta)            :       42.000008539841 electrons
N(Total)           :       84.000017079681 electrons
E(X)               :     -130.888364468144 Eh       
E(C)               :       -3.328816564540 Eh       
E(XC)              :     -134.217181032684 Eh       

CPCM Solvation Model Properties:
Surface-charge          :         -0.02345771587095
Corrected charge        :          0.00000000000000
Outlying charge corr.   :          0.00003788403405 Eh               0.00103 eV
Free-energy (cav+disp)  :          0.00415750978814 Eh               0.11313 eV

---------------
SCF CONVERGENCE
---------------

  Last Energy change         ...    1.0740e-06  Tolerance :   1.0000e-07
  Last MAX-Density change    ...    1.2257e-04  Tolerance :   1.0000e-07
  Last RMS-Density change    ...    3.3842e-06  Tolerance :   5.0000e-09
  Last DIIS Error            ...    2.9637e-03  Tolerance :   1.0000e-07
  Last Orbital Gradient      ...    1.8971e-05  Tolerance :   1.0000e-04
  Last Orbital Rotation      ...    4.8136e-05  Tolerance :   1.0000e-04


----------------
ORBITAL ENERGIES
----------------

  NO   OCC          E(Eh)            E(eV) 
   0   2.0000    -482.228125    -13122.0944 
   1   2.0000     -62.299611     -1695.2586 
   2   2.0000     -56.079929     -1526.0125 
   3   2.0000     -56.077463     -1525.9453 
   4   2.0000     -56.077416     -1525.9441 
   5   2.0000     -18.986920      -516.6604 
   6   2.0000     -10.105832      -274.9937 
   7   2.0000     -10.092421      -274.6287 
   8   2.0000     -10.051240      -273.5082 
   9   2.0000     -10.051073      -273.5036 
  10   2.0000     -10.043803      -273.3058 
  11   2.0000     -10.042293      -273.2647 
  12   2.0000      -8.631420      -234.8729 
  13   2.0000      -6.438820      -175.2092 
  14   2.0000      -6.425341      -174.8424 
  15   2.0000      -6.425080      -174.8353 
  16   2.0000      -2.536429       -69.0197 
  17   2.0000      -2.533038       -68.9275 
  18   2.0000      -2.532898       -68.9237 
  19   2.0000      -2.522856       -68.6504 
  20   2.0000      -2.522853       -68.6503 
  21   2.0000      -1.030928       -28.0530 
  22   2.0000      -0.841977       -22.9114 
  23   2.0000      -0.766459       -20.8564 
  24   2.0000      -0.730553       -19.8794 
  25   2.0000      -0.688822       -18.7438 
  26   2.0000      -0.601318       -16.3627 
  27   2.0000      -0.573214       -15.5979 
  28   2.0000      -0.521246       -14.1838 
  29   2.0000      -0.463477       -12.6119 
  30   2.0000      -0.441567       -12.0157 
  31   2.0000      -0.415764       -11.3135 
  32   2.0000      -0.401166       -10.9163 
  33   2.0000      -0.392465       -10.6795 
  34   2.0000      -0.367256        -9.9935 
  35   2.0000      -0.341179        -9.2839 
  36   2.0000      -0.341008        -9.2793 
  37   2.0000      -0.318149        -8.6573 
  38   2.0000      -0.275382        -7.4935 
  39   2.0000      -0.266498        -7.2518 
  40   2.0000      -0.250784        -6.8242 
  41   2.0000      -0.206742        -5.6257 
  42   0.0000      -0.046106        -1.2546 
  43   0.0000      -0.029563        -0.8044 
  44   0.0000      -0.024946        -0.6788 
  45   0.0000       0.079741         2.1699 
  46   0.0000       0.105754         2.8777 
  47   0.0000       0.113086         3.0772 
  48   0.0000       0.121760         3.3133 
  49   0.0000       0.132494         3.6053 
  50   0.0000       0.152929         4.1614 
  51   0.0000       0.165382         4.5003 
  52   0.0000       0.172671         4.6986 
*Only the first 10 virtual orbitals were printed.
Total SCF time: 0 days 0 hours 0 min 16 sec 
Finished LeanSCF after  17.0 sec

Maximum memory used throughout the entire LEANSCF-calculation: 26.2 MB


-------------------------------------------------------------------------------
                          DFT DISPERSION CORRECTION                            
                                                                               
                                DFTD4 V3.4.0                                   
-------------------------------------------------------------------------------
-------------------------   ----------------
Dispersion correction           -0.004565172
-------------------------   ----------------

------------------   -----------------
gCP correction             0.004009482
------------------   -----------------

-------------------------   --------------------
FINAL SINGLE POINT ENERGY     -2880.951205480988
-------------------------   --------------------

------------------------------------------------------------------------------
                         ORCA SCF GRADIENT CALCULATION
------------------------------------------------------------------------------

Nuc. rep. gradient        (SHARK) ... done (  0.0 sec)
HCore & Overlap gradient  (SHARK) ... done (  0.2 sec)
Split-RIJ-J gradient      (SHARK) ... done (  1.5 sec)
XC gradient                       ... done (  4.3 sec)
CPCM gradient                     ... done (  0.8 sec)
SMD gradient                      ... done (  0.0 sec)
Dispersion correction             ... done (  0.0 sec)

-------------------
DISPERSION GRADIENT
-------------------

   1   C   :   -0.000041620   -0.000056616   -0.000000002
   2   C   :    0.000023090   -0.000055793    0.000000004
   3   C   :    0.000055806   -0.000001023    0.000000004
   4   C   :    0.000025609    0.000053501    0.000000001
   5   C   :   -0.000044773    0.000053612   -0.000000005
[...]
E(XC)              :     -134.207151194101 Eh       

CPCM Solvation Model Properties:
Surface-charge          :         -0.02349032885517
Corrected charge        :         -0.00000000000000
Outlying charge corr.   :          0.00003798296515 Eh               0.00103 eV
Free-energy (cav+disp)  :          0.00401341876445 Eh               0.10921 eV

---------------
SCF CONVERGENCE
---------------

  Last Energy change         ...    2.2351e-09  Tolerance :   1.0000e-07
  Last MAX-Density change    ...    4.1181e-05  Tolerance :   1.0000e-07
  Last RMS-Density change    ...    1.7791e-06  Tolerance :   5.0000e-09
  Last DIIS Error            ...    2.4251e-05  Tolerance :   1.0000e-07
  Last Orbital Gradient      ...    1.2030e-05  Tolerance :   1.0000e-04
  Last Orbital Rotation      ...    4.7752e-05  Tolerance :   1.0000e-04


----------------
ORBITAL ENERGIES
----------------

  NO   OCC          E(Eh)            E(eV) 
   0   2.0000    -482.228440    -13122.1030 
   1   2.0000     -62.299942     -1695.2676 
   2   2.0000     -56.080261     -1526.0215 
   3   2.0000     -56.077791     -1525.9543 
   4   2.0000     -56.077746     -1525.9530 
   5   2.0000     -18.986285      -516.6431 
   6   2.0000     -10.106017      -274.9987 
   7   2.0000     -10.093452      -274.6568 
   8   2.0000     -10.052347      -273.5383 
   9   2.0000     -10.052010      -273.5291 
  10   2.0000     -10.045012      -273.3387 
  11   2.0000     -10.043316      -273.2925 
  12   2.0000      -8.631785      -234.8828 
  13   2.0000      -6.439199      -175.2195 
  14   2.0000      -6.425706      -174.8524 
  15   2.0000      -6.425434      -174.8449 
  16   2.0000      -2.536809       -69.0301 
  17   2.0000      -2.533415       -68.9377 
  18   2.0000      -2.533266       -68.9337 
  19   2.0000      -2.523213       -68.6601 
  20   2.0000      -2.523210       -68.6600 
  21   2.0000      -1.026705       -27.9381 
  22   2.0000      -0.842167       -22.9165 
  23   2.0000      -0.767113       -20.8742 
  24   2.0000      -0.730663       -19.8823 
  25   2.0000      -0.688759       -18.7421 
  26   2.0000      -0.600877       -16.3507 
  27   2.0000      -0.572129       -15.5684 
  28   2.0000      -0.518809       -14.1175 
  29   2.0000      -0.463715       -12.6183 
  30   2.0000      -0.440868       -11.9966 
  31   2.0000      -0.415892       -11.3170 
  32   2.0000      -0.401477       -10.9247 
  33   2.0000      -0.390864       -10.6360 
  34   2.0000      -0.368293       -10.0218 
  35   2.0000      -0.340909        -9.2766 
  36   2.0000      -0.340333        -9.2609 
  37   2.0000      -0.319985        -8.7072 
  38   2.0000      -0.275593        -7.4993 
  39   2.0000      -0.266775        -7.2593 
  40   2.0000      -0.250934        -6.8283 
  41   2.0000      -0.207717        -5.6523 
  42   0.0000      -0.047102        -1.2817 
  43   0.0000      -0.030475        -0.8293 
  44   0.0000      -0.024895        -0.6774 
  45   0.0000       0.078841         2.1454 
  46   0.0000       0.104834         2.8527 
  47   0.0000       0.112024         3.0483 
  48   0.0000       0.121014         3.2930 
  49   0.0000       0.132105         3.5948 
  50   0.0000       0.152186         4.1412 
  51   0.0000       0.163765         4.4563 
  52   0.0000       0.172526         4.6947 
*Only the first 10 virtual orbitals were printed.
Total SCF time: 0 days 0 hours 0 min 5 sec 
Finished LeanSCF after   5.6 sec

Maximum memory used throughout the entire LEANSCF-calculation: 26.1 MB


-------------------------------------------------------------------------------
                          DFT DISPERSION CORRECTION                            
                                                                               
                                DFTD4 V3.4.0                                   
-------------------------------------------------------------------------------
-------------------------   ----------------
Dispersion correction           -0.004563358
-------------------------   ----------------

------------------   -----------------
gCP correction             0.004013010
------------------   -----------------

-------------------------   --------------------
FINAL SINGLE POINT ENERGY     -2880.951368120966
-------------------------   --------------------

------------------------------------------------------------------------------
                         ORCA SCF GRADIENT CALCULATION
------------------------------------------------------------------------------

Nuc. rep. gradient        (SHARK) ... done (  0.0 sec)
HCore & Overlap gradient  (SHARK) ... done (  0.2 sec)
Split-RIJ-J gradient      (SHARK) ... done (  1.5 sec)
XC gradient                       ... done (  4.4 sec)
CPCM gradient                     ... done (  0.8 sec)
SMD gradient                      ... done (  0.0 sec)
Dispersion correction             ... done (  0.0 sec)

-------------------
DISPERSION GRADIENT
-------------------

   1   C   :   -0.000041597   -0.000056824   -0.000000003
   2   C   :    0.000023230   -0.000055912    0.000000003
   3   C   :    0.000055883   -0.000001032    0.000000005
   4   C   :    0.000025716    0.000053566    0.000000001
   5   C   :   -0.000044916    0.000053696   -0.000000005
   6   C   :   -0.000066129   -0.000000903   -0.000000006
   7   O   :   -0.000088012    0.000015477   -0.000000008
   8   Br  :    0.000180348   -0.000000090    0.000000018
   9   H   :   -0.000022977   -0.000037094   -0.000000001
  10   H   :    0.000016303   -0.000036774    0.000000002
  11   H   :    0.000017432    0.000036774    0.000000001
  12   H   :   -0.000021991    0.000036013   -0.000000003
  13   H   :   -0.000033291   -0.000006897   -0.000000003

Difference to translation invariance:
           :    0.0000000000    0.0000000000    0.0000000000

Difference to rotation invariance:
           :   -0.0000000000    0.0000000000   -0.0000000000

Norm of the Dispersion gradient    ...    0.0002705179
RMS gradient                       ...    0.0000433175
MAX gradient                       ...    0.0001803484
gCP correction                   ... done

------------------
CARTESIAN GRADIENT
------------------

   1   C   :   -0.000144051   -0.000031217   -0.000000522
   2   C   :    0.000065623    0.000065780   -0.000000870
   3   C   :   -0.000040814    0.000033612   -0.000001245
   4   C   :    0.000123260   -0.000162763   -0.000000319
   5   C   :   -0.000061717    0.000082441   -0.000000195
   6   C   :    0.000481456    0.000037122    0.000002496
   7   O   :   -0.000463288   -0.000145688   -0.000000846
   8   Br  :   -0.000065255    0.000040858    0.000000782
   9   H   :    0.000112241    0.000099944    0.000000049
  10   H   :   -0.000062566    0.000071896    0.000000620
  11   H   :   -0.000091972   -0.000028036    0.000000285
  12   H   :    0.000013221   -0.000113797   -0.000000122
  13   H   :    0.000133864    0.000049848   -0.000000112

Difference to translation invariance:
           :    0.0000000001   -0.0000000000   -0.0000000000

Difference to rotation invariance:
           :   -0.0000002352   -0.0000018437    0.0005889126

Norm of the Cartesian gradient     ...    0.0007967846
RMS gradient                       ...    0.0001275877
MAX gradient                       ...    0.0004814556

-------
TIMINGS
-------

Total SCF gradient time     ....        7.550 sec

Densities                   ....       0.001 sec  (  0.0%)
One electron gradient       ....       0.191 sec  (  2.5%)
RI-J Coulomb gradient       ....       1.524 sec  ( 20.2%)
XC gradient                 ....       4.378 sec  ( 58.0%)
CPCM gradient               ....       0.766 sec  ( 10.1%)
   A-Matrix (El+Nuc)        ....       0.055 sec  (  0.7%)
   Potential                ....       0.711 sec  (  9.4%)
SMD gradient                ....       0.013 sec  (  0.2%)

Maximum memory used throughout the entire SCFGRAD-calculation: 34.6 MB

------------------------------------------------------------------------------
                              ORCA PROPERTY CALCULATIONS
------------------------------------------------------------------------------

GBWName                                 ... xtb_opt.gbw
Number of atoms                         ...     13
Number of basis functions               ...    199
Max core memory                         ...   1024 MB

Electric properties:
Dipole moment                           ... YES
Quadrupole moment                       ...  NO
Static polarizability (Dipole/Dipole)   ...  NO
Static polarizability (Dipole/Quad.)    ...  NO
Static polarizability (Quad./Quad.)     ...  NO
Static polarizability (Velocity)        ...  NO

Atomic electric properties:
Dipole moment                           ...  NO
Quadrupole moment                       ...  NO
Static polarizability                   ...  NO

Choice of electric origin               ... Center of mass
Position of electric origin             ...     0.002816    -0.000911     0.000371

General magnetic properties:
Magnetizability                         ...  NO

EPR properties:
g-Tensor (aka g-matrix)                 ...  NO
Zero-Field splitting spin-orbit         ...  NO
Zero-field splitting spin-spin          ...  NO
Hyperfine couplings                     ...  NO (   0 nuclei)
Quadrupole couplings                    ...  NO (   0 nuclei)
Contact density                         ...  NO (   0 nuclei)

NMR properties:
Chemical shifts                         ...  NO (   0 nuclei)
Spin-rotation constants                 ...  NO (   0 nuclei)
Spin-spin couplings                     ...  NO (   0 nuclei,    0 pairs)

Choice of magnetic origin               ... GIAO
Position of magnetic origin             ...     0.000000     0.000000     0.000000

Properties with geometric perturbations:
SCF Hessian                             ...  NO
IR spectrum                             ...  NO
VCD spectrum                            ...  NO
X-ray spectroscopy properties:
SCF XES/XAS/RIXS spectra                ...  NO


-------------
DIPOLE MOMENT
-------------

Method             : SCF
Type of density    : Electron Density
Multiplicity       :   1
Irrep              :   0
Energy             : -2880.9508177733587218 Eh
Relativity type    : 
Basis              : AO
                                X                 Y                 Z
Electronic contribution:     26.769480980      -0.028691519       0.002631035
Nuclear contribution   :    -27.864856684       0.793656094      -0.002723587
                        -----------------------------------------
Total Dipole Moment    :     -1.095375704       0.764964575      -0.000092551
                        -----------------------------------------
Magnitude (a.u.)       :      1.336045935
Magnitude (Debye)      :      3.395958887



--------------------
Rotational spectrum 
--------------------
 
Rotational constants in cm-1:             0.187641             0.020927             0.018828 
Rotational constants in MHz :          5625.333257           627.388299           564.437139 

Dipole components along the rotational axes: 
x,y,z [a.u.] :     1.095444     0.764867     0.000027 
x,y,z [Debye]:     2.784397     1.944137     0.000069 

 

Dipole moment calculation done in   0.0 sec 

Maximum memory used throughout the entire PROP-calculation: 13.0 MB

--------------------------------
SUGGESTED CITATIONS FOR THIS RUN
--------------------------------

Below you find a list of papers that are relevant to this ORCA run
We neither can nor want to force you to cite these papers, but we appreciate if you do
You receive ORCA, which is the product of decades of hard work by many enthusiastic individuals, for free
The only thing we kindly ask in return is that you cite our papers,
We deeply appreciate it, if you show your appreciation for ORCA by not just citing the generic ORCA reference.

Please note that relegating all ORCA citations to the supporting information does *not* help us.
SI sections are not indexed - citations you put there will not count into any citation statistics
But we need these citations in order to attract the funding resources that allow us to do what we are doing

Therefore, if you are a happy ORCA user, please consider citing a few of the papers listed below in the main body of your paper

In addition to the list printed below, the program has created the file xtb_opt.bibtex that contains the list in bibtex format
You can import this file easily into all common literature databanks and citation aid programs


List of essential papers. We consider these as the minimum necessary citations

  1. Neese,F.
     Software update: the ORCA program system, version 5.0
     WIRES Comput. Molec. Sci., 2022 12(1)e1606
     doi.org/10.1002/wcms.1606
  2. Grimme,S.; Hansen,A.; Ehlert,S.; Mewes,J.
     r2SCAN-3c: A 'Swiss army knife' composite electronic-structure method
     J. Chem. Phys., 2021 154 064103
     doi.org/10.1063/5.0040021

List of papers to cite with high priority. The work reported in these papers was absolutely
necessary for this run to complete.
Our perspective: the developers of density functionals and basis sets usually get cited in chemistry papers
Good! But without the algorithms to do something with them, the functionals or basis sets would not do anything.
Hence, in our opinion, the algorithm design and method developments papers are equally worthy of getting cited

  1. Neese,F.
     An improvement of the resolution of the identity approximation for the formation of the Coulomb matrix
     J. Comp. Chem., 2003 24(14)1740-1747
     doi.org/10.1002/jcc.10318
  2. Garcia-Rates,M.; Neese,F.
     Effect of the Solute Cavity on the Solvation Energy and its Derivatives within the Framework of the Gaussian Charge Scheme
     J. Comput. Chem., 2020 41 922-939
     doi.org/10.1002/jcc.26139
  3. Neese,F.
     The SHARK Integral Generation and Digestion System
     J. Comp. Chem., 2022  1-16
     doi.org/10.1002/jcc.26942
  4. Lehtola,S.; Steigemann,C.; Oliveira,M.; Marques,M.
     Recent developments in Libxc - A comprehensive library of functionals for density functional theory
     Software X, 2018 7 
     doi.org/10.1016/j.softx.2017.11.002
  5. Caldeweyher,E.; Bannwarth,C.; Grimme,S.
     Extension of the D3 dispersion coefficient model
     J. Chem. Phys., 2017 147 034112-XXXX
     doi.org/10.1063/1.4993215
  6. Caldeweyher,E.; Ehlert,S.; Hansen,A.; Neugebauer,H.; Spicher,S.; Bannwarth,C.; Grimme,S.
     A generally applicable atomic-charge dependent London dispersion correction
     J. Chem. Phys., 2019 150 154122-XXXX
     doi.org/10.1063/1.5090222
  7. Caldeweyher,E.; Mewes,J.; Ehlert,S.; Grimme,S.
     Extension and evaluation of the D4 London-dispersion model for periodic systems
     Phys. Chem. Chem. Phys., 2020 22(16)8499-8512
     doi.org/10.1039/D0CP00502A

List of suggested additional citations. These are papers that are important in the 'surrounding' of 
of this run, or papers that preceded the highly important papers. If you like your results we are grateful for a citation.

  1. Neese,F.
     The ORCA program system
     WIRES Comput. Molec. Sci., 2012 2(1)73-78
     doi.org/10.1002/wcms.81
  2. Neese,F.
     Software update: the ORCA program system, version 4.0
     WIRES Comput. Molec. Sci., 2018 8(1)1-6
     doi.org/10.1002/wcms.1327
  3. Neese,F.; Wennmohs,F.; Becker,U.; Riplinger,C.
     The ORCA quantum chemistry program package
     J. Chem. Phys., 2020 152 Art. No. L224108
     doi.org/10.1063/5.0004608

List of optional additional citations

  1. Neese,F.
     Approximate second-order SCF convergence for spin unrestricted wavefunctions
     Chem. Phys. Lett., 2000 325(1-3)93-98
     doi.org/10.1016/s0009-2614(00)00662-x

Timings for individual modules:

Sum of individual times          ...       14.790 sec (=   0.246 min)
Startup calculation              ...        1.053 sec (=   0.018 min)   7.1 %
SCF iterations                   ...        5.968 sec (=   0.099 min)  40.4 %
Property calculations            ...        0.116 sec (=   0.002 min)   0.8 %
SCF Gradient evaluation          ...        7.653 sec (=   0.128 min)  51.7 %
                             ****ORCA TERMINATED NORMALLY****
TOTAL RUN TIME: 0 days 0 hours 0 minutes 15 seconds 496 msec
  ------------------------------------------------------------------------
          * successful ORCA run, taking over control again...

         :::::::::::::::::::::::::::::::::::::::::::::::::::::
         ::                  ORCA SUMMARY                   ::
         :::::::::::::::::::::::::::::::::::::::::::::::::::::
         :: total energy           -2880.951368120966 Eh    ::
         :: gradient norm              0.000796784645 Eh/a0 ::
         :: HOMO-LUMO gap              0.000000000000 eV    ::
         :::::::::::::::::::::::::::::::::::::::::::::::::::::

           -------------------------------------------------
          |                Property Printout                |
           -------------------------------------------------
           -------------------------------------------------
          |                Geometry Summary                 |
           -------------------------------------------------

      molecular mass/u    :      173.0070518
   center of mass at/Å    :        0.0015371      -0.0004824       0.0001962
  moments of inertia/u·Å² :        0.8983725E+02   0.8055446E+03   0.8953819E+03
rotational constants/cm⁻¹ :        0.1876464E+00   0.2092700E-01   0.1882731E-01

 * 13 selected distances

     #   Z          #   Z                                           value/Å
     1   6 C        2   6 C                                       1.3901065
     2   6 C        3   6 C                                       1.3897907
     3   6 C        4   6 C                                       1.3885476
     4   6 C        5   6 C                                       1.3913250
     1   6 C        6   6 C                                       1.3944565
     5   6 C        6   6 C                                       1.3944900
     6   6 C        7   8 O                                       1.3739350
     3   6 C        8  35 Br                                      1.9204394 (max)
     1   6 C        9   1 H                                       1.0847448
     2   6 C       10   1 H                                       1.0836938
     4   6 C       11   1 H                                       1.0837232
     5   6 C       12   1 H                                       1.0861443
     7   8 O       13   1 H                                       0.9676877 (min)

 * 5 distinct bonds (by element types)

   Z      Z             #   av. dist./Å        max./Å        min./Å
   1 H    6 C           4     1.0845765     1.0861443     1.0836938
   6 C    6 C           6     1.3914527     1.3944900     1.3885476
   1 H    8 O           1     0.9676877     0.9676877     0.9676877
   6 C    8 O           1     1.3739350     1.3739350     1.3739350
   6 C   35 Br          1     1.9204394     1.9204394     1.9204394


optimized geometry written to: xtbopt.coord


           -------------------------------------------------
          | TOTAL ENERGY            -2880.951368120966 Eh   |
          | GRADIENT NORM               0.000796784645 Eh/α |
           -------------------------------------------------

------------------------------------------------------------------------
 * finished run on 2025/04/03 at 19:44:24.164     
------------------------------------------------------------------------
 total:
 * wall-time:     0 d,  0 h,  2 min,  7.044 sec
 *  cpu-time:     0 d,  0 h,  0 min,  0.012 sec
 * ratio c/w:     0.000 speedup
 SCF:
 * wall-time:     0 d,  0 h,  0 min, 17.715 sec
 *  cpu-time:     0 d,  0 h,  0 min,  0.001 sec
 * ratio c/w:     0.000 speedup
 ANC optimizer:
 * wall-time:     0 d,  0 h,  1 min, 49.320 sec
 *  cpu-time:     0 d,  0 h,  0 min,  0.009 sec
 * ratio c/w:     0.000 speedup

