      -----------------------------------------------------------      
     |                   =====================                   |     
     |                           x T B                           |     
     |                   =====================                   |     
     |                         S. Grimme                         |     
     |          Mulliken Center for Theoretical Chemistry        |     
     |                    University of Bonn                     |     
      -----------------------------------------------------------      

   * xtb version 6.7.1 (edcfbbe) compiled by 'albert@albert-system' on 2024-07-22

   xtb is free software: you can redistribute it and/or modify it under
   the terms of the GNU Lesser General Public License as published by
   the Free Software Foundation, either version 3 of the License, or
   (at your option) any later version.
   
   xtb is distributed in the hope that it will be useful,
   but WITHOUT ANY WARRANTY; without even the implied warranty of
   MERCHANTABILITY or FITNESS FOR A PARTICULAR PURPOSE.  See the
   GNU Lesser General Public License for more details.
   
   Cite this work as:
   * C. Bannwarth, E. Caldeweyher, S. Ehlert, A. Hansen, P. Pracht,
     J. Seibert, S. Spicher, S. Grimme, WIREs Comput. Mol. Sci., 2020, 11,
     e01493. DOI: 10.1002/wcms.1493
   
   for GFN2-xTB:
   * C. Bannwarth, S. Ehlert and S. Grimme., J. Chem. Theory Comput., 2019,
     15, 1652-1671. DOI: 10.1021/acs.jctc.8b01176
   for GFN1-xTB:
   * S. Grimme, C. Bannwarth, P. Shushkov, J. Chem. Theory Comput., 2017,
     13, 1989-2009. DOI: 10.1021/acs.jctc.7b00118
   for GFN0-xTB:
   * P. Pracht, E. Caldeweyher, S. Ehlert, S. Grimme, ChemRxiv, 2019, preprint.
     DOI: 10.26434/chemrxiv.8326202.v1
   for GFN-FF:
   * S. Spicher and S. Grimme, Angew. Chem. Int. Ed., 2020, 59, 15665-15673.
     DOI: 10.1002/anie.202004239
   
   for ALPB and GBSA implicit solvation:
   * S. Ehlert, M. Stahn, S. Spicher, S. Grimme, J. Chem. Theory Comput.,
     2021, 17, 4250-4261. DOI: 10.1021/acs.jctc.1c00471
   
   for ddCOSMO and CPCM-X implicit solvation:
   * M. Stahn, S. Ehlert, S. Grimme, J. Phys. Chem. A,
     2023, XX, XXXX-XXXX. DOI: 10.1021/acs.jpca.3c04382
   
   for DFT-D4:
   * E. Caldeweyher, C. Bannwarth and S. Grimme, J. Chem. Phys., 2017,
     147, 034112. DOI: 10.1063/1.4993215
   * E. Caldeweyher, S. Ehlert, A. Hansen, H. Neugebauer, S. Spicher,
     C. Bannwarth and S. Grimme, J. Chem. Phys., 2019, 150, 154122.
     DOI: 10.1063/1.5090222
   * E. Caldeweyher, J.-M. Mewes, S. Ehlert and S. Grimme, Phys. Chem. Chem. Phys.
     2020, 22, 8499-8512. DOI: 10.1039/D0CP00502A
   
   for sTDA-xTB:
   * S. Grimme and C. Bannwarth, J. Chem. Phys., 2016, 145, 054103.
     DOI: 10.1063/1.4959605
   
   in the mass-spec context:
   * V. Asgeirsson, C. Bauer and S. Grimme, Chem. Sci., 2017, 8, 4879.
     DOI: 10.1039/c7sc00601b
   * J. Koopman and S. Grimme, ACS Omega 2019, 4, 12, 15120-15133.
     DOI: 10.1021/acsomega.9b02011
   
   for metadynamics refer to:
   * S. Grimme, J. Chem. Theory Comput., 2019, 155, 2847-2862
     DOI: 10.1021/acs.jctc.9b00143
   
   for SPH calculations refer to:
   * S. Spicher and S. Grimme, J. Chem. Theory Comput., 2021, 17, 1701-1714
     DOI: 10.1021/acs.jctc.0c01306
   
   for ONIOM refer to:
   * C. Plett, A. Katbashev, S. Ehlert, S. Grimme, M. Bursch,
     Phys. Chem. Chem. Phys., 2023, 25, 17860-17868. DOI: 10.1039/D3CP02178E
   
   for DIPRO refer to:
   * J. Kohn, N. Gildemeister, S. Grimme, D. Fazzi, A. Hansen,
     J. Chem. Phys., 2023, just accepted.
   
   for PTB refer to:
   * S. Grimme, M. Mueller, A. Hansen, J. Chem. Phys., 2023, 158, 124111.
     DOI: 10.1063/5.0137838
   
   with help from (in alphabetical order)
   P. Atkinson, C. Bannwarth, F. Bohle, G. Brandenburg, E. Caldeweyher
   M. Checinski, S. Dohm, S. Ehlert, S. Ehrlich, I. Gerasimov, C. Hölzer
   A. Katbashev, J. Kohn, J. Koopman, C. Lavigne, S. Lehtola, F. März, M. Müller,
   F. Musil, H. Neugebauer, J. Pisarek, C. Plett, P. Pracht, F. Pultar,
   J. Seibert, P. Shushkov, S. Spicher, M. Stahn, M. Steiner, T. Strunk,
   J. Stückrath, T. Rose, and J. Unsleber
   
 * started run on 2025/04/09 at 05:21:28.075     
   ID    Z sym.   atoms
    1    6 C      1, 2, 7, 8, 10, 15, 16, 18, 19
    2    8 O      3, 6, 14, 17
    3   15 P      4, 12
    4   16 S      5, 9, 11, 13
    5    1 H      20-41

           -------------------------------------------------
          |                Calculation Setup                |
           -------------------------------------------------

          program call               : /srv/scratch/z5358697/.xtb/bin/xtb solv.coord --gfn2 --sp --chrg 0 --norestart --parallel 1 --alpb water reference -I xtb_sp-xcontrol-inp
          hostname                   : k163
          coordinate file            : solv.coord
          omp threads                :                     1


           -------------------------------------------------
          |                 G F N 2 - x T B                 |
           -------------------------------------------------

        Reference                      10.1021/acs.jctc.8b01176
      * Hamiltonian:
        H0-scaling (s, p, d)           1.850000    2.230000    2.230000
        zeta-weighting                 0.500000
      * Dispersion:
        s8                             2.700000
        a1                             0.520000
        a2                             5.000000
        s9                             5.000000
      * Repulsion:
        kExp                           1.500000    1.000000
        rExp                           1.000000
      * Coulomb:
        alpha                          2.000000
        third order                    shell-resolved
        anisotropic                    true
        a3                             3.000000
        a5                             4.000000
        cn-shift                       1.200000
        cn-exp                         4.000000
        max-rad                        5.000000

      * Solvation model:               ALPB
        Solvent                        water
        Parameter file                 internal GFN2-xTB/ALPB
        Dielectric constant                8.0200E+01
        Reference state                gsolv=reference [X=1]
        Free energy shift                  2.8945E-03 Eh       1.8164E+00 kcal/mol
        Temperature                        2.9815E+02 K
        Density                            1.0000E+00 kg/L
        Solvent mass                       1.8000E+01 g/mol
        Interaction kernel             P16
        Born radius scaling (c1)           1.4744E+00
        Born radii integrator          GBOBC
        Born offset                        0.0000E+00 a0       0.0000E+00 AA
        H-bond correction              true
        Ion screening                  false
        Surface tension                    1.0000E-05 Eh       1.5569E+01 dyn/cm
        Grid points                               974 per atom

          ...................................................
          :                      SETUP                      :
          :.................................................:
          :  # basis functions                 134          :
          :  # atomic orbitals                 128          :
          :  # shells                           66          :
          :  # electrons                       116          :
          :  max. iterations                   250          :
          :  Hamiltonian                  GFN2-xTB          :
          :  restarted?                      false          :
          :  GBSA solvation                   true          :
          :  PC potential                    false          :
          :  electronic temp.          300.0000000     K    :
          :  accuracy                    1.0000000          :
          :  -> integral cutoff          0.2500000E+02      :
          :  -> integral neglect         0.1000000E-07      :
          :  -> SCF convergence          0.1000000E-05 Eh   :
          :  -> wf. convergence          0.1000000E-03 e    :
          :  Broyden damping             0.4000000          :
          :  net charge                          0          :
          :  unpaired electrons                  0          :
          ...................................................

 iter      E             dE          RMSdq      gap      omega  full diag
   1    -65.4376182 -0.654376E+02  0.612E+00    3.92       0.0  T
   2    -65.5614971 -0.123879E+00  0.343E+00    3.25       1.0  T
   3    -65.5818248 -0.203277E-01  0.116E+00    2.83       1.0  T
   4    -65.5846961 -0.287131E-02  0.548E-01    2.76       1.0  T
   5    -65.5855168 -0.820744E-03  0.277E-01    2.83       1.0  T
   6    -65.5857470 -0.230197E-03  0.124E-01    2.84       1.0  T
   7    -65.5857985 -0.514605E-04  0.435E-02    2.85       1.0  T
   8    -65.5858039 -0.544178E-05  0.194E-02    2.86       1.0  T
   9    -65.5858052 -0.130698E-05  0.754E-03    2.86       2.1  T
  10    -65.5858053 -0.529215E-07  0.376E-03    2.86       4.2  T
  11    -65.5858053 -0.772042E-07  0.151E-03    2.86      10.3  T
  12    -65.5858054 -0.628133E-08  0.548E-04    2.86      28.5  T
  13    -65.5858054 -0.104896E-08  0.164E-04    2.86      95.2  T

   *** convergence criteria satisfied after 13 iterations ***

         #    Occupation            Energy/Eh            Energy/eV
      -------------------------------------------------------------
         1        2.0000           -0.7679517             -20.8970
       ...           ...                  ...                  ...
        52        2.0000           -0.4452647             -12.1163
        53        2.0000           -0.4210749             -11.4580
        54        2.0000           -0.4127797             -11.2323
        55        2.0000           -0.3972245             -10.8090
        56        2.0000           -0.3930120             -10.6944
        57        2.0000           -0.3912234             -10.6457
        58        2.0000           -0.3878081             -10.5528 (HOMO)
        59                         -0.2827711              -7.6946 (LUMO)
        60                         -0.2589399              -7.0461
        61                         -0.2228236              -6.0633
        62                         -0.2005632              -5.4576
        63                         -0.1775662              -4.8318
       ...                                ...                  ...
       128                          1.3663763              37.1810
      -------------------------------------------------------------
                  HL-Gap            0.1050370 Eh            2.8582 eV
             Fermi-level           -0.3352896 Eh           -9.1237 eV

 SCC (total)                   0 d,  0 h,  0 min,  0.075 sec
 SCC setup                      ...        0 min,  0.003 sec (  3.404%)
 Dispersion                     ...        0 min,  0.000 sec (  0.408%)
 classical contributions        ...        0 min,  0.000 sec (  0.076%)
 integral evaluation            ...        0 min,  0.023 sec ( 30.181%)
 iterations                     ...        0 min,  0.027 sec ( 36.035%)
 molecular gradient             ...        0 min,  0.022 sec ( 29.603%)
 printout                       ...        0 min,  0.000 sec (  0.271%)

         :::::::::::::::::::::::::::::::::::::::::::::::::::::
         ::                     SUMMARY                     ::
         :::::::::::::::::::::::::::::::::::::::::::::::::::::
         :: total energy             -65.022716024913 Eh    ::
         :: total w/o Gsasa/hb       -65.025475105324 Eh    ::
         :: gradient norm              0.000060909643 Eh/a0 ::
         :: HOMO-LUMO gap              2.858203409263 eV    ::
         ::.................................................::
         :: SCC energy               -65.584934295001 Eh    ::
         :: -> isotropic ES            0.129963975056 Eh    ::
         :: -> anisotropic ES         -0.018060894675 Eh    ::
         :: -> anisotropic XC          0.029101194155 Eh    ::
         :: -> dispersion             -0.053860439521 Eh    ::
         :: -> Gsolv                  -0.027935507648 Eh    ::
         ::    -> Gelec               -0.030694588060 Eh    ::
         ::    -> Gsasa                0.004078455357 Eh    ::
         ::    -> Ghb                 -0.004213924105 Eh    ::
         ::    -> Gshift               0.002894549160 Eh    ::
         :: repulsion energy           0.562218270089 Eh    ::
         :: add. restraining           0.000000000000 Eh    ::
         :: total charge               0.000000000000 e     ::
         :::::::::::::::::::::::::::::::::::::::::::::::::::::

           -------------------------------------------------
          |                Property Printout                |
           -------------------------------------------------

    * Orbital Energies and Occupations

         #    Occupation            Energy/Eh            Energy/eV
      -------------------------------------------------------------
         1        2.0000           -0.7679517             -20.8970
       ...           ...                  ...                  ...
        46        2.0000           -0.4673564             -12.7174
        47        2.0000           -0.4598621             -12.5135
        48        2.0000           -0.4578702             -12.4593
        49        2.0000           -0.4542992             -12.3621
        50        2.0000           -0.4522433             -12.3062
        51        2.0000           -0.4478172             -12.1857
        52        2.0000           -0.4452647             -12.1163
        53        2.0000           -0.4210749             -11.4580
        54        2.0000           -0.4127797             -11.2323
        55        2.0000           -0.3972245             -10.8090
        56        2.0000           -0.3930120             -10.6944
        57        2.0000           -0.3912234             -10.6457
        58        2.0000           -0.3878081             -10.5528 (HOMO)
        59                         -0.2827711              -7.6946 (LUMO)
        60                         -0.2589399              -7.0461
        61                         -0.2228236              -6.0633
        62                         -0.2005632              -5.4576
        63                         -0.1775662              -4.8318
        64                         -0.1749050              -4.7594
        65                         -0.1638381              -4.4583
        66                         -0.1484371              -4.0392
        67                         -0.1310484              -3.5660
        68                         -0.1240347              -3.3752
        69                         -0.0519702              -1.4142
       ...                                ...                  ...
       128                          1.3663763              37.1810
      -------------------------------------------------------------
                  HL-Gap            0.1050370 Eh            2.8582 eV
             Fermi-level           -0.3352896 Eh           -9.1237 eV

     #   Z          covCN         q      C6AA      α(0)
     1   6 C        3.751    -0.135    23.163     6.864
     2   6 C        3.838     0.072    19.349     6.258
     3   8 O        1.653    -0.259    18.313     5.777
     4  15 P        3.801     0.354   145.447    21.664
     5  16 S        0.927    -0.454   159.177    21.340
     6   8 O        1.655    -0.252    18.190     5.757
     7   6 C        3.827     0.084    19.176     6.231
     8   6 C        3.751    -0.124    22.949     6.832
     9  16 S        2.042    -0.131   146.541    20.374
    10   6 C        3.806     0.033    20.014     6.369
    11  16 S        1.972    -0.172   148.344    20.499
    12  15 P        3.912     0.354   145.477    21.666
    13  16 S        0.927    -0.463   159.647    21.371
    14   8 O        1.653    -0.244    18.061     5.737
    15   6 C        3.846     0.072    19.349     6.257
    16   6 C        3.751    -0.132    23.107     6.855
    17   8 O        1.656    -0.255    18.237     5.765
    18   6 C        3.877     0.090    19.044     6.205
    19   6 C        3.752    -0.132    23.100     6.854
    20   1 H        0.925     0.072     2.064     2.246
    21   1 H        0.925     0.090     1.883     2.146
    22   1 H        0.925     0.067     2.120     2.277
    23   1 H        0.924     0.089     1.890     2.150
    24   1 H        0.924     0.071     2.072     2.251
    25   1 H        0.924     0.085     1.926     2.170
    26   1 H        0.924     0.052     2.292     2.367
    27   1 H        0.925     0.077     2.013     2.219
    28   1 H        0.925     0.080     1.979     2.200
    29   1 H        0.925     0.055     2.258     2.350
    30   1 H        0.925     0.126     1.568     1.958
    31   1 H        0.925     0.101     1.775     2.083
    32   1 H        0.924     0.074     2.038     2.232
    33   1 H        0.924     0.093     1.846     2.125
    34   1 H        0.925     0.070     2.083     2.257
    35   1 H        0.925     0.065     2.145     2.290
    36   1 H        0.925     0.088     1.896     2.153
    37   1 H        0.924     0.049     2.332     2.388
    38   1 H        0.924     0.059     2.208     2.324
    39   1 H        0.925     0.078     1.999     2.211
    40   1 H        0.925     0.071     2.076     2.253
    41   1 H        0.925     0.082     1.958     2.188

 Mol. C6AA /au·bohr⁶  :      26378.517306
 Mol. C8AA /au·bohr⁸  :     862756.920533
 Mol. α(0) /au        :        257.514435


Wiberg/Mayer (AO) data.
largest (>0.10) Wiberg bond orders for each atom

 ---------------------------------------------------------------------------
     #   Z sym  total        # sym  WBO       # sym  WBO       # sym  WBO
 ---------------------------------------------------------------------------
     1   6 C    3.983 --     2 C    1.021    20 H    0.982    22 H    0.981
                            21 H    0.974
     2   6 C    3.880 --     1 C    1.021    24 H    0.968    23 H    0.967
                             3 O    0.860
     3   8 O    2.404 --     4 P    1.358     2 C    0.860
     4  15 P    5.333 --     5 S    1.555     3 O    1.358     6 O    1.340
                             9 S    0.940
     5  16 S    1.863 --     4 P    1.555     9 S    0.140
     6   8 O    2.421 --     4 P    1.340     7 C    0.885
     7   6 C    3.890 --     8 C    1.020    26 H    0.968    25 H    0.966
                             6 O    0.885
     8   6 C    3.984 --     7 C    1.020    27 H    0.982    29 H    0.979
                            28 H    0.976
     9  16 S    2.299 --    10 C    0.998     4 P    0.940     5 S    0.140
    10   6 C    3.946 --     9 S    0.998    11 S    0.966    30 H    0.957
                            31 H    0.955
    11  16 S    2.255 --    10 C    0.966    12 P    0.956    13 S    0.139
    12  15 P    5.334 --    13 S    1.530    14 O    1.378    17 O    1.325
                            11 S    0.956
    13  16 S    1.850 --    12 P    1.530    11 S    0.139
    14   8 O    2.424 --    12 P    1.378    15 C    0.857
    15   6 C    3.877 --    16 C    1.022    33 H    0.967    32 H    0.964
                            14 O    0.857
    16   6 C    3.984 --    15 C    1.022    34 H    0.983    35 H    0.981
                            36 H    0.974
    17   8 O    2.402 --    12 P    1.325    18 C    0.888
    18   6 C    3.897 --    19 C    1.018    38 H    0.971    37 H    0.968
                            17 O    0.888
    19   6 C    3.982 --    18 C    1.018    40 H    0.983    39 H    0.982
                            41 H    0.976
    20   1 H    0.995 --     1 C    0.982
    21   1 H    0.990 --     1 C    0.974
    22   1 H    0.996 --     1 C    0.981
    23   1 H    0.992 --     2 C    0.967
    24   1 H    0.995 --     2 C    0.968
    25   1 H    0.992 --     7 C    0.966
    26   1 H    0.997 --     7 C    0.968
    27   1 H    0.994 --     8 C    0.982
    28   1 H    0.992 --     8 C    0.976
    29   1 H    0.997 --     8 C    0.979
    30   1 H    0.984 --    10 C    0.957
    31   1 H    0.990 --    10 C    0.955
    32   1 H    0.994 --    15 C    0.964
    33   1 H    0.991 --    15 C    0.967
    34   1 H    0.995 --    16 C    0.983
    35   1 H    0.996 --    16 C    0.981
    36   1 H    0.991 --    16 C    0.974
    37   1 H    0.998 --    18 C    0.968
    38   1 H    0.996 --    18 C    0.971
    39   1 H    0.994 --    19 C    0.982
    40   1 H    0.995 --    19 C    0.983
    41   1 H    0.992 --    19 C    0.976
 ---------------------------------------------------------------------------

Topologies differ in total number of bonds
Writing topology from bond orders to xtbtopo.mol

molecular dipole:
                 x           y           z       tot (Debye)
 q only:       -0.113      -3.707       0.672
   full:        0.129      -3.374       0.622       8.727
molecular quadrupole (traceless):
                xx          xy          yy          xz          yz          zz
 q only:       31.633      -3.948      -7.337      10.166       8.394     -24.296
  q+dip:       32.743      -0.490      -8.821       7.873       7.924     -23.922
   full:       33.001      -1.273      -8.477       7.964       8.169     -24.523


           -------------------------------------------------
          | TOTAL ENERGY              -65.022716024913 Eh   |
          | GRADIENT NORM               0.000060909643 Eh/α |
          | HOMO-LUMO GAP               2.858203409263 eV   |
           -------------------------------------------------

------------------------------------------------------------------------
 * finished run on 2025/04/09 at 05:21:28.227     
------------------------------------------------------------------------
 total:
 * wall-time:     0 d,  0 h,  0 min,  0.152 sec
 *  cpu-time:     0 d,  0 h,  0 min,  0.073 sec
 * ratio c/w:     0.483 speedup
 SCF:
 * wall-time:     0 d,  0 h,  0 min,  0.075 sec
 *  cpu-time:     0 d,  0 h,  0 min,  0.060 sec
 * ratio c/w:     0.805 speedup

