
                                 *****************
                                 * O   R   C   A *
                                 *****************

                                            #,                                       
                                            ###                                      
                                            ####                                     
                                            #####                                    
                                            ######                                   
                                           ########,                                 
                                     ,,################,,,,,                         
                               ,,#################################,,                 
                          ,,##########################################,,             
                       ,#########################################, ''#####,          
                    ,#############################################,,   '####,        
                  ,##################################################,,,,####,       
                ,###########''''           ''''###############################       
              ,#####''   ,,,,##########,,,,          '''####'''          '####       
            ,##' ,,,,###########################,,,                        '##       
           ' ,,###''''                  '''############,,,                           
         ,,##''                                '''############,,,,        ,,,,,,###''
      ,#''                                            '''#######################'''  
     '                                                          ''''####''''         
             ,#######,   #######,   ,#######,      ##                                
            ,#'     '#,  ##    ##  ,#'     '#,    #''#        ,####,   ,####,        
            ##       ##  ##   ,#'  ##            #'  '#       #'       #'  '#        
            ##       ##  #######   ##           ,######,      #####,   #    #        
            '#,     ,#'  ##    ##  '#,     ,#' ,#      #,     #,   #   #,  ,#        
             '#######'   ##     ##  '#######'  #'      '#     '####' # '####'        



                #########################################################
                #                        -***-                          #
                #          Department of theory and spectroscopy        #
                #                                                       #
                #                      Frank Neese                      #
                #                                                       #
                #     Directorship, Architecture, Infrastructure        #
                #                    SHARK, DRIVERS                     #
                #        Core code/Algorithms in most modules           #
                #                                                       #
                #        Max Planck Institute fuer Kohlenforschung      #
                #                Kaiser Wilhelm Platz 1                 #
                #                 D-45470 Muelheim/Ruhr                 #
                #                      Germany                          #
                #                                                       #
                #                  All rights reserved                  #
                #                        -***-                          #
                #########################################################


                         Program Version 6.0.0  -   RELEASE  -


 With contributions from (in alphabetic order):
   Daniel Aravena         : Magnetic Suceptibility
   Michael Atanasov       : Ab Initio Ligand Field Theory (pilot matlab implementation)
   Alexander A. Auer      : GIAO ZORA, VPT2 properties, NMR spectrum
   Ute Becker             : All parallelization in ORCA, NUMFREQ, NUMCALC
   Giovanni Bistoni       : ED, misc. LED, open-shell LED, HFLD
   Martin Brehm           : Molecular dynamics
   Dmytro Bykov           : pre 5.0 version of the SCF Hessian
   Marcos Casanova-Páez   : Triplet and SCS-CIS(D). UHF-(DLPNO)-IP/EA/STEOM-CCSD. UHF-CVS-IP/STEOM-CCSD
   Vijay G. Chilkuri      : MRCI spin determinant printing, contributions to CSF-ICE
   Pauline Colinet        : FMM embedding
   Dipayan Datta          : RHF DLPNO-CCSD density
   Achintya Kumar Dutta   : EOM-CC, STEOM-CC
   Nicolas Foglia         : Exact transition moments, OPA infrastructure, MCD improvements
   Dmitry Ganyushin       : Spin-Orbit,Spin-Spin,Magnetic field MRCI
   Miquel Garcia          : C-PCM and meta-GGA Hessian, CCSD/C-PCM, Gaussian charge scheme
   Tiago L. C. Gouveia    : GS-ROHF, GS-ROCIS
   Yang Guo               : DLPNO-NEVPT2, F12-NEVPT2, CIM, IAO-localization
   Andreas Hansen         : Spin unrestricted coupled pair/coupled cluster methods
   Ingolf Harden          : AUTO-CI MPn and infrastructure 
   Benjamin Helmich-Paris : MC-RPA, TRAH-(SCF,CASSCF), AVAS, COSX integrals, SCF dyn. polar.
   Lee Huntington         : MR-EOM, pCC
   Robert Izsak           : Overlap fitted RIJCOSX, COSX-SCS-MP3, EOM
   Riya Kayal             : Wick's Theorem for AUTO-CI, AUTO-CI UHF-CCSDT
   Emily Kempfer          : AUTO-CI, RHF CISDT and CCSDT
   Christian Kollmar      : KDIIS, OOCD, Brueckner-CCSD(T), CCSD density, CASPT2, CASPT2-K, improved NEVPT2
   Axel Koslowski         : Symmetry handling
   Simone Kossmann        : Meta GGA functionals, TD-DFT gradient, OOMP2, (MP2 Hessian; deprecated post 5.0)
   Lucas Lang             : DCDCAS
   Marvin Lechner         : AUTO-CI (C++ implementation), FIC-MRCC
   Spencer Leger          : CASSCF response
   Dagmar Lenk            : GEPOL surface, SMD, ORCA-2-JSON
   Dimitrios Liakos       : Extrapolation schemes; Compound Job, initial MDCI parallelization
   Dimitrios Manganas     : Further ROCIS development; embedding schemes. LFT, Crystal Embedding
   Dimitrios Pantazis     : SARC Basis sets
   Anastasios Papadopoulos: AUTO-CI, single reference methods and gradients
   Taras Petrenko         : pre 6.0 DFT Hessian and TD-DFT gradient, (ASA, deprecated), ECA, 1-Electron XAS/XES, NRVS
   Peter Pinski           : DLPNO-MP2, DLPNO-MP2 Gradient
   Christoph Reimann      : Effective Core Potentials
   Marius Retegan         : Local ZFS, SOC
   Christoph Riplinger    : Optimizer, TS searches, QM/MM, DLPNO-CCSD(T), (RO)-DLPNO pert. Triples
   Michael Roemelt        : Original ROCIS implementation
   Masaaki Saitow         : Open-shell DLPNO-CCSD energy and density
   Barbara Sandhoefer     : DKH picture change effects
   Kantharuban Sivalingam : CASSCF convergence/infrastructure, NEVPT2 and variants, FIC-MRCI
   Bernardo de Souza      : ESD, SOC TD-DFT
   Georgi Stoychev        : AutoAux, RI-MP2 NMR, DLPNO-MP2 response, X2C
   Van Anh Tran           : RI-MP2 g-tensors
   Willem Van den Heuvel  : Paramagnetic NMR
   Zikuan Wang            : NOTCH, Electric field optimization 
   Frank Wennmohs         : Technical directorship and infrastructure
   Hang Xu                : AUTO-CI-Response properties 


 We gratefully acknowledge several colleagues who have allowed us to
 interface, adapt or use parts of their codes:
   Stefan Grimme, W. Hujo, H. Kruse, P. Pracht,  : VdW corrections, initial TS optimization,
                  C. Bannwarth, S. Ehlert,         DFT functionals, gCP, sTDA/sTD-DF
                  L. Wittmann, M. Mueller
   Ed Valeev, F. Pavosevic, A. Kumar             : LibInt (2-el integral package), F12 methods
   Garnet Chan, S. Sharma, J. Yang, R. Olivares  : DMRG
   Ulf Ekstrom                                   : XCFun DFT Library
   Mihaly Kallay                                 : mrcc  (arbitrary order and MRCC methods)
   Frank Weinhold                                : gennbo (NPA and NBO analysis)
   Simon Mueller                                 : openCOSMO-RS
   Christopher J. Cramer and Donald G. Truhlar   : smd solvation model
   Lars Goerigk                                  : TD-DFT with DH, B97 family of functionals
   V. Asgeirsson, H. Jonsson                     : NEB implementation
   FAccTs GmbH                                   : IRC, NEB, NEB-TS, DLPNO-Multilevel, CI-OPT
                                                   MM, QMMM, 2- and 3-layer-ONIOM, Crystal-QMMM,
                                                   LR-CPCM, SF, NACMEs, symmetry and pop. for TD-DFT,
                                                   nearIR, NL-DFT gradient (VV10), updates on ESD,
                                                   ML-optimized integration grids, MBIS, APM,
                                                   GOAT, DOCKER, SOLVATOR, interface openCOSMO-RS
   S Lehtola, MJT Oliveira, MAL Marques          : LibXC Library
   Liviu Ungur et al                             : ANISO software


 Your calculation uses the libint2 library for the computation of 2-el integrals
 For citations please refer to: http://libint.valeyev.net

 Your ORCA version has been built with support for libXC version: 6.2.2
 For citations please refer to: https://libxc.gitlab.io

 This ORCA versions uses:
   CBLAS   interface :  Fast vector & matrix operations
   LAPACKE interface :  Fast linear algebra routines
   SCALAPACK package :  Parallel linear algebra routines
   Shared memory     :  Shared parallel matrices
   BLAS/LAPACK       :  OpenBLAS 0.3.27  USE64BITINT DYNAMIC_ARCH NO_AFFINITY SapphireRapids SINGLE_THREADED
        Core in use  :  SapphireRapids
   Copyright (c) 2011-2014, The OpenBLAS Project


Your calculation utilizes the geometrical counterpoise correction gCP
Please cite in your paper:
H.Kruse, S. Grimme J.Chem.Phys., 136, (2012), 154101 
   

Your calculation utilizes the atom-pairwise dispersion correction
based on EEQ partial charges (D4)


Your calculation utilizes the SMD solvation module
Please cite in your paper:
A.V. Marenich, C.J. Cramer, D.G. Truhlar J. Phys. Chem. B, 113, (2009), 6378 

================================================================================

----- Orbital basis set information -----
Your calculation utilizes the basis: def2-mTZVPP
   Stefan Grimme, Andreas Hansen, Sebastian Ehlert, and Jan-Michael Mewes 
   J. Chem. Phys. 154, 064103 (2021). DOI: 10.1063/5.0040021

----- AuxJ basis set information -----
Your calculation utilizes the auxiliary basis: def2/J
   F. Weigend, Phys. Chem. Chem. Phys. 8, 1057 (2006).

================================================================================
                                        WARNINGS
                       Please study these warnings very carefully!
================================================================================

Using LibXC functional ID 497 : Re-regularized SCAN exchange by Furness et al
[ 1]  J. W. Furness, A. D. Kaplan, J. Ning, J. P. Perdew, and J. Sun.,  J. Phys. Chem. Lett. 11, 8208-8215 (2020)
[ 2]  J. W. Furness, A. D. Kaplan, J. Ning, J. P. Perdew, and J. Sun.,  J. Phys. Chem. Lett. 11, 9248-9248 (2020)
Using LibXC functional ID 498 : Re-regularized SCAN correlation by Furness et al
[ 1]  J. W. Furness, A. D. Kaplan, J. Ning, J. P. Perdew, and J. Sun.,  J. Phys. Chem. Lett. 11, 8208-8215 (2020)
[ 2]  J. W. Furness, A. D. Kaplan, J. Ning, J. P. Perdew, and J. Sun.,  J. Phys. Chem. Lett. 11, 9248-9248 (2020)
Using LibXC functional ID 497 : Re-regularized SCAN exchange by Furness et al
[ 1]  J. W. Furness, A. D. Kaplan, J. Ning, J. P. Perdew, and J. Sun.,  J. Phys. Chem. Lett. 11, 8208-8215 (2020)
[ 2]  J. W. Furness, A. D. Kaplan, J. Ning, J. P. Perdew, and J. Sun.,  J. Phys. Chem. Lett. 11, 9248-9248 (2020)
Using LibXC functional ID 498 : Re-regularized SCAN correlation by Furness et al
[ 1]  J. W. Furness, A. D. Kaplan, J. Ning, J. P. Perdew, and J. Sun.,  J. Phys. Chem. Lett. 11, 8208-8215 (2020)
[ 2]  J. W. Furness, A. D. Kaplan, J. Ning, J. P. Perdew, and J. Sun.,  J. Phys. Chem. Lett. 11, 9248-9248 (2020)

================================================================================
                                       INPUT FILE
================================================================================
NAME = sp_solv.inp
|  1> ! r2scan-3c def2/J RI DEFGRID2 scfconv6 printgap
|  2> %output
|  3>     printlevel normal
|  4> end
|  5> %cpcm
|  6>     smd true
|  7>     smdsolvent "water"
|  8> end
|  9> * xyz 0 1
| 10> C 3.1223936585 -1.2552551998 -2.5761877638
| 11> C 1.8997831485 -0.4508562843 -2.1886394933
| 12> O 1.3819332623 -0.8563803015 -0.9100490275
| 13> P 2.1353731254 -0.5384375338 0.4515743777
| 14> S 3.2797760568 1.0581969378 0.4786616805
| 15> O 2.8981793544 -1.9094343424 0.7036315014
| 16> C 3.9666009069 -2.0349126335 1.6595169058
| 17> C 3.4736432101 -1.9091134042 3.0866613631
| 18> S 0.5148875309 -0.6183414367 1.7871779888
| 19> C -0.0280906502 1.111951734 1.6351082458
| 20> S -0.1806208814 1.7205629606 -0.0726927451
| 21> P -1.9167427084 0.696645931 -0.7075550538
| 22> S -2.4287256528 1.1679723678 -2.5383510643
| 23> O -3.0163509954 0.9819498488 0.4114493008
| 24> C -3.9559303067 2.0697847383 0.3237478115
| 25> C -5.2961592652 1.5848053832 0.8407022868
| 26> O -1.5153958165 -0.8000782841 -0.4004008897
| 27> C -2.4601000091 -1.8456331835 -0.0774609677
| 28> C -3.4456724981 -2.0869462071 -1.2005978021
| 29> H 2.8994092136 -2.3181909335 -2.535596358
| 30> H 3.4270780182 -0.9848793713 -3.5822911613
| 31> H 3.9379658597 -1.0380733184 -1.8871602901
| 32> H 1.0669327149 -0.6118618422 -2.8763796175
| 33> H 2.1327627779 0.6192791875 -2.1466423295
| 34> H 4.3801691328 -3.0243938447 1.460161498
| 35> H 4.7152600973 -1.2662045513 1.4424987777
| 36> H 4.2876205918 -2.1350239299 3.7680181589
| 37> H 3.1285080568 -0.8931500566 3.2729699916
| 38> H 2.6506259547 -2.59667277 3.2643057234
| 39> H 0.713352546 1.7619972681 2.0967757605
| 40> H -0.9862278104 1.1806407224 2.1442677636
| 41> H -3.5688915076 2.8925871002 0.9291174098
| 42> H -4.0242699635 2.3923780604 -0.7207439955
| 43> H -6.0011411861 2.4093846611 0.8231589767
| 44> H -5.6737864516 0.7817054289 0.2136093159
| 45> H -5.1945827147 1.2208737491 1.8590737719
| 46> H -1.8230784491 -2.7141385012 0.0980267504
| 47> H -2.9736067626 -1.57047578 0.8458655156
| 48> H -4.106023545 -2.9058177711 -0.9329361412
| 49> H -4.0390971815 -1.1902257449 -1.3761804072
| 50> H -2.9207366553 -2.3322910023 -2.1208487855
| 51> *
| 52> 
| 53>                          ****END OF INPUT****
================================================================================

                       ****************************
                       * Single Point Calculation *
                       ****************************

---------------------------------
CARTESIAN COORDINATES (ANGSTROEM)
---------------------------------
  C      3.122394   -1.255255   -2.576188
  C      1.899783   -0.450856   -2.188639
  O      1.381933   -0.856380   -0.910049
  P      2.135373   -0.538438    0.451574
  S      3.279776    1.058197    0.478662
  O      2.898179   -1.909434    0.703632
  C      3.966601   -2.034913    1.659517
  C      3.473643   -1.909113    3.086661
  S      0.514888   -0.618341    1.787178
  C     -0.028091    1.111952    1.635108
  S     -0.180621    1.720563   -0.072693
  P     -1.916743    0.696646   -0.707555
  S     -2.428726    1.167972   -2.538351
  O     -3.016351    0.981950    0.411449
  C     -3.955930    2.069785    0.323748
  C     -5.296159    1.584805    0.840702
  O     -1.515396   -0.800078   -0.400401
  C     -2.460100   -1.845633   -0.077461
  C     -3.445672   -2.086946   -1.200598
  H      2.899409   -2.318191   -2.535596
  H      3.427078   -0.984879   -3.582291
  H      3.937966   -1.038073   -1.887160
  H      1.066933   -0.611862   -2.876380
  H      2.132763    0.619279   -2.146642
  H      4.380169   -3.024394    1.460161
  H      4.715260   -1.266205    1.442499
  H      4.287621   -2.135024    3.768018
  H      3.128508   -0.893150    3.272970
  H      2.650626   -2.596673    3.264306
  H      0.713353    1.761997    2.096776
  H     -0.986228    1.180641    2.144268
  H     -3.568892    2.892587    0.929117
  H     -4.024270    2.392378   -0.720744
  H     -6.001141    2.409385    0.823159
  H     -5.673786    0.781705    0.213609
  H     -5.194583    1.220874    1.859074
  H     -1.823078   -2.714139    0.098027
  H     -2.973607   -1.570476    0.845866
  H     -4.106024   -2.905818   -0.932936
  H     -4.039097   -1.190226   -1.376180
  H     -2.920737   -2.332291   -2.120849

----------------------------
CARTESIAN COORDINATES (A.U.)
----------------------------
  NO LB      ZA    FRAG     MASS         X           Y           Z
   0 C     6.0000    0    12.011    5.900469   -2.372089   -4.868289
   1 C     6.0000    0    12.011    3.590070   -0.851995   -4.135929
   2 O     8.0000    0    15.999    2.611475   -1.618324   -1.719743
   3 P    15.0000    0    30.974    4.035270   -1.017499    0.853352
   4 S    16.0000    0    32.060    6.197879    1.999702    0.904539
   5 O     8.0000    0    15.999    5.476765   -3.608308    1.329671
   6 C     6.0000    0    12.011    7.495789   -3.845428    3.136032
   7 C     6.0000    0    12.011    6.564234   -3.607701    5.832945
   8 S    16.0000    0    32.060    0.972996   -1.168496    3.377277
   9 C     6.0000    0    12.011   -0.053084    2.101284    3.089907
  10 S    16.0000    0    32.060   -0.341324    3.251393   -0.137369
  11 P    15.0000    0    30.974   -3.622119    1.316470   -1.337085
  12 S    16.0000    0    32.060   -4.589626    2.207148   -4.796788
  13 O     8.0000    0    15.999   -5.700077    1.855616    0.777526
  14 C     6.0000    0    12.011   -7.475625    3.911326    0.611795
  15 C     6.0000    0    12.011  -10.008291    2.994848    1.588697
  16 O     8.0000    0    15.999   -2.863683   -1.511929   -0.756648
  17 C     6.0000    0    12.011   -4.648915   -3.487741   -0.146380
  18 C     6.0000    0    12.011   -6.511377   -3.943757   -2.268801
  19 H     1.0000    0     1.008    5.479089   -4.380746   -4.791583
  20 H     1.0000    0     1.008    6.476239   -1.861152   -6.769549
  21 H     1.0000    0     1.008    7.441677   -1.961674   -3.566216
  22 H     1.0000    0     1.008    2.016211   -1.156251   -5.435570
  23 H     1.0000    0     1.008    4.030338    1.170268   -4.056566
  24 H     1.0000    0     1.008    8.277320   -5.715276    2.759305
  25 H     1.0000    0     1.008    8.910550   -2.392780    2.725928
  26 H     1.0000    0     1.008    8.102429   -4.034611    7.120522
  27 H     1.0000    0     1.008    5.912023   -1.687809    6.185017
  28 H     1.0000    0     1.008    5.008957   -4.907000    6.168644
  29 H     1.0000    0     1.008    1.348041    3.329692    3.962332
  30 H     1.0000    0     1.008   -1.863700    2.231088    4.052079
  31 H     1.0000    0     1.008   -6.744228    5.466197    1.755777
  32 H     1.0000    0     1.008   -7.604768    4.520939   -1.362009
  33 H     1.0000    0     1.008  -11.340513    4.553077    1.555545
  34 H     1.0000    0     1.008  -10.721903    1.477209    0.403663
  35 H     1.0000    0     1.008   -9.816339    2.307117    3.513140
  36 H     1.0000    0     1.008   -3.445119   -5.128978    0.185244
  37 H     1.0000    0     1.008   -5.619302   -2.967769    1.598454
  38 H     1.0000    0     1.008   -7.759260   -5.491200   -1.762994
  39 H     1.0000    0     1.008   -7.632788   -2.249201   -2.600604
  40 H     1.0000    0     1.008   -5.519392   -4.407391   -4.007823

--------------------------------
INTERNAL COORDINATES (ANGSTROEM)
--------------------------------
 C      0   0   0     0.000000000000     0.00000000     0.00000000
 C      1   0   0     1.513944429755     0.00000000     0.00000000
 O      2   1   0     1.437849718294   111.63110293     0.00000000
 P      3   2   1     1.588325384935   122.34503575    71.09176060
 S      4   3   2     1.964594977921   116.79659244    27.65830930
 O      4   3   2     1.589036936575   101.01046907   262.42525921
 C      6   4   3     1.439092186668   122.47878246   165.47328334
 C      7   6   4     1.515115189987   112.13968543    68.94048687
 S      4   3   2     2.101474530339    99.87171190   156.25648426
 C      9   4   3     1.819853007377    98.09496284   272.76105938
 S     10   9   4     1.819411256724   114.92911633    47.72018000
 P     11  10   9     2.113190770541   100.88231989    72.34803954
 S     12  11  10     1.958593673391   112.27074698   178.11980751
 O     12  11  10     1.594586923302   105.60604904    51.26372882
 C     14  12  11     1.440099156399   122.84262216    93.00394862
 C     15  14  12     1.516133426057   108.32130144   141.15000750
 O     12  11  10     1.579748835805   101.06564369   305.30389256
 C     17  12  11     1.445662911054   124.23848332   151.38057359
 C     18  17  12     1.513612055719   112.02741849    61.15964383
 H      1   2   3     1.086831219127   110.14493733    54.24893949
 H      1   2   3     1.085439862058   109.36654890   174.78677932
 H      1   2   3     1.089534232822   109.67632148   294.33350639
 H      2   1   3     1.092038970393   112.10748378   243.63261302
 H      2   1   3     1.096007845541   110.91163720   121.16981765
 H      7   6   4     1.090804438665   103.83835691   189.77316397
 H      7   6   4     1.094760049935   108.34981207   306.65741435
 H      8   7   6     1.085284214722   109.27208624   172.87290472
 H      8   7   6     1.089041185063   109.98125550   292.40356046
 H      8   7   6     1.087038547123   110.34983554    52.43509942
 H     10   9   4     1.088776425040   109.21088705   290.32057861
 H     10   9   4     1.087192903513   106.49210707   169.98923902
 H     15  14  12     1.092371323911   107.70176803   261.78016323
 H     15  14  12     1.095308127901   108.73922133    19.98760846
 H     16  15  14     1.085006111534   109.01105083   177.37456634
 H     16  15  14     1.086654233258   110.29385749   297.08675413
 H     16  15  14     1.086206477413   110.13204008    57.46228721
 H     18  17  12     1.091280850186   103.30048504   181.72961867
 H     18  17  12     1.091756647497   108.30079162   298.16829654
 H     19  18  17     1.085475429563   109.47657029   177.57672675
 H     19  18  17     1.089536458045   110.06058917   297.64079418
 H     19  18  17     1.087480381449   110.46138596    57.04849790

---------------------------
INTERNAL COORDINATES (A.U.)
---------------------------
 C      0   0   0     0.000000000000     0.00000000     0.00000000
 C      1   0   0     2.860940354213     0.00000000     0.00000000
 O      2   1   0     2.717142189311   111.63110293     0.00000000
 P      3   2   1     3.001499989082   122.34503575    71.09176060
 S      4   3   2     3.712546472347   116.79659244    27.65830930
 O      4   3   2     3.002844626812   101.01046907   262.42525921
 C      6   4   3     2.719490114268   122.47878246   165.47328334
 C      7   6   4     2.863152770419   112.13968543    68.94048687
 S      4   3   2     3.971211339752    99.87171190   156.25648426
 C      9   4   3     3.439023787935    98.09496284   272.76105938
 S     10   9   4     3.438189000181   114.92911633    47.72018000
 P     11  10   9     3.993351825052   100.88231989    72.34803954
 S     12  11  10     3.701205650339   112.27074698   178.11980751
 O     12  11  10     3.013332581772   105.60604904    51.26372882
 C     14  12  11     2.721393011286   122.84262216    93.00394862
 C     15  14  12     2.865076957732   108.32130144   141.15000750
 O     12  11  10     2.985292660053   101.06564369   305.30389256
 C     17  12  11     2.731906983859   124.23848332   151.38057359
 C     18  17  12     2.860312258311   112.02741849    61.15964383
 H      1   2   3     2.053813357945   110.14493733    54.24893949
 H      1   2   3     2.051184074130   109.36654890   174.78677932
 H      1   2   3     2.058921313566   109.67632148   294.33350639
 H      2   1   3     2.063654581612   112.10748378   243.63261302
 H      2   1   3     2.071154668701   110.91163720   121.16981765
 H      7   6   4     2.061321654742   103.83835691   189.77316397
 H      7   6   4     2.068796676735   108.34981207   306.65741435
 H      8   7   6     2.050889943292   109.27208624   172.87290472
 H      8   7   6     2.057989588330   109.98125550   292.40356046
 H      8   7   6     2.054205151079   110.34983554    52.43509942
 H     10   9   4     2.057489264396   109.21088705   290.32057861
 H     10   9   4     2.054496842383   106.49210707   169.98923902
 H     15  14  12     2.064282638741   107.70176803   261.78016323
 H     15  14  12     2.069832393990   108.73922133    19.98760846
 H     16  15  14     2.050364404431   109.01105083   177.37456634
 H     16  15  14     2.053478903124   110.29385749   297.08675413
 H     16  15  14     2.052632767203   110.13204008    57.46228721
 H     18  17  12     2.062221942044   103.30048504   181.72961867
 H     18  17  12     2.063121068658   108.30079162   298.16829654
 H     19  18  17     2.051251286975   109.47657029   177.57672675
 H     19  18  17     2.058925518629   110.06058917   297.64079418
 H     19  18  17     2.055040096951   110.46138596    57.04849790

---------------------
BASIS SET INFORMATION
---------------------
There are 5 groups of distinct atoms

 Group   1 Type C   : 11s6p1d contracted to 5s3p1d pattern {62111/411/1}
 Group   2 Type O   : 11s6p2d contracted to 5s3p2d pattern {62111/411/11}
 Group   3 Type P   : 14s9p2d contracted to 5s4p2d pattern {73211/6111/11}
 Group   4 Type S   : 14s9p2d contracted to 5s4p2d pattern {73211/6111/11}
 Group   5 Type H   : 4s1p contracted to 2s1p pattern {31/1}

Atom   0C    basis set group =>   1
Atom   1C    basis set group =>   1
Atom   2O    basis set group =>   2
Atom   3P    basis set group =>   3
Atom   4S    basis set group =>   4
Atom   5O    basis set group =>   2
Atom   6C    basis set group =>   1
Atom   7C    basis set group =>   1
Atom   8S    basis set group =>   4
Atom   9C    basis set group =>   1
Atom  10S    basis set group =>   4
Atom  11P    basis set group =>   3
Atom  12S    basis set group =>   4
Atom  13O    basis set group =>   2
Atom  14C    basis set group =>   1
Atom  15C    basis set group =>   1
Atom  16O    basis set group =>   2
Atom  17C    basis set group =>   1
Atom  18C    basis set group =>   1
Atom  19H    basis set group =>   5
Atom  20H    basis set group =>   5
Atom  21H    basis set group =>   5
Atom  22H    basis set group =>   5
Atom  23H    basis set group =>   5
Atom  24H    basis set group =>   5
Atom  25H    basis set group =>   5
Atom  26H    basis set group =>   5
Atom  27H    basis set group =>   5
Atom  28H    basis set group =>   5
Atom  29H    basis set group =>   5
Atom  30H    basis set group =>   5
Atom  31H    basis set group =>   5
Atom  32H    basis set group =>   5
Atom  33H    basis set group =>   5
Atom  34H    basis set group =>   5
Atom  35H    basis set group =>   5
Atom  36H    basis set group =>   5
Atom  37H    basis set group =>   5
Atom  38H    basis set group =>   5
Atom  39H    basis set group =>   5
Atom  40H    basis set group =>   5
---------------------------------
AUXILIARY/J BASIS SET INFORMATION
---------------------------------
There are 5 groups of distinct atoms

 Group   1 Type C   : 12s5p4d2f1g contracted to 6s4p3d1f1g pattern {711111/2111/211/2/1}
 Group   2 Type O   : 12s5p4d2f1g contracted to 6s4p3d1f1g pattern {711111/2111/211/2/1}
 Group   3 Type P   : 14s5p5d2f1g contracted to 8s4p3d1f1g pattern {71111111/2111/311/2/1}
 Group   4 Type S   : 14s5p5d2f1g contracted to 8s4p3d1f1g pattern {71111111/2111/311/2/1}
 Group   5 Type H   : 5s2p1d contracted to 3s1p1d pattern {311/2/1}

Atom   0C    basis set group =>   1
Atom   1C    basis set group =>   1
Atom   2O    basis set group =>   2
Atom   3P    basis set group =>   3
Atom   4S    basis set group =>   4
Atom   5O    basis set group =>   2
Atom   6C    basis set group =>   1
Atom   7C    basis set group =>   1
Atom   8S    basis set group =>   4
Atom   9C    basis set group =>   1
Atom  10S    basis set group =>   4
Atom  11P    basis set group =>   3
Atom  12S    basis set group =>   4
Atom  13O    basis set group =>   2
Atom  14C    basis set group =>   1
Atom  15C    basis set group =>   1
Atom  16O    basis set group =>   2
Atom  17C    basis set group =>   1
Atom  18C    basis set group =>   1
Atom  19H    basis set group =>   5
Atom  20H    basis set group =>   5
Atom  21H    basis set group =>   5
Atom  22H    basis set group =>   5
Atom  23H    basis set group =>   5
Atom  24H    basis set group =>   5
Atom  25H    basis set group =>   5
Atom  26H    basis set group =>   5
Atom  27H    basis set group =>   5
Atom  28H    basis set group =>   5
Atom  29H    basis set group =>   5
Atom  30H    basis set group =>   5
Atom  31H    basis set group =>   5
Atom  32H    basis set group =>   5
Atom  33H    basis set group =>   5
Atom  34H    basis set group =>   5
Atom  35H    basis set group =>   5
Atom  36H    basis set group =>   5
Atom  37H    basis set group =>   5
Atom  38H    basis set group =>   5
Atom  39H    basis set group =>   5
Atom  40H    basis set group =>   5

Checking for AutoStart:
The File: sp_solv.gbw exists
Trying to determine its content:
     ... Fine, the file contains calculation information
     ... Fine, the calculation information was read
     ... Fine, the file contains a basis set
     ... Fine, the basis set was read
     ... Fine, the file contains a geometry
     ... Fine, the geometry was read
     ... Fine, the file contains a set of orbitals
     ... Fine, the orbitals can be read
     => possible old guess file was deleted
     => GBW file was renamed to GES file
     => GES file is set as startup file
     => Guess is set to MORead
     ... now leaving AutoStart

------------------------------------------------------------------------------
                             ORCA STARTUP CALCULATIONS
                           -- RI-GTO INTEGRALS CHOSEN --
------------------------------------------------------------------------------
------------------------------------------------------------------------------
                   ___                                                        
                  /   \      - P O W E R E D   B Y -                         
                 /     \                                                     
                 |  |  |   _    _      __       _____    __    __             
                 |  |  |  | |  | |    /  \     |  _  \  |  |  /  |          
                  \  \/   | |  | |   /    \    | | | |  |  | /  /          
                 / \  \   | |__| |  /  /\  \   | |_| |  |  |/  /          
                |  |  |   |  __  | /  /__\  \  |    /   |      \           
                |  |  |   | |  | | |   __   |  |    \   |  |\   \          
                \     /   | |  | | |  |  |  |  | |\  \  |  | \   \       
                 \___/    |_|  |_| |__|  |__|  |_| \__\ |__|  \__/        
                                                                              
                      - O R C A' S   B I G   F R I E N D -                    
                                      &                                       
                       - I N T E G R A L  F E E D E R -                       
                                                                              
 v1 FN, 2020, v2 2021, v3 2022-2024                                           
------------------------------------------------------------------------------


----------------------
SHARK INTEGRAL PACKAGE
----------------------

Number of atoms                             ...     41
Number of basis functions                   ...    539
Number of shells                            ...    253
Maximum angular momentum                    ...      2
Integral batch strategy                     ... SHARK/LIBINT Hybrid
RI-J (if used) integral strategy            ... SPLIT-RIJ (Revised 2003 algorithm where possible)
Printlevel                                  ...      1
Contraction scheme used                     ... SEGMENTED contraction
Prescreening option                         ... SCHWARTZ
   Thresh                                   ... 1.000e-10
   Tcut                                     ... 1.000e-11
   Tpresel                                  ... 1.000e-11 
Coulomb Range Separation                    ... NOT USED
Exchange Range Separation                   ... NOT USED
Multipole approximations                    ... NOT USED
Finite Nucleus Model                        ... NOT USED
CABS basis                                  ... NOT available
Auxiliary Coulomb fitting basis             ... AVAILABLE
   # of basis functions in Aux-J            ...   1185
   # of shells in Aux-J                     ...    407
   Maximum angular momentum in Aux-J        ...      4
Auxiliary J/K fitting basis                 ... NOT available
Auxiliary Correlation fitting basis         ... NOT available
Auxiliary 'external' fitting basis          ... NOT available

Checking pre-screening integrals            ... done (  0.0 sec) Dimension = 253
Check shell pair data                       ... done (  0.0 sec)
Shell pair information
Shell pair cut-off parameter TPreSel        ...   1.0e-11
Total number of shell pairs                 ...     32131
Shell pairs after pre-screening             ...     21291
Total number of primitive shell pairs       ...    124843
Primitive shell pairs kept                  ...     49704
          la=0 lb=0:   5972 shell pairs
          la=1 lb=0:   7727 shell pairs
          la=1 lb=1:   2542 shell pairs
          la=2 lb=0:   2860 shell pairs
          la=2 lb=1:   1838 shell pairs
          la=2 lb=2:    352 shell pairs

Calculating one electron integrals          ... done (  0.1 sec)
Calculating RI/J V-Matrix + Cholesky decomp.... done (  0.1 sec)
Calculating Nuclear repulsion               ... done (  0.0 sec) ENN=   2783.353694992111 Eh

Diagonalization of the overlap matrix:
Smallest eigenvalue                        ... 2.577e-04
Time for diagonalization                   ...    0.028 sec
Threshold for overlap eigenvalues          ... 1.000e-07
Number of eigenvalues below threshold      ... 0
Time for construction of square roots      ...    0.096 sec
Total time needed                          ...    0.132 sec

-------------------
DFT GRID GENERATION
-------------------

General Integration Accuracy     IntAcc      ... 4.388
Radial Grid Type                 RadialGrid  ... OptM3 with GC (2021)
Angular Grid (max. ang.)         AngularGrid ... 4 (Lebedev-302)
Angular grid pruning method      GridPruning ... 4 (adaptive)
Weight generation scheme         WeightScheme... mBecke (2022)
Basis function cutoff            BFCut       ... 1.0000e-10
Integration weight cutoff        WCut        ... 1.0000e-14
Partially contracted basis set               ... off
Rotationally invariant grid construction     ... off
Angular grids for H and He will be reduced by one unit
Diffuse basis detected: some atoms will have their outermost
                        angular grid increased by 1.

Total number of grid points                  ...   192618
Total number of batches                      ...     3031
Average number of points per batch           ...       63
Average number of grid points per atom       ...     4698
Initializing property integral containers    ... done (  0.0 sec)

SHARK setup successfully completed in   2.9 seconds

Maximum memory used throughout the entire STARTUP-calculation: 102.0 MB
-------------------------------------------------------------------------------
                                 ORCA GUESS
                   Start orbitals & Density for SCF / CASSCF
-------------------------------------------------------------------------------

------------
SCF SETTINGS
------------
Hamiltonian:
 Density Functional     Method          .... DFT(GTOs)
  Functional kind                       .... Exchange
  Functional name                       .... Re-regularized SCAN exchange by Furness et al
  Functional family                     .... MGGA
  Functional refs                              
    [ 0] J. W. Furness, A. D. Kaplan, J. Ning, J. P. Perdew, and J. Sun.,  J. Phys. Chem. Lett. 11, 8208-8215 (2020), doi: 10.1021/acs.jpclett.0c02405
    [ 1] J. W. Furness, A. D. Kaplan, J. Ning, J. P. Perdew, and J. Sun.,  J. Phys. Chem. Lett. 11, 9248-9248 (2020), doi: 10.1021/acs.jpclett.0c03077
  Functional external parameters        .... 6
    Parameter  0 _c1        =  6.670000e-01 : c1 parameter        
    Parameter  1 _c2        =  8.000000e-01 : c2 parameter        
    Parameter  2 _d         =  1.240000e+00 : d parameter         
    Parameter  3 _k1        =  6.500000e-02 : k1 parameter        
    Parameter  4 _eta       =  1.000000e-03 : eta parameter       
    Parameter  5 _dp2       =  3.610000e-01 : dp2 parameter       
  Functional kind                       .... Correlation
  Functional name                       .... Re-regularized SCAN correlation by Furness et al
  Functional family                     .... MGGA
  Functional refs                              
    [ 0] J. W. Furness, A. D. Kaplan, J. Ning, J. P. Perdew, and J. Sun.,  J. Phys. Chem. Lett. 11, 8208-8215 (2020), doi: 10.1021/acs.jpclett.0c02405
    [ 1] J. W. Furness, A. D. Kaplan, J. Ning, J. P. Perdew, and J. Sun.,  J. Phys. Chem. Lett. 11, 9248-9248 (2020), doi: 10.1021/acs.jpclett.0c03077
  Functional external parameters        .... 1
    Parameter  0 _eta       =  1.000000e-03 : Regularization parameter
 Gradients option       PostSCFGGA      .... off
 RI-approximation to the Coulomb term is turned on
   Number of AuxJ basis functions       .... 1185


General Settings:
 Integral files         IntName         .... sp_solv
 Hartree-Fock type      HFTyp           .... RHF
 Total Charge           Charge          ....    0
 Multiplicity           Mult            ....    1
 Number of Electrons    NEL             ....  202
 Basis Dimension        Dim             ....  539
 Nuclear Repulsion      ENuc            ....   2783.3536949921 Eh

Convergence Acceleration:
 AO-DIIS                CNVDIIS         .... on
   Start iteration      DIISMaxIt       ....    12
   Startup error        DIISStart       ....  0.200000
   # of expansion vecs  DIISMaxEq       ....     5
   Bias factor          DIISBfac        ....   1.050
   Max. coefficient     DIISMaxC        ....  10.000
 MO-DIIS                CNVKDIIS        .... off
 Trust-Rad. Augm. Hess. CNVTRAH         .... auto
   Auto Start mean grad. ratio tolernc. ....  1.125000
   Auto Start start iteration           ....     1
   Auto Start num. interpolation iter.  ....    10
   Max. Number of Micro iterations      ....    24
   Max. Number of Macro iterations      .... Maxiter - #DIIS iter
   Number of Davidson start vectors     ....     2
   Converg. threshold    (grad. norm)   ....   3.330e-04
   Grad. Scal. Fac. for Micro threshold ....   0.100
   Minimum threshold for Micro iter.    ....   1.000e-02
   NR start threshold (gradient norm)   ....   1.000e-04
   Initial trust radius                 ....   0.400
   Minimum AH scaling param. (alpha)    ....   1.000
   Maximum AH scaling param. (alpha)    .... 1000.000
   Quad. conv. algorithm                .... NR
   White noise on init. David. guess    .... on
   Maximum white noise                  ....   0.010
   Pseudo random numbers                .... off
   Inactive MOs                         .... canonical
   Orbital update algorithm             .... Taylor
   Preconditioner                       .... Diag
   Full preconditioner red. dimension   ....   250
   COSX micro iterations for RIJONX calc.... off
 SOSCF                  CNVSOSCF        .... on
   Start iteration      SOSCFMaxIt      ....   150
   Startup grad/error   SOSCFStart      ....  0.003300
   Hessian update       SOSCFHessUp     .... L-BFGS
 Level Shifting         CNVShift        .... on
   Level shift para.    LevelShift      ....    0.2500
   Turn off err/grad.   ShiftErr        ....    0.0010
 Zerner damping         CNVZerner       .... off
 Static damping         CNVDamp         .... on
   Fraction old density DampFac         ....    0.7000
   Max. Damping (<1)    DampMax         ....    0.9800
   Min. Damping (>=0)   DampMin         ....    0.0000
   Turn off err/grad.   DampErr         ....    0.1000

SCF Procedure:
 Maximum # iterations   MaxIter         ....   125
 SCF integral mode      SCFMode         .... Direct
   Integral package                     .... SHARK and LIBINT hybrid scheme
 Reset frequency        DirectResetFreq ....    20
 Integral Threshold     Thresh          ....  1.000e-10 Eh
 Primitive CutOff       TCut            ....  1.000e-11 Eh

Convergence Tolerance:
 Convergence Check Mode ConvCheckMode   .... Total+1el-Energy
 Convergence forced     ConvForced      .... 0
 Energy Change          TolE            ....  1.000e-06 Eh
 1-El. energy change                    ....  1.000e-03 Eh
 Orbital Gradient       TolG            ....  3.330e-04
 Orbital Rotation angle TolX            ....  3.330e-04
 DIIS Error             TolErr          ....  1.000e-06

---------------------
INITIAL GUESS: MOREAD
---------------------
Guess MOs are being read from file: sp_solv.ges
Input Geometry matches current geometry (good)
Atom 0: N(Shells)= 9 and 6 - projection required
Input basis set needs projection
NBasis(read)= 334
NBasis(calc)= 539
Basis set overlap was calculated
Using GuessMode=FMatrix for the initial guess
C*T matrix was formed
Effective Fockian was calculated
Effective Fockian was diagonalized
Initial density was built
                      ------------------
                      INITIAL GUESS DONE (   0.2 sec)
                      ------------------
             **** ENERGY FILE WAS UPDATED (sp_solv.en.tmp) ****
Finished Guess after   0.6 sec
Maximum memory used throughout the entire GUESS-calculation: 59.0 MB

-------------------------------------------------------------------------------------------
                                      ORCA LEAN-SCF
                              memory conserving SCF solver
-------------------------------------------------------------------------------------------

--------------------
CPCM SOLVATION MODEL
--------------------
CPCM parameters:
  Epsilon                                         ...      78.3550
  Refrac                                          ...       1.3328
  Rsolv                                           ...       1.3000
  Surface type                                    ... GAUSSIAN VDW
  Discretization scheme                           ... Constant charge density
    Threshold for H atoms                         ...       5.0000 (charges/Ang^2)
    Threshold for non-H atoms                     ...       5.0000 (charges/Ang^2)
  Epsilon function type                           ...         CPCM
Solvent:                                          ... WATER
SMD-CDS solvent descriptors:
  Soln                                            ...       1.3328
  Soln25                                          ...       1.3323
  Sola                                            ...       0.0000
  Solb                                            ...       0.0000
  Solg                                            ...       0.0000
  Solc                                            ...       0.0000
  Solh                                            ...       0.0000
Radii:
  Scheme                                          ... Element-dependent radii
  Radius for C  used is    3.4960 Bohr (=   1.8500 Ang.)
  Radius for O  used is    2.8724 Bohr (=   1.5200 Ang.)
  Radius for P  used is    4.0062 Bohr (=   2.1200 Ang.)
  Radius for S  used is    4.7054 Bohr (=   2.4900 Ang.)
  Radius for H  used is    2.2677 Bohr (=   1.2000 Ang.)
Calculating surface                               ...        done! (  0.0s)
Cavity surface points                             ...         3387
Cavity Volume                                     ...    2776.0118
Cavity Surface-area                               ...    1394.6151
Calculating surface distance matrix               ...        done! (  0.1s)
Performing Cholesky decomposition & store         ...        done! (  0.4s)
Overall time for CPCM initialization              ...                 0.5s

----------------------------------------D-I-I-S--------------------------------------------
Iteration    Energy (Eh)           Delta-E    RMSDP     MaxDP     DIISErr   Damp  Time(sec)
-------------------------------------------------------------------------------------------
               ***  Starting incremental Fock matrix formation  ***
    1    -2932.0182489093367622     0.00e+00  2.23e-03  9.26e-02  6.34e-01  0.700  12.2
    2    -2932.1626261679666641    -1.44e-01  1.83e-03  7.46e-02  4.46e-01  0.700  11.3
    3    -2932.2647659575695798    -1.02e-01  1.35e-03  5.43e-02  3.13e-01  0.700  11.0
    4    -2932.3364688890487741    -7.17e-02  9.73e-04  3.87e-02  2.19e-01  0.700  10.9
                               ***Turning on AO-DIIS***
    5    -2932.3867621386243627    -5.03e-02  7.12e-04  2.79e-02  1.53e-01  0.700  10.7
    6    -2932.4220129187124257    -3.53e-02  5.08e-04  2.08e-02  1.07e-01  0.700  10.5
    7    -2932.4467295674648994    -2.47e-02  3.59e-04  1.51e-02  7.50e-02  0.700  10.2
    8    -2932.4640489395633267    -1.73e-02  8.45e-04  3.59e-02  5.26e-02  0.000  10.0
                              *** Initializing SOSCF ***
---------------------------------------S-O-S-C-F--------------------------------------
Iteration    Energy (Eh)           Delta-E    RMSDP     MaxDP     MaxGrad    Time(sec)
--------------------------------------------------------------------------------------
    9    -2932.5045182524136180    -4.05e-02  8.89e-06  4.25e-04  2.07e-04    10.8
               *** Restarting incremental Fock matrix formation ***
   10    -2932.5045192898105597    -1.04e-06  6.87e-06  4.55e-04  4.37e-05    13.0
                  *** Gradient check signals convergence ***

               *****************************************************
               *                     SUCCESS                       *
               *           SCF CONVERGED AFTER  10 CYCLES          *
               *****************************************************


SMD CDS free energy correction energy :                 7.08254     Kcal/mol
Total Energy after SMD CDS correction =             -2932.493232548 Eh
             **** ENERGY FILE WAS UPDATED (sp_solv.en.tmp) ****

----------------
TOTAL SCF ENERGY
----------------

Total Energy       :      -2932.49323254772844 Eh          -79797.19767 eV

Components:
Nuclear Repulsion  :       2783.35369499211083 Eh           75738.90453 eV
Electronic Energy  :      -5715.83140474578977 Eh         -155535.67980 eV
One Electron Energy:      -9588.80069263761470 Eh         -260924.53199 eV
Two Electron Energy:       3872.96928789182539 Eh          105388.85219 eV
CPCM Dielectric    :         -0.02680953613284 Eh              -0.72952 eV
SMD CDS (Gcds)     :          0.01128674208199 Eh               0.30713 eV

Virial components:
Potential Energy   :      -5856.16441277818194 Eh         -159354.33509 eV
Kinetic Energy     :       2923.67118023045350 Eh           79557.13742 eV
Virial Ratio       :          2.00301745708510

DFT components:
N(Alpha)           :      101.000066590986 electrons
N(Beta)            :      101.000066590986 electrons
N(Total)           :      202.000133181973 electrons
E(X)               :     -233.539850304532 Eh       
E(C)               :       -7.119037250706 Eh       
E(XC)              :     -240.658887555238 Eh       

CPCM Solvation Model Properties:
Surface-charge          :         -0.04524016634773
Corrected charge        :         -0.00000000000000
Outlying charge corr.   :          0.00010477443144 Eh               0.00285 eV
Free-energy (cav+disp)  :          0.01128674208199 Eh               0.30713 eV

---------------
SCF CONVERGENCE
---------------

  Last Energy change         ...    1.0374e-06  Tolerance :   1.0000e-06
  Last MAX-Density change    ...    4.5516e-04  Tolerance :   1.0000e-05
  Last RMS-Density change    ...    6.8671e-06  Tolerance :   1.0000e-06
  Last DIIS Error            ...    2.0663e-04  Tolerance :   1.0000e-06
  Last Orbital Gradient      ...    4.3680e-05  Tolerance :   3.3300e-04
  Last Orbital Rotation      ...    1.9464e-04  Tolerance :   3.3300e-04


----------------
ORBITAL ENERGIES
----------------

  NO   OCC          E(Eh)            E(eV) 
   0   2.0000     -88.577158     -2410.3070 
   1   2.0000     -88.575241     -2410.2548 
   2   2.0000     -88.527031     -2408.9430 
   3   2.0000     -88.526785     -2408.9363 
   4   2.0000     -76.918351     -2093.0547 
   5   2.0000     -76.917924     -2093.0431 
   6   2.0000     -18.994785      -516.8744 
   7   2.0000     -18.993154      -516.8300 
   8   2.0000     -18.989521      -516.7311 
   9   2.0000     -18.988709      -516.7091 
  10   2.0000     -10.105942      -274.9967 
  11   2.0000     -10.090511      -274.5768 
  12   2.0000     -10.089287      -274.5435 
  13   2.0000     -10.088223      -274.5145 
  14   2.0000     -10.087295      -274.4892 
  15   2.0000     -10.018743      -272.6239 
  16   2.0000     -10.018584      -272.6195 
  17   2.0000     -10.018338      -272.6128 
  18   2.0000     -10.017786      -272.5978 
  19   2.0000      -7.871214      -214.1866 
  20   2.0000      -7.869937      -214.1519 
  21   2.0000      -7.821993      -212.8473 
  22   2.0000      -7.821886      -212.8443 
  23   2.0000      -6.596404      -179.4973 
  24   2.0000      -6.596368      -179.4963 
  25   2.0000      -5.818499      -158.3294 
  26   2.0000      -5.816897      -158.2858 
  27   2.0000      -5.814542      -158.2217 
  28   2.0000      -5.813841      -158.2027 
  29   2.0000      -5.808495      -158.0572 
  30   2.0000      -5.806844      -158.0123 
  31   2.0000      -5.769558      -156.9977 
  32   2.0000      -5.769378      -156.9927 
  33   2.0000      -5.762308      -156.8004 
  34   2.0000      -5.762166      -156.7965 
  35   2.0000      -5.762023      -156.7926 
  36   2.0000      -5.761996      -156.7919 
  37   2.0000      -4.742234      -129.0427 
  38   2.0000      -4.741722      -129.0288 
  39   2.0000      -4.741336      -129.0183 
  40   2.0000      -4.741200      -129.0146 
  41   2.0000      -4.740352      -128.9915 
  42   2.0000      -4.739991      -128.9817 
  43   2.0000      -1.051320       -28.6079 
  44   2.0000      -1.049976       -28.5713 
  45   2.0000      -1.011355       -27.5204 
  46   2.0000      -1.008560       -27.4443 
  47   2.0000      -0.800298       -21.7772 
  48   2.0000      -0.756096       -20.5744 
  49   2.0000      -0.741748       -20.1840 
  50   2.0000      -0.724744       -19.7213 
  51   2.0000      -0.722203       -19.6521 
  52   2.0000      -0.708213       -19.2715 
  53   2.0000      -0.692097       -18.8329 
  54   2.0000      -0.673267       -18.3205 
  55   2.0000      -0.629589       -17.1320 
  56   2.0000      -0.618014       -16.8170 
  57   2.0000      -0.598853       -16.2956 
  58   2.0000      -0.597803       -16.2670 
  59   2.0000      -0.592326       -16.1180 
  60   2.0000      -0.526382       -14.3236 
  61   2.0000      -0.513458       -13.9719 
  62   2.0000      -0.489581       -13.3222 
  63   2.0000      -0.487314       -13.2605 
  64   2.0000      -0.472790       -12.8653 
  65   2.0000      -0.457725       -12.4553 
  66   2.0000      -0.453084       -12.3290 
  67   2.0000      -0.450925       -12.2703 
  68   2.0000      -0.438795       -11.9402 
  69   2.0000      -0.432047       -11.7566 
  70   2.0000      -0.424053       -11.5391 
  71   2.0000      -0.409094       -11.1320 
  72   2.0000      -0.405598       -11.0369 
  73   2.0000      -0.403551       -10.9812 
  74   2.0000      -0.392868       -10.6905 
  75   2.0000      -0.385064       -10.4781 
  76   2.0000      -0.376133       -10.2351 
  77   2.0000      -0.368587       -10.0297 
  78   2.0000      -0.363537        -9.8923 
  79   2.0000      -0.360412        -9.8073 
  80   2.0000      -0.353650        -9.6233 
  81   2.0000      -0.351821        -9.5735 
  82   2.0000      -0.348313        -9.4781 
  83   2.0000      -0.346869        -9.4388 
  84   2.0000      -0.342523        -9.3205 
  85   2.0000      -0.335421        -9.1273 
  86   2.0000      -0.322938        -8.7876 
  87   2.0000      -0.308693        -8.4000 
  88   2.0000      -0.304260        -8.2793 
  89   2.0000      -0.302489        -8.2312 
  90   2.0000      -0.294205        -8.0057 
  91   2.0000      -0.289332        -7.8731 
  92   2.0000      -0.281896        -7.6708 
  93   2.0000      -0.278750        -7.5852 
  94   2.0000      -0.274277        -7.4634 
  95   2.0000      -0.247985        -6.7480 
  96   2.0000      -0.237143        -6.4530 
  97   2.0000      -0.227973        -6.2035 
  98   2.0000      -0.227695        -6.1959 
  99   2.0000      -0.218086        -5.9344 
 100   2.0000      -0.216893        -5.9020 
 101   0.0000      -0.047624        -1.2959 
 102   0.0000      -0.021402        -0.5824 
 103   0.0000      -0.009488        -0.2582 
 104   0.0000       0.000333         0.0091 
 105   0.0000       0.004611         0.1255 
 106   0.0000       0.022295         0.6067 
 107   0.0000       0.030125         0.8197 
 108   0.0000       0.040068         1.0903 
 109   0.0000       0.051830         1.4104 
 110   0.0000       0.065357         1.7785 
 111   0.0000       0.085252         2.3198 
*Only the first 10 virtual orbitals were printed.

                    ********************************
                    * MULLIKEN POPULATION ANALYSIS *
                    ********************************

-----------------------
MULLIKEN ATOMIC CHARGES
-----------------------
   0 C :   -0.491544
   1 C :   -0.151660
   2 O :   -0.300673
   3 P :    0.716947
   4 S :   -0.525360
   5 O :   -0.332835
   6 C :   -0.150320
   7 C :   -0.491930
   8 S :   -0.104727
   9 C :   -0.261042
  10 S :   -0.164364
  11 P :    0.716093
  12 S :   -0.528550
  13 O :   -0.315106
  14 C :   -0.127508
  15 C :   -0.491173
  16 O :   -0.272192
  17 C :   -0.129154
  18 C :   -0.493229
  19 H :    0.169240
  20 H :    0.171103
  21 H :    0.167627
  22 H :    0.178261
  23 H :    0.179418
  24 H :    0.175005
  25 H :    0.178927
  26 H :    0.172791
  27 H :    0.174314
  28 H :    0.169203
  29 H :    0.231656
  30 H :    0.226368
  31 H :    0.171221
  32 H :    0.170204
  33 H :    0.168695
  34 H :    0.166197
  35 H :    0.166648
  36 H :    0.176213
  37 H :    0.174922
  38 H :    0.172326
  39 H :    0.167053
  40 H :    0.170934
Sum of atomic charges:    0.0000000

--------------------------------
MULLIKEN REDUCED ORBITAL CHARGES
--------------------------------
  0 C s       :     3.341204  s :     3.341204
      pz      :     1.095896  p :     3.124581
      px      :     0.983265
      py      :     1.045421
      dz2     :     0.005474  d :     0.025759
      dxz     :     0.005998
      dyz     :     0.001969
      dx2y2   :     0.007324
      dxy     :     0.004993

  1 C s       :     3.293942  s :     3.293942
      pz      :     0.753316  p :     2.803169
      px      :     1.007752
      py      :     1.042101
      dz2     :     0.013159  d :     0.054549
      dxz     :     0.015744
      dyz     :     0.008503
      dx2y2   :     0.010422
      dxy     :     0.006721

  2 O s       :     3.728431  s :     3.728431
      pz      :     1.110758  p :     4.546753
      px      :     1.674667
      py      :     1.761327
      dz2     :    -0.009003  d :     0.025490
      dxz     :     0.017306
      dyz     :    -0.001980
      dx2y2   :     0.011089
      dxy     :     0.008076

  3 P s       :     5.111163  s :     5.111163
      pz      :     2.836127  p :     8.444947
      px      :     2.808166
      py      :     2.800655
      dz2     :     0.109946  d :     0.726943
      dxz     :     0.140837
      dyz     :     0.155397
      dx2y2   :     0.187738
      dxy     :     0.133024

  4 S s       :     5.909187  s :     5.909187
      pz      :     3.707393  p :    10.550654
      px      :     3.490900
      py      :     3.352360
      dz2     :     0.009615  d :     0.065520
      dxz     :     0.005496
      dyz     :     0.009843
      dx2y2   :     0.014585
      dxy     :     0.025981

  5 O s       :     3.742528  s :     3.742528
      pz      :     1.604252  p :     4.558475
      px      :     1.435885
      py      :     1.518337
      dz2     :     0.010484  d :     0.031832
      dxz     :     0.005950
      dyz     :     0.004106
      dx2y2   :     0.003254
      dxy     :     0.008038

  6 C s       :     3.292899  s :     3.292899
      pz      :     0.836990  p :     2.803057
      px      :     0.824308
      py      :     1.141759
      dz2     :     0.014902  d :     0.054364
      dxz     :     0.015677
      dyz     :     0.006244
      dx2y2   :     0.007112
      dxy     :     0.010430

  7 C s       :     3.335782  s :     3.335782
      pz      :     0.942219  p :     3.130472
      px      :     1.098631
      py      :     1.089622
      dz2     :     0.007099  d :     0.025676
      dxz     :     0.006177
      dyz     :     0.003345
      dx2y2   :     0.003554
      dxy     :     0.005501

  8 S s       :     5.900679  s :     5.900679
      pz      :     3.601715  p :    10.098067
      px      :     3.306410
      py      :     3.189942
      dz2     :     0.014778  d :     0.105981
      dxz     :     0.024229
      dyz     :     0.017830
      dx2y2   :     0.028823
      dxy     :     0.020322

  9 C s       :     3.190847  s :     3.190847
      pz      :     0.918931  p :     3.035297
      px      :     1.184837
      py      :     0.931529
      dz2     :     0.007383  d :     0.034898
      dxz     :     0.006461
      dyz     :     0.007543
      dx2y2   :     0.007020
      dxy     :     0.006490

 10 S s       :     5.915247  s :     5.915247
      pz      :     3.115558  p :    10.137390
      px      :     3.399931
      py      :     3.621902
      dz2     :     0.028639  d :     0.111728
      dxz     :     0.024594
      dyz     :     0.020641
      dx2y2   :     0.018226
      dxy     :     0.019627

 11 P s       :     5.135160  s :     5.135160
      pz      :     2.803181  p :     8.421897
      px      :     2.803588
      py      :     2.815128
      dz2     :     0.145247  d :     0.726849
      dxz     :     0.169174
      dyz     :     0.173117
      dx2y2   :     0.139738
      dxy     :     0.099574

 12 S s       :     5.898846  s :     5.898846
      pz      :     3.212661  p :    10.566357
      px      :     3.665962
      py      :     3.687733
      dz2     :     0.025938  d :     0.063347
      dxz     :     0.016967
      dyz     :     0.014900
      dx2y2   :     0.002288
      dxy     :     0.003254

 13 O s       :     3.729236  s :     3.729236
      pz      :     1.631829  p :     4.564833
      px      :     1.400751
      py      :     1.532253
      dz2     :    -0.001452  d :     0.021037
      dxz     :     0.006812
      dyz     :     0.004232
      dx2y2   :     0.011392
      dxy     :     0.000052

 14 C s       :     3.286479  s :     3.286479
      pz      :     1.102846  p :     2.786907
      px      :     0.831692
      py      :     0.852369
      dz2     :     0.009696  d :     0.054122
      dxz     :     0.006910
      dyz     :     0.009017
      dx2y2   :     0.012304
      dxy     :     0.016195

 15 C s       :     3.341129  s :     3.341129
      pz      :     1.078473  p :     3.124371
      px      :     0.959308
      py      :     1.086590
      dz2     :     0.006185  d :     0.025673
      dxz     :     0.003972
      dyz     :     0.004739
      dx2y2   :     0.003737
      dxy     :     0.007040

 16 O s       :     3.718279  s :     3.718279
      pz      :     1.757696  p :     4.533704
      px      :     1.598592
      py      :     1.177416
      dz2     :     0.003270  d :     0.020209
      dxz     :     0.010297
      dyz     :     0.002444
      dx2y2   :     0.007529
      dxy     :    -0.003331

 17 C s       :     3.276231  s :     3.276231
      pz      :     1.007243  p :     2.798948
      px      :     0.918728
      py      :     0.872978
      dz2     :     0.010400  d :     0.053975
      dxz     :     0.012513
      dyz     :     0.007304
      dx2y2   :     0.007291
      dxy     :     0.016467

 18 C s       :     3.341104  s :     3.341104
      pz      :     0.999277  p :     3.126382
      px      :     1.034450
      py      :     1.092655
      dz2     :     0.005869  d :     0.025744
      dxz     :     0.007773
      dyz     :     0.002927
      dx2y2   :     0.002164
      dxy     :     0.007011

 19 H s       :     0.812544  s :     0.812544
      pz      :     0.003543  p :     0.018216
      px      :     0.003753
      py      :     0.010920

 20 H s       :     0.810397  s :     0.810397
      pz      :     0.010226  p :     0.018501
      px      :     0.004253
      py      :     0.004022

 21 H s       :     0.813982  s :     0.813982
      pz      :     0.006615  p :     0.018391
      px      :     0.007932
      py      :     0.003844

 22 H s       :     0.804190  s :     0.804190
      pz      :     0.005967  p :     0.017549
      px      :     0.008075
      py      :     0.003506

 23 H s       :     0.802677  s :     0.802677
      pz      :     0.002401  p :     0.017906
      px      :     0.003703
      py      :     0.011802

 24 H s       :     0.807440  s :     0.807440
      pz      :     0.003050  p :     0.017554
      px      :     0.004079
      py      :     0.010424

 25 H s       :     0.803199  s :     0.803199
      pz      :     0.003060  p :     0.017874
      px      :     0.006907
      py      :     0.007907

 26 H s       :     0.808688  s :     0.808688
      pz      :     0.006751  p :     0.018521
      px      :     0.007749
      py      :     0.004021

 27 H s       :     0.807176  s :     0.807176
      pz      :     0.003774  p :     0.018510
      px      :     0.004488
      py      :     0.010248

 28 H s       :     0.812570  s :     0.812570
      pz      :     0.003641  p :     0.018227
      px      :     0.008064
      py      :     0.006521

 29 H s       :     0.749589  s :     0.749589
      pz      :     0.004892  p :     0.018755
      px      :     0.007548
      py      :     0.006315

 30 H s       :     0.754821  s :     0.754821
      pz      :     0.005248  p :     0.018811
      px      :     0.010434
      py      :     0.003129

 31 H s       :     0.811231  s :     0.811231
      pz      :     0.005966  p :     0.017548
      px      :     0.003696
      py      :     0.007886

 32 H s       :     0.811153  s :     0.811153
      pz      :     0.012057  p :     0.018643
      px      :     0.003032
      py      :     0.003555

 33 H s       :     0.812794  s :     0.812794
      pz      :     0.003691  p :     0.018510
      px      :     0.006943
      py      :     0.007876

 34 H s       :     0.815547  s :     0.815547
      pz      :     0.006004  p :     0.018256
      px      :     0.004436
      py      :     0.007816

 35 H s       :     0.815031  s :     0.815031
      pz      :     0.010309  p :     0.018320
      px      :     0.003511
      py      :     0.004500

 36 H s       :     0.806263  s :     0.806263
      pz      :     0.003614  p :     0.017524
      px      :     0.005563
      py      :     0.008347

 37 H s       :     0.807465  s :     0.807465
      pz      :     0.009580  p :     0.017613
      px      :     0.004978
      py      :     0.003056

 38 H s       :     0.809174  s :     0.809174
      pz      :     0.003906  p :     0.018500
      px      :     0.006600
      py      :     0.007993

 39 H s       :     0.814407  s :     0.814407
      pz      :     0.003787  p :     0.018540
      px      :     0.005893
      py      :     0.008861

 40 H s       :     0.810870  s :     0.810870
      pz      :     0.009122  p :     0.018196
      px      :     0.005164
      py      :     0.003910


------------------------
MULLIKEN OVERLAP CHARGES
------------------------
B(  0-C ,  1-C ) :   0.3989 B(  0-C ,  2-O ) :  -0.1577 B(  0-C , 19-H ) :   0.8256 
B(  0-C , 20-H ) :   0.7947 B(  0-C , 21-H ) :   0.8249 B(  0-C , 23-H ) :  -0.0951 
B(  1-C ,  2-O ) :   0.2653 B(  1-C ,  3-P ) :  -0.1624 B(  1-C , 19-H ) :  -0.0728 
B(  1-C , 20-H ) :  -0.0621 B(  1-C , 21-H ) :  -0.0750 B(  1-C , 22-H ) :   0.8046 
B(  1-C , 23-H ) :   0.8673 B(  2-O ,  3-P ) :   0.6204 B(  2-O ,  4-S ) :  -0.0820 
B(  2-O ,  5-O ) :  -0.2222 B(  2-O ,  8-S ) :  -0.1648 B(  2-O , 22-H ) :  -0.0961 
B(  2-O , 23-H ) :  -0.0720 B(  3-P ,  4-S ) :   1.1873 B(  3-P ,  5-O ) :   0.5023 
B(  3-P ,  6-C ) :  -0.1645 B(  3-P ,  8-S ) :   0.8050 B(  3-P ,  9-C ) :  -0.0991 
B(  4-S ,  5-O ) :  -0.0959 B(  4-S ,  8-S ) :  -0.1006 B(  5-O ,  6-C ) :   0.3425 
B(  5-O ,  7-C ) :  -0.1672 B(  5-O ,  8-S ) :  -0.0927 B(  5-O , 24-H ) :  -0.1008 
B(  5-O , 25-H ) :  -0.0801 B(  6-C ,  7-C ) :   0.4041 B(  6-C , 24-H ) :   0.7942 
B(  6-C , 25-H ) :   0.8835 B(  6-C , 27-H ) :  -0.0895 B(  6-C , 28-H ) :  -0.0637 
B(  7-C , 25-H ) :  -0.1151 B(  7-C , 26-H ) :   0.7796 B(  7-C , 27-H ) :   0.8448 
B(  7-C , 28-H ) :   0.8074 B(  8-S ,  9-C ) :   0.3990 B(  8-S , 10-S ) :  -0.1354 
B(  8-S , 29-H ) :  -0.0667 B(  8-S , 30-H ) :  -0.0676 B(  9-C , 10-S ) :   0.3655 
B(  9-C , 11-P ) :  -0.0771 B(  9-C , 29-H ) :   0.8019 B(  9-C , 30-H ) :   0.7774 
B( 10-S , 11-P ) :   0.6712 B( 10-S , 12-S ) :  -0.0765 B( 10-S , 13-O ) :  -0.1081 
B( 10-S , 16-O ) :  -0.1220 B( 10-S , 29-H ) :  -0.0713 B( 10-S , 30-H ) :  -0.0511 
B( 11-P , 12-S ) :   1.2351 B( 11-P , 13-O ) :   0.4788 B( 11-P , 14-C ) :  -0.1514 
B( 11-P , 16-O ) :   0.6184 B( 11-P , 17-C ) :  -0.1940 B( 12-S , 13-O ) :  -0.0983 
B( 12-S , 16-O ) :  -0.0852 B( 13-O , 14-C ) :   0.2509 B( 13-O , 15-C ) :  -0.0887 
B( 13-O , 16-O ) :  -0.2032 B( 13-O , 31-H ) :  -0.0813 B( 13-O , 32-H ) :  -0.0792 
B( 14-C , 15-C ) :   0.5061 B( 14-C , 31-H ) :   0.7785 B( 14-C , 32-H ) :   0.8457 
B( 14-C , 33-H ) :  -0.0718 B( 14-C , 34-H ) :  -0.0728 B( 14-C , 35-H ) :  -0.0614 
B( 15-C , 32-H ) :  -0.0547 B( 15-C , 33-H ) :   0.8120 B( 15-C , 34-H ) :   0.8321 
B( 15-C , 35-H ) :   0.8279 B( 16-O , 17-C ) :   0.2357 B( 16-O , 18-C ) :  -0.1366 
B( 16-O , 36-H ) :  -0.0959 B( 16-O , 37-H ) :  -0.0685 B( 17-C , 18-C ) :   0.4093 
B( 17-C , 36-H ) :   0.7947 B( 17-C , 37-H ) :   0.8576 B( 17-C , 38-H ) :  -0.0681 
B( 17-C , 39-H ) :  -0.0694 B( 17-C , 40-H ) :  -0.0686 B( 18-C , 37-H ) :  -0.0984 
B( 18-C , 38-H ) :   0.7999 B( 18-C , 39-H ) :   0.8197 B( 18-C , 40-H ) :   0.8250 
B( 19-H , 21-H ) :  -0.0504 B( 27-H , 28-H ) :  -0.0533 B( 31-H , 32-H ) :  -0.0567 
B( 39-H , 40-H ) :  -0.0508 


                     *******************************
                     * LOEWDIN POPULATION ANALYSIS *
                     *******************************

----------------------
LOEWDIN ATOMIC CHARGES
----------------------
   0 C :   -0.402521
   1 C :    0.018216
   2 O :   -0.693768
   3 P :    0.376632
   4 S :   -0.157679
   5 O :   -0.673941
   6 C :    0.024540
   7 C :   -0.410466
   8 S :    0.192966
   9 C :   -0.396793
  10 S :    0.172769
  11 P :    0.372585
  12 S :   -0.166346
  13 O :   -0.685279
  14 C :    0.027634
  15 C :   -0.391953
  16 O :   -0.692392
  17 C :    0.034445
  18 C :   -0.403771
  19 H :    0.163792
  20 H :    0.168143
  21 H :    0.162274
  22 H :    0.189806
  23 H :    0.182134
  24 H :    0.190671
  25 H :    0.181533
  26 H :    0.168267
  27 H :    0.161676
  28 H :    0.163551
  29 H :    0.198000
  30 H :    0.200228
  31 H :    0.180472
  32 H :    0.182527
  33 H :    0.168301
  34 H :    0.161615
  35 H :    0.162768
  36 H :    0.191367
  37 H :    0.183186
  38 H :    0.168292
  39 H :    0.162994
  40 H :    0.163524

-------------------------------
LOEWDIN REDUCED ORBITAL CHARGES
-------------------------------
  0 C s       :     2.975183  s :     2.975183
      pz      :     1.145293  p :     3.366857
      px      :     1.086586
      py      :     1.134979
      dz2     :     0.013664  d :     0.060481
      dxz     :     0.014227
      dyz     :     0.004195
      dx2y2   :     0.017003
      dxy     :     0.011392

  1 C s       :     2.874995  s :     2.874995
      pz      :     0.852569  p :     2.984391
      px      :     1.057052
      py      :     1.074770
      dz2     :     0.030029  d :     0.122398
      dxz     :     0.037393
      dyz     :     0.017395
      dx2y2   :     0.022512
      dxy     :     0.015068

  2 O s       :     3.465371  s :     3.465371
      pz      :     1.369491  p :     4.732117
      px      :     1.657766
      py      :     1.704859
      dz2     :     0.158890  d :     0.496280
      dxz     :     0.141925
      dyz     :     0.100467
      dx2y2   :     0.044561
      dxy     :     0.050437

  3 P s       :     4.650706  s :     4.650706
      pz      :     2.759739  p :     8.395086
      px      :     2.814479
      py      :     2.820867
      dz2     :     0.273655  d :     1.577576
      dxz     :     0.354676
      dyz     :     0.275312
      dx2y2   :     0.336712
      dxy     :     0.337219

  4 S s       :     5.564747  s :     5.564747
      pz      :     3.635235  p :    10.456431
      px      :     3.464730
      py      :     3.356466
      dz2     :     0.023740  d :     0.136501
      dxz     :     0.010563
      dyz     :     0.015887
      dx2y2   :     0.025183
      dxy     :     0.061127

  5 O s       :     3.466600  s :     3.466600
      pz      :     1.599977  p :     4.739879
      px      :     1.532762
      py      :     1.607140
      dz2     :     0.095850  d :     0.467462
      dxz     :     0.091053
      dyz     :     0.062940
      dx2y2   :     0.098372
      dxy     :     0.119246

  6 C s       :     2.875743  s :     2.875743
      pz      :     0.946391  p :     2.977842
      px      :     0.915260
      py      :     1.116192
      dz2     :     0.035168  d :     0.121875
      dxz     :     0.034448
      dyz     :     0.010973
      dx2y2   :     0.015326
      dxy     :     0.025961

  7 C s       :     2.976910  s :     2.976910
      pz      :     1.056957  p :     3.373220
      px      :     1.157351
      py      :     1.158912
      dz2     :     0.015988  d :     0.060336
      dxz     :     0.015163
      dyz     :     0.006625
      dx2y2   :     0.008758
      dxy     :     0.013801

  8 S s       :     5.429474  s :     5.429474
      pz      :     3.530027  p :    10.074339
      px      :     3.315639
      py      :     3.228672
      dz2     :     0.039522  d :     0.303221
      dxz     :     0.065609
      dyz     :     0.044075
      dx2y2   :     0.088984
      dxy     :     0.065032

  9 C s       :     3.007571  s :     3.007571
      pz      :     1.073262  p :     3.307903
      px      :     1.156075
      py      :     1.078566
      dz2     :     0.017757  d :     0.081318
      dxz     :     0.014394
      dyz     :     0.017719
      dx2y2   :     0.017010
      dxy     :     0.014439

 10 S s       :     5.437431  s :     5.437431
      pz      :     3.156713  p :    10.078493
      px      :     3.373059
      py      :     3.548721
      dz2     :     0.090537  d :     0.311307
      dxz     :     0.073423
      dyz     :     0.060167
      dx2y2   :     0.042020
      dxy     :     0.045160

 11 P s       :     4.648591  s :     4.648591
      pz      :     2.859702  p :     8.394183
      px      :     2.783173
      py      :     2.751308
      dz2     :     0.354671  d :     1.584641
      dxz     :     0.341961
      dyz     :     0.317715
      dx2y2   :     0.293603
      dxy     :     0.276691

 12 S s       :     5.561920  s :     5.561920
      pz      :     3.252357  p :    10.470995
      px      :     3.598959
      py      :     3.619679
      dz2     :     0.059988  d :     0.133432
      dxz     :     0.033553
      dyz     :     0.028845
      dx2y2   :     0.004406
      dxy     :     0.006640

 13 O s       :     3.465124  s :     3.465124
      pz      :     1.658907  p :     4.741364
      px      :     1.520363
      py      :     1.562094
      dz2     :     0.085230  d :     0.478790
      dxz     :     0.096706
      dyz     :     0.076034
      dx2y2   :     0.118264
      dxy     :     0.102556

 14 C s       :     2.875837  s :     2.875837
      pz      :     1.115103  p :     2.975260
      px      :     0.937916
      py      :     0.922242
      dz2     :     0.022428  d :     0.121269
      dxz     :     0.013777
      dyz     :     0.022200
      dx2y2   :     0.027155
      dxy     :     0.035709

 15 C s       :     2.975038  s :     2.975038
      pz      :     1.147221  p :     3.356716
      px      :     1.060674
      py      :     1.148821
      dz2     :     0.014864  d :     0.060199
      dxz     :     0.008235
      dyz     :     0.011909
      dx2y2   :     0.007799
      dxy     :     0.017392

 16 O s       :     3.464096  s :     3.464096
      pz      :     1.712336  p :     4.728424
      px      :     1.598124
      py      :     1.417964
      dz2     :     0.063596  d :     0.499872
      dxz     :     0.074858
      dyz     :     0.089808
      dx2y2   :     0.143852
      dxy     :     0.127757

 17 C s       :     2.874324  s :     2.874324
      pz      :     1.063342  p :     2.970628
      px      :     0.980319
      py      :     0.926967
      dz2     :     0.021561  d :     0.120604
      dxz     :     0.030194
      dyz     :     0.014016
      dx2y2   :     0.016764
      dxy     :     0.038067

 18 C s       :     2.974593  s :     2.974593
      pz      :     1.108729  p :     3.368670
      px      :     1.107270
      py      :     1.152671
      dz2     :     0.014099  d :     0.060508
      dxz     :     0.018281
      dyz     :     0.006316
      dx2y2   :     0.004405
      dxy     :     0.017407

 19 H s       :     0.792337  s :     0.792337
      pz      :     0.007919  p :     0.043871
      px      :     0.008566
      py      :     0.027386

 20 H s       :     0.787277  s :     0.787277
      pz      :     0.025564  p :     0.044580
      px      :     0.009788
      py      :     0.009229

 21 H s       :     0.793382  s :     0.793382
      pz      :     0.016170  p :     0.044344
      px      :     0.019358
      py      :     0.008816

 22 H s       :     0.769666  s :     0.769666
      pz      :     0.012404  p :     0.040528
      px      :     0.020008
      py      :     0.008116

 23 H s       :     0.775412  s :     0.775412
      pz      :     0.005405  p :     0.042454
      px      :     0.008690
      py      :     0.028360

 24 H s       :     0.768678  s :     0.768678
      pz      :     0.007189  p :     0.040651
      px      :     0.008382
      py      :     0.025080

 25 H s       :     0.775959  s :     0.775959
      pz      :     0.007612  p :     0.042508
      px      :     0.015742
      py      :     0.019154

 26 H s       :     0.787070  s :     0.787070
      pz      :     0.016224  p :     0.044664
      px      :     0.019337
      py      :     0.009102

 27 H s       :     0.793549  s :     0.793549
      pz      :     0.008508  p :     0.044774
      px      :     0.010210
      py      :     0.026056

 28 H s       :     0.792518  s :     0.792518
      pz      :     0.008007  p :     0.043931
      px      :     0.019733
      py      :     0.016190

 29 H s       :     0.754873  s :     0.754873
      pz      :     0.011723  p :     0.047127
      px      :     0.019296
      py      :     0.016109

 30 H s       :     0.752648  s :     0.752648
      pz      :     0.012943  p :     0.047124
      px      :     0.027054
      py      :     0.007127

 31 H s       :     0.778437  s :     0.778437
      pz      :     0.014575  p :     0.041091
      px      :     0.009001
      py      :     0.017516

 32 H s       :     0.773677  s :     0.773677
      pz      :     0.029379  p :     0.043796
      px      :     0.006745
      py      :     0.007672

 33 H s       :     0.787209  s :     0.787209
      pz      :     0.008210  p :     0.044490
      px      :     0.016670
      py      :     0.019610

 34 H s       :     0.794523  s :     0.794523
      pz      :     0.014657  p :     0.043863
      px      :     0.010015
      py      :     0.019191

 35 H s       :     0.793418  s :     0.793418
      pz      :     0.025745  p :     0.043814
      px      :     0.007716
      py      :     0.010354

 36 H s       :     0.768079  s :     0.768079
      pz      :     0.008002  p :     0.040553
      px      :     0.014182
      py      :     0.018369

 37 H s       :     0.774955  s :     0.774955
      pz      :     0.023008  p :     0.041859
      px      :     0.011436
      py      :     0.007415

 38 H s       :     0.787090  s :     0.787090
      pz      :     0.009106  p :     0.044617
      px      :     0.015771
      py      :     0.019741

 39 H s       :     0.792452  s :     0.792452
      pz      :     0.008472  p :     0.044555
      px      :     0.013945
      py      :     0.022138

 40 H s       :     0.792683  s :     0.792683
      pz      :     0.022418  p :     0.043792
      px      :     0.012434
      py      :     0.008940


---------------------------------
LOEWDIN BOND ORDERS (THRESH 0.050000)
---------------------------------
B(  0-C ,  1-C ) :   1.0937 B(  0-C ,  2-O ) :   0.1574 B(  0-C , 19-H ) :   0.9206 
B(  0-C , 20-H ) :   0.9128 B(  0-C , 21-H ) :   0.9153 B(  1-C ,  2-O ) :   1.2948 
B(  1-C ,  3-P ) :   0.0954 B(  1-C , 20-H ) :   0.0505 B(  1-C , 22-H ) :   0.8224 
B(  1-C , 23-H ) :   0.8237 B(  2-O ,  3-P ) :   1.5490 B(  2-O ,  4-S ) :   0.1780 
B(  2-O ,  5-O ) :   0.2204 B(  2-O ,  8-S ) :   0.1660 B(  2-O , 10-S ) :   0.0652 
B(  2-O , 22-H ) :   0.1012 B(  2-O , 23-H ) :   0.0979 B(  3-P ,  4-S ) :   1.9894 
B(  3-P ,  5-O ) :   1.5678 B(  3-P ,  6-C ) :   0.0942 B(  3-P ,  8-S ) :   1.2498 
B(  3-P ,  9-C ) :   0.0878 B(  3-P , 10-S ) :   0.0574 B(  4-S ,  5-O ) :   0.1830 
B(  4-S ,  8-S ) :   0.1441 B(  4-S , 10-S ) :   0.0535 B(  5-O ,  6-C ) :   1.2985 
B(  5-O ,  7-C ) :   0.1559 B(  5-O ,  8-S ) :   0.1465 B(  5-O , 24-H ) :   0.1006 
B(  5-O , 25-H ) :   0.0976 B(  6-C ,  7-C ) :   1.0940 B(  6-C , 24-H ) :   0.8234 
B(  6-C , 25-H ) :   0.8257 B(  6-C , 26-H ) :   0.0511 B(  7-C , 26-H ) :   0.9115 
B(  7-C , 27-H ) :   0.9162 B(  7-C , 28-H ) :   0.9197 B(  8-S ,  9-C ) :   1.2892 
B(  8-S , 10-S ) :   0.1928 B(  8-S , 16-O ) :   0.0946 B(  8-S , 29-H ) :   0.0621 
B(  8-S , 30-H ) :   0.0573 B(  9-C , 10-S ) :   1.2898 B(  9-C , 11-P ) :   0.0767 
B(  9-C , 29-H ) :   0.8410 B(  9-C , 30-H ) :   0.8435 B( 10-S , 11-P ) :   1.2414 
B( 10-S , 12-S ) :   0.1472 B( 10-S , 13-O ) :   0.1565 B( 10-S , 16-O ) :   0.1585 
B( 10-S , 29-H ) :   0.0607 B( 10-S , 30-H ) :   0.0583 B( 11-P , 12-S ) :   2.0513 
B( 11-P , 13-O ) :   1.5406 B( 11-P , 14-C ) :   0.0985 B( 11-P , 16-O ) :   1.5759 
B( 11-P , 17-C ) :   0.0900 B( 12-S , 13-O ) :   0.1809 B( 12-S , 14-C ) :   0.0557 
B( 12-S , 16-O ) :   0.1686 B( 13-O , 14-C ) :   1.2841 B( 13-O , 15-C ) :   0.1744 
B( 13-O , 16-O ) :   0.2233 B( 13-O , 31-H ) :   0.0965 B( 13-O , 32-H ) :   0.0962 
B( 14-C , 15-C ) :   1.0903 B( 14-C , 31-H ) :   0.8323 B( 14-C , 32-H ) :   0.8195 
B( 14-C , 33-H ) :   0.0502 B( 15-C , 33-H ) :   0.9140 B( 15-C , 34-H ) :   0.9224 
B( 15-C , 35-H ) :   0.9205 B( 16-O , 17-C ) :   1.2760 B( 16-O , 18-C ) :   0.1541 
B( 16-O , 36-H ) :   0.1013 B( 16-O , 37-H ) :   0.0962 B( 17-C , 18-C ) :   1.0964 
[...]
38 H  px              0.0       0.0       0.1       0.0       0.0       0.0
38 H  py              0.0       0.0       0.1       0.0       0.0       0.0

                    522       523       524       525       526       527   
                  18.88700  18.92210  19.11377  19.14569  21.92326  21.96559
                   0.00000   0.00000   0.00000   0.00000   0.00000   0.00000
                  --------  --------  --------  --------  --------  --------
 0 C  s               0.0       0.0       0.0       0.0       0.0      65.1
 3 P  s               0.2       0.0       0.0       0.1       0.0       0.0
 3 P  py              0.2       0.0       0.0       0.0       0.0       0.0
 4 S  s              93.6       0.0       2.2       3.0       0.0       0.0
 6 C  s               0.0       0.0       0.0       0.0       0.0       0.3
 7 C  s               0.0       0.0       0.0       0.0       0.1      30.8
 8 S  s               0.9       5.5      17.8      74.9       0.0       0.0
 9 C  s               0.0       0.0       0.0       0.6       0.0       1.4
10 S  s               4.5       2.5      73.1      18.9       0.0       0.0
11 P  s               0.0       0.1       0.0       0.0       0.0       0.0
11 P  pz              0.0       0.3       0.0       0.0       0.0       0.0
12 S  s               0.0      90.9       6.0       1.9       0.0       0.0
12 S  pz              0.0       0.1       0.0       0.0       0.0       0.0
14 C  s               0.0       0.0       0.0       0.0       5.2       0.0
15 C  s               0.0       0.0       0.0       0.0      89.8       0.2
17 C  s               0.0       0.0       0.1       0.0       1.1       0.3
18 C  s               0.0       0.0       0.0       0.0       3.3       1.4

                    528       529       530       531       532       533   
                  21.98731  22.00371  22.04884  22.05052  22.06579  22.09539
                   0.00000   0.00000   0.00000   0.00000   0.00000   0.00000
                  --------  --------  --------  --------  --------  --------
 0 C  s               1.7      31.0       0.7       0.6       0.3       0.0
 1 C  s               0.0       0.2       1.1      24.9       1.6       2.9
 6 C  s               0.1       0.5       0.0      23.0      56.7       1.0
 7 C  s               0.3      67.2       0.0       0.2       0.3       0.2
 9 C  s               1.8       0.6      18.0      20.9      29.4      16.1
14 C  s               9.7       0.0      69.3       3.6       2.4       9.2
15 C  s               1.1       0.0       4.7       0.0       0.4       3.4
17 C  s               0.4       0.1       2.0      23.4       5.8      66.0
18 C  s              84.7       0.1       3.7       2.8       2.7       0.7

                    534       535       536       537       538   
                  22.09801  43.81851  43.84736  43.88982  43.91305
                   0.00000   0.00000   0.00000   0.00000   0.00000
                  --------  --------  --------  --------  --------
 1 C  s              68.7       0.0       0.0       0.0       0.0
 2 O  s               0.0       6.3       3.4      64.3      25.9
 5 O  s               0.0      50.9      34.1       1.6      13.3
 6 C  s              17.9       0.0       0.0       0.0       0.0
 7 C  s               0.5       0.0       0.0       0.0       0.0
 9 C  s              11.3       0.0       0.0       0.0       0.0
13 O  s               0.0      20.1      54.7       8.4      16.7
14 C  s               0.2       0.0       0.0       0.0       0.0
16 O  s               0.0      22.6       7.7      25.6      44.0
17 C  s               0.5       0.0       0.0       0.0       0.0
18 C  s               0.2       0.0       0.0       0.0       0.0


                      *****************************
                      * MAYER POPULATION ANALYSIS *
                      *****************************

  NA   - Mulliken gross atomic population
  ZA   - Total nuclear charge
  QA   - Mulliken gross atomic charge
  VA   - Mayer's total valence
  BVA  - Mayer's bonded valence
  FA   - Mayer's free valence

  ATOM       NA         ZA         QA         VA         BVA        FA
  0 C      6.4915     6.0000    -0.4915     3.7877     3.7877    -0.0000
  1 C      6.1517     6.0000    -0.1517     3.6210     3.6210     0.0000
  2 O      8.3007     8.0000    -0.3007     1.8417     1.8417     0.0000
  3 P     14.2831    15.0000     0.7169     5.1854     5.1854     0.0000
  4 S     16.5254    16.0000    -0.5254     1.9938     1.9938     0.0000
  5 O      8.3328     8.0000    -0.3328     1.8165     1.8165     0.0000
  6 C      6.1503     6.0000    -0.1503     3.6493     3.6493    -0.0000
  7 C      6.4919     6.0000    -0.4919     3.7524     3.7524     0.0000
  8 S     16.1047    16.0000    -0.1047     2.2146     2.2146     0.0000
  9 C      6.2610     6.0000    -0.2610     3.7165     3.7165    -0.0000
 10 S     16.1644    16.0000    -0.1644     2.1843     2.1843     0.0000
 11 P     14.2839    15.0000     0.7161     5.1080     5.1080     0.0000
 12 S     16.5285    16.0000    -0.5285     1.9916     1.9916    -0.0000
 13 O      8.3151     8.0000    -0.3151     1.8061     1.8061    -0.0000
 14 C      6.1275     6.0000    -0.1275     3.6275     3.6275     0.0000
 15 C      6.4912     6.0000    -0.4912     3.8519     3.8519    -0.0000
 16 O      8.2722     8.0000    -0.2722     1.8616     1.8616     0.0000
 17 C      6.1292     6.0000    -0.1292     3.6100     3.6100     0.0000
 18 C      6.4932     6.0000    -0.4932     3.7948     3.7948     0.0000
 19 H      0.8308     1.0000     0.1692     0.9573     0.9573     0.0000
 20 H      0.8289     1.0000     0.1711     0.9573     0.9573     0.0000
 21 H      0.8324     1.0000     0.1676     0.9580     0.9580    -0.0000
 22 H      0.8217     1.0000     0.1783     0.9445     0.9445     0.0000
 23 H      0.8206     1.0000     0.1794     0.9516     0.9516    -0.0000
 24 H      0.8250     1.0000     0.1750     0.9444     0.9444    -0.0000
 25 H      0.8211     1.0000     0.1789     0.9496     0.9496    -0.0000
 26 H      0.8272     1.0000     0.1728     0.9577     0.9577     0.0000
 27 H      0.8257     1.0000     0.1743     0.9552     0.9552     0.0000
 28 H      0.8308     1.0000     0.1692     0.9552     0.9552     0.0000
 29 H      0.7683     1.0000     0.2317     0.9357     0.9357    -0.0000
 30 H      0.7736     1.0000     0.2264     0.9404     0.9404     0.0000
 31 H      0.8288     1.0000     0.1712     0.9440     0.9440    -0.0000
 32 H      0.8298     1.0000     0.1702     0.9552     0.9552    -0.0000
 33 H      0.8313     1.0000     0.1687     0.9584     0.9584    -0.0000
 34 H      0.8338     1.0000     0.1662     0.9565     0.9565    -0.0000
 35 H      0.8334     1.0000     0.1666     0.9563     0.9563    -0.0000
 36 H      0.8238     1.0000     0.1762     0.9453     0.9453     0.0000
 37 H      0.8251     1.0000     0.1749     0.9509     0.9509     0.0000
 38 H      0.8277     1.0000     0.1723     0.9569     0.9569     0.0000
 39 H      0.8329     1.0000     0.1671     0.9582     0.9582     0.0000
 40 H      0.8291     1.0000     0.1709     0.9556     0.9556     0.0000

  Mayer bond orders larger than 0.100000
B(  0-C ,  1-C ) :   0.9169 B(  0-C , 19-H ) :   0.9719 B(  0-C , 20-H ) :   0.9571 
B(  0-C , 21-H ) :   0.9606 B(  1-C ,  2-O ) :   0.7788 B(  1-C , 22-H ) :   0.9510 
B(  1-C , 23-H ) :   0.9584 B(  2-O ,  3-P ) :   1.1521 B(  3-P ,  4-S ) :   1.6988 
B(  3-P ,  5-O ) :   1.0740 B(  3-P ,  8-S ) :   1.1254 B(  5-O ,  6-C ) :   0.8012 
B(  6-C ,  7-C ) :   0.9079 B(  6-C , 24-H ) :   0.9483 B(  6-C , 25-H ) :   0.9667 
B(  7-C , 26-H ) :   0.9534 B(  7-C , 27-H ) :   0.9645 B(  7-C , 28-H ) :   0.9652 
B(  8-S ,  9-C ) :   0.9094 B(  9-C , 10-S ) :   0.8984 B(  9-C , 29-H ) :   0.9089 
B(  9-C , 30-H ) :   0.9076 B( 10-S , 11-P ) :   1.0481 B( 11-P , 12-S ) :   1.7559 
B( 11-P , 13-O ) :   1.0547 B( 11-P , 16-O ) :   1.1494 B( 13-O , 14-C ) :   0.7587 
B( 14-C , 15-C ) :   0.9508 B( 14-C , 31-H ) :   0.9415 B( 14-C , 32-H ) :   0.9503 
B( 15-C , 33-H ) :   0.9594 B( 15-C , 34-H ) :   0.9682 B( 15-C , 35-H ) :   0.9695 
B( 16-O , 17-C ) :   0.7656 B( 17-C , 18-C ) :   0.9194 B( 17-C , 36-H ) :   0.9499 
B( 17-C , 37-H ) :   0.9609 B( 18-C , 38-H ) :   0.9576 B( 18-C , 39-H ) :   0.9573 
B( 18-C , 40-H ) :   0.9697 

-------
TIMINGS
-------

Total SCF time: 0 days 0 hours 1 min 52 sec 

Total time                  ....     112.198 sec
Sum of individual times     ....     111.696 sec  ( 99.6%)

SCF preparation             ....       0.882 sec  (  0.8%)
Fock matrix formation       ....     107.524 sec  ( 95.8%)
  Startup                   ....       0.147 sec  (  0.1% of F)
  Split-RI-J                ....      25.203 sec  ( 23.4% of F)
  XC integration            ....      48.154 sec  ( 44.8% of F)
    XC Preparation          ....       0.000 sec  (  0.0% of XC)
    Basis function eval.    ....       7.577 sec  ( 15.7% of XC)
    Density eval.           ....      17.916 sec  ( 37.2% of XC)
    XC-Functional eval.     ....       3.410 sec  (  7.1% of XC)
    XC-Potential eval.      ....      17.974 sec  ( 37.3% of XC)
  CPCM terms                ....      32.603 sec  ( 30.3% of F)
Diagonalization             ....       0.000 sec  (  0.0%)
Density matrix formation    ....       0.806 sec  (  0.7%)
Total Energy calculation    ....       0.069 sec  (  0.1%)
Population analysis         ....       0.456 sec  (  0.4%)
Orbital Transformation      ....       0.244 sec  (  0.2%)
Orbital Orthonormalization  ....       0.000 sec  (  0.0%)
DIIS solution               ....       1.494 sec  (  1.3%)
  MO trafo                  ....       0.000 sec  (  0.0 % of DIIS)
  Orb grad                  ....       0.000 sec  (  0.0 % of DIIS)
  Energy W gradient         ....       0.000 sec  (  0.0 % of DIIS)
  DIIS error                ....       0.112 sec  (  7.5 % of DIIS)
  DIIS work                 ....       1.234 sec  ( 82.6 % of DIIS)
  Form Q                    ....       0.000 sec  (  0.0 % of DIIS)
  Form QpQm                 ....       0.000 sec  (  0.0 % of DIIS)
  Exp/Cayley                ....       0.000 sec  (  0.0 % of DIIS)
  Orb update                ....       0.000 sec  (  0.0 % of DIIS)
  Wake-sleep                ....       0.026 sec  (  1.7 % of DIIS)
SOSCF solution              ....       0.222 sec  (  0.2%)
  MO trafo                  ....       0.172 sec  ( 77.7 % of SOSCF)
  Orb grad                  ....       0.001 sec  (  0.4 % of SOSCF)
  Rot update                ....       0.000 sec  (  0.1 % of SOSCF)
  Step                      ....       0.048 sec  ( 21.8 % of SOSCF)
Finished LeanSCF after 112.4 sec

Maximum memory used throughout the entire LEANSCF-calculation: 134.5 MB


-------------------------------------------------------------------------------
                          DFT DISPERSION CORRECTION                            
                                                                               
                                DFTD4 V3.4.0                                   
-------------------------------------------------------------------------------
The R2SCAN3C composite method is recognized
Using three-body term ABC
Active option DFTDOPT                   ...         5   

-------------------------   ----------------
Dispersion correction           -0.021704984
-------------------------   ----------------

------------------   -----------------
gCP correction             0.046355389
------------------   -----------------

-------------------------   --------------------
FINAL SINGLE POINT ENERGY     -2932.468582143159
-------------------------   --------------------


------------------------------------------------------------------------------
                              ORCA PROPERTY CALCULATIONS
------------------------------------------------------------------------------

GBWName                                 ... sp_solv.gbw
Number of atoms                         ...     41
Number of basis functions               ...    539
Max core memory                         ...   1024 MB

Electric properties:
Dipole moment                           ... YES
Quadrupole moment                       ...  NO
Static polarizability (Dipole/Dipole)   ...  NO
Static polarizability (Dipole/Quad.)    ...  NO
Static polarizability (Quad./Quad.)     ...  NO
Static polarizability (Velocity)        ...  NO

Atomic electric properties:
Dipole moment                           ...  NO
Quadrupole moment                       ...  NO
Static polarizability                   ...  NO

Choice of electric origin               ... Center of mass
Position of electric origin             ...    -0.000003    -0.000001     0.000002

General magnetic properties:
Magnetizability                         ...  NO

EPR properties:
g-Tensor (aka g-matrix)                 ...  NO
Zero-Field splitting spin-orbit         ...  NO
Zero-field splitting spin-spin          ...  NO
Hyperfine couplings                     ...  NO (   0 nuclei)
Quadrupole couplings                    ...  NO (   0 nuclei)
Contact density                         ...  NO (   0 nuclei)

NMR properties:
Chemical shifts                         ...  NO (   0 nuclei)
Spin-rotation constants                 ...  NO (   0 nuclei)
Spin-spin couplings                     ...  NO (   0 nuclei,    0 pairs)

Choice of magnetic origin               ... GIAO
Position of magnetic origin             ...     0.000000     0.000000     0.000000

Properties with geometric perturbations:
SCF Hessian                             ...  NO
IR spectrum                             ...  NO
VCD spectrum                            ...  NO
X-ray spectroscopy properties:
SCF XES/XAS/RIXS spectra                ...  NO


-------------
DIPOLE MOMENT
-------------

Method             : SCF
Type of density    : Electron Density
Multiplicity       :   1
Irrep              :   0
Energy             : -2932.4932325477284394 Eh
Relativity type    : 
Basis              : AO
                                X                 Y                 Z
Electronic contribution:      6.645811309      10.485952035      -2.028474671
Nuclear contribution   :     -7.712263657     -11.836648381       4.025161157
                        -----------------------------------------
Total Dipole Moment    :     -1.066452348      -1.350696346       1.996686486
                        -----------------------------------------
Magnitude (a.u.)       :      2.635992821
Magnitude (Debye)      :      6.700161280



--------------------
Rotational spectrum 
--------------------
 
Rotational constants in cm-1:             0.013314             0.004874             0.004632 
Rotational constants in MHz :           399.133201           146.120042           138.861404 

Dipole components along the rotational axes: 
x,y,z [a.u.] :     0.277125     2.156284     1.490671 
x,y,z [Debye]:     0.704395     5.480838     3.788984 

 

Dipole moment calculation done in   0.1 sec 

Maximum memory used throughout the entire PROP-calculation: 51.7 MB

--------------------------------
SUGGESTED CITATIONS FOR THIS RUN
--------------------------------

Below you find a list of papers that are relevant to this ORCA run
We neither can nor want to force you to cite these papers, but we appreciate if you do
You receive ORCA, which is the product of decades of hard work by many enthusiastic individuals, for free
The only thing we kindly ask in return is that you cite our papers,
We deeply appreciate it, if you show your appreciation for ORCA by not just citing the generic ORCA reference.

Please note that relegating all ORCA citations to the supporting information does *not* help us.
SI sections are not indexed - citations you put there will not count into any citation statistics
But we need these citations in order to attract the funding resources that allow us to do what we are doing

Therefore, if you are a happy ORCA user, please consider citing a few of the papers listed below in the main body of your paper

In addition to the list printed below, the program has created the file sp_solv.bibtex that contains the list in bibtex format
You can import this file easily into all common literature databanks and citation aid programs


List of essential papers. We consider these as the minimum necessary citations

  1. Neese,F.
     Software update: the ORCA program system, version 5.0
     WIRES Comput. Molec. Sci., 2022 12(1)e1606
     doi.org/10.1002/wcms.1606
  2. Grimme,S.; Hansen,A.; Ehlert,S.; Mewes,J.
     r2SCAN-3c: A 'Swiss army knife' composite electronic-structure method
     J. Chem. Phys., 2021 154 064103
     doi.org/10.1063/5.0040021

List of papers to cite with high priority. The work reported in these papers was absolutely
necessary for this run to complete.
Our perspective: the developers of density functionals and basis sets usually get cited in chemistry papers
Good! But without the algorithms to do something with them, the functionals or basis sets would not do anything.
Hence, in our opinion, the algorithm design and method developments papers are equally worthy of getting cited

  1. Neese,F.
     An improvement of the resolution of the identity approximation for the formation of the Coulomb matrix
     J. Comp. Chem., 2003 24(14)1740-1747
     doi.org/10.1002/jcc.10318
  2. Garcia-Rates,M.; Neese,F.
     Effect of the Solute Cavity on the Solvation Energy and its Derivatives within the Framework of the Gaussian Charge Scheme
     J. Comput. Chem., 2020 41 922-939
     doi.org/10.1002/jcc.26139
  3. Neese,F.
     The SHARK Integral Generation and Digestion System
     J. Comp. Chem., 2022  1-16
     doi.org/10.1002/jcc.26942
  4. Lehtola,S.; Steigemann,C.; Oliveira,M.; Marques,M.
     Recent developments in Libxc - A comprehensive library of functionals for density functional theory
     Software X, 2018 7 
     doi.org/10.1016/j.softx.2017.11.002
  5. Caldeweyher,E.; Bannwarth,C.; Grimme,S.
     Extension of the D3 dispersion coefficient model
     J. Chem. Phys., 2017 147 034112-XXXX
     doi.org/10.1063/1.4993215
  6. Caldeweyher,E.; Ehlert,S.; Hansen,A.; Neugebauer,H.; Spicher,S.; Bannwarth,C.; Grimme,S.
     A generally applicable atomic-charge dependent London dispersion correction
     J. Chem. Phys., 2019 150 154122-XXXX
     doi.org/10.1063/1.5090222
  7. Caldeweyher,E.; Mewes,J.; Ehlert,S.; Grimme,S.
     Extension and evaluation of the D4 London-dispersion model for periodic systems
     Phys. Chem. Chem. Phys., 2020 22(16)8499-8512
     doi.org/10.1039/D0CP00502A

List of suggested additional citations. These are papers that are important in the 'surrounding' of 
of this run, or papers that preceded the highly important papers. If you like your results we are grateful for a citation.

  1. Neese,F.
     The ORCA program system
     WIRES Comput. Molec. Sci., 2012 2(1)73-78
     doi.org/10.1002/wcms.81
  2. Neese,F.
     Software update: the ORCA program system, version 4.0
     WIRES Comput. Molec. Sci., 2018 8(1)1-6
     doi.org/10.1002/wcms.1327
  3. Neese,F.; Wennmohs,F.; Becker,U.; Riplinger,C.
     The ORCA quantum chemistry program package
     J. Chem. Phys., 2020 152 Art. No. L224108
     doi.org/10.1063/5.0004608

List of optional additional citations

  1. Neese,F.
     Approximate second-order SCF convergence for spin unrestricted wavefunctions
     Chem. Phys. Lett., 2000 325(1-3)93-98
     doi.org/10.1016/s0009-2614(00)00662-x

Timings for individual modules:

Sum of individual times          ...      116.250 sec (=   1.937 min)
Startup calculation              ...        2.974 sec (=   0.050 min)   2.6 %
SCF iterations                   ...      113.057 sec (=   1.884 min)  97.3 %
Property calculations            ...        0.218 sec (=   0.004 min)   0.2 %
                             ****ORCA TERMINATED NORMALLY****
TOTAL RUN TIME: 0 days 0 hours 1 minutes 56 seconds 984 msec
