
                                 *****************
                                 * O   R   C   A *
                                 *****************

                                            #,                                       
                                            ###                                      
                                            ####                                     
                                            #####                                    
                                            ######                                   
                                           ########,                                 
                                     ,,################,,,,,                         
                               ,,#################################,,                 
                          ,,##########################################,,             
                       ,#########################################, ''#####,          
                    ,#############################################,,   '####,        
                  ,##################################################,,,,####,       
                ,###########''''           ''''###############################       
              ,#####''   ,,,,##########,,,,          '''####'''          '####       
            ,##' ,,,,###########################,,,                        '##       
           ' ,,###''''                  '''############,,,                           
         ,,##''                                '''############,,,,        ,,,,,,###''
      ,#''                                            '''#######################'''  
     '                                                          ''''####''''         
             ,#######,   #######,   ,#######,      ##                                
            ,#'     '#,  ##    ##  ,#'     '#,    #''#        ,####,   ,####,        
            ##       ##  ##   ,#'  ##            #'  '#       #'       #'  '#        
            ##       ##  #######   ##           ,######,      #####,   #    #        
            '#,     ,#'  ##    ##  '#,     ,#' ,#      #,     #,   #   #,  ,#        
             '#######'   ##     ##  '#######'  #'      '#     '####' # '####'        



                #########################################################
                #                        -***-                          #
                #          Department of theory and spectroscopy        #
                #                                                       #
                #                      Frank Neese                      #
                #                                                       #
                #     Directorship, Architecture, Infrastructure        #
                #                    SHARK, DRIVERS                     #
                #        Core code/Algorithms in most modules           #
                #                                                       #
                #        Max Planck Institute fuer Kohlenforschung      #
                #                Kaiser Wilhelm Platz 1                 #
                #                 D-45470 Muelheim/Ruhr                 #
                #                      Germany                          #
                #                                                       #
                #                  All rights reserved                  #
                #                        -***-                          #
                #########################################################


                         Program Version 6.0.1  -  RELEASE   -


 With contributions from (in alphabetic order):
[Max-Planck-Institut fuer Kohlenforschung]                               
  Daniel Aravena         : Magnetic Suceptibility                        
  Michael Atanasov       : Ab Initio Ligand Field Theory (pilot matlab implementation)
  Alexander A. Auer      : GIAO ZORA, VPT2 properties, NMR spectrum      
  Ute Becker             : All parallelization in ORCA, NUMFREQ, NUMCALC 
  Giovanni Bistoni       : ED, misc. LED, open-shell LED, HFLD           
  Martin Brehm           : Molecular dynamics                            
  Dmytro Bykov           : pre 5.0 version of the SCF Hessian            
  Marcos Casanova-Páez   : Triplet and SCS-CIS(D). UHF-(DLPNO)-IP/EA/STEOM-CCSD. UHF-CVS-IP/STEOM-CCSD   
  Vijay G. Chilkuri      : MRCI spin determinant printing, contributions to CSF-ICE 
  Pauline Colinet        : FMM embedding                                 
  Dipayan Datta          : RHF DLPNO-CCSD density                        
  Achintya Kumar Dutta   : EOM-CC, STEOM-CC                              
  Nicolas Foglia         : Exact transition moments, OPA infrastructure, MCD improvements    
  Dmitry Ganyushin       : Spin-Orbit,Spin-Spin,Magnetic field MRCI      
  Miquel Garcia-Rates    : C-PCM and meta-GGA Hessian, CCSD/C-PCM, Gaussian charge scheme 
  Tiago L. C. Gouveia    : GS-ROHF, GS-ROCIS                             
  Yang Guo               : DLPNO-NEVPT2, F12-NEVPT2, CIM, IAO-localization        
  Andreas Hansen         : Spin unrestricted coupled pair/coupled cluster methods 
  Ingolf Harden          : AUTO-CI MPn and infrastructure                
  Benjamin Helmich-Paris : MC-RPA, TRAH-(SCF,CASSCF), AVAS, COSX integrals, SCF dyn. polar. 
  Lee Huntington         : MR-EOM, pCC                                   
  Robert Izsak           : Overlap fitted RIJCOSX, COSX-SCS-MP3, EOM     
  Riya Kayal             : Wick's Theorem for AUTO-CI, AUTO-CI UHF-CCSDT 
  Emily Kempfer          : AUTO-CI, RHF CISDT and CCSDT                  
  Christian Kollmar      : KDIIS, OOCD, Brueckner-CCSD(T), CCSD density, CASPT2, CASPT2-K, improved NEVPT2 
  Axel Koslowski         : Symmetry handling                             
  Simone Kossmann        : meta-GGA functionals, TD-DFT gradient, OOMP2, (MP2 Hessian; deprecated post 5.0) 
  Lucas Lang             : DCDCAS                                        
  Marvin Lechner         : AUTO-CI (C++ implementation), FIC-MRCC        
  Spencer Leger          : CASSCF response                               
  Dagmar Lenk            : GEPOL surface, SMD, ORCA-2-JSON               
  Dimitrios Liakos       : Extrapolation schemes; Compound Job, initial MDCI parallelization 
  Dimitrios Manganas     : Further ROCIS development; embedding schemes. LFT, Crystal Embedding 
  Dimitrios Pantazis     : SARC Basis sets                               
  Anastasios Papadopoulos: AUTO-CI, single reference methods and gradients 
  Taras Petrenko         : pre 6.0 DFT Hessian and TD-DFT gradient, (ASA, deprecated), ECA, 1-Electron XAS/XES, NRVS 
  Peter Pinski           : DLPNO-MP2, DLPNO-MP2 Gradient                 
  Christoph Reimann      : Effective Core Potentials                     
  Marius Retegan         : Local ZFS, SOC                                
  Christoph Riplinger    : Optimizer, TS searches, QM/MM, DLPNO-CCSD(T), (RO)-DLPNO pert. Triples 
  Michael Roemelt        : Original ROCIS implementation                 
  Masaaki Saitow         : Open-shell DLPNO-CCSD energy and density      
  Barbara Sandhoefer     : DKH picture change effects                    
  Kantharuban Sivalingam : CASSCF convergence/infrastructure, NEVPT2 and variants, FIC-MRCI 
  Bernardo de Souza      : ESD, SOC TD-DFT                               
  Georgi L. Stoychev     : AutoAux, RI-MP2 NMR, DLPNO-MP2 response, X2C  
  Van Anh Tran           : RI-MP2 g-tensors                              
  Willem Van den Heuvel  : Paramagnetic NMR                              
  Zikuan Wang            : NOTCH, Electric field optimization            
  Frank Wennmohs         : Technical directorship and infrastructure     
  Hang Xu                : AUTO-CI-Response properties                   
                                                                         
[FACCTs GmbH]                                                            
  Markus Bursch, Miquel Garcia-Rates, Christoph Riplinger, Bernardo de Souza, Georgi L. Stoychev 
                                                                 
  APM, Basis sets (HGBS, AHGBS, def-TZVP (Ac-Lr), def2-XVPD (La-Lu)), CI-OPT, improved COSX, DLPNO-Multilevel,           
  DOCKER, DRACO, updates on ESD, GOAT, IRC, LR-CPCM, MBIS, meta-GGA TD-DFT gradient, ML-optimized integration grids, 
  MM, NACMEs, nearIR, NEB, NEB-TS, NL-DFT gradient (VV10), 2- and 3-layer-ONIOM, interface openCOSMO-RS, QMMM,   
  Crystal-QMMM, SF, symmetry and pop. for TD-DFT, r2SCAN hybrids, SOLVATOR                                   
                                                                         
[Other institutions]                                                     
  V. Asgeirsson          : NEB                                           
  Christoph Bannwarth    : sTDA-DFT, sTD-DFT, PBEh-3c, B97-3c, D3        
  Sebastian Ehlert       : rSCAN, r2SCAN, r2SCAN-3c, D4, dhf basis sets  
  Marvin Friede          : D4 for Fr, Ra, Ac-Lr                          
  Lars Goerigk           : TD-DFT with DH, B97 family of functionals     
  Stefan Grimme          : VdW corrections, initial TS optimization, DFT functionals, gCP, sTDA/sTD-DF 
  Waldemar Hujo          : DFT-NL                                        
  H. Jonsson             : NEB                                           
  Holger Kruse           : gCP                                           
  Marcel Mueller         : wB97X-3c, vDZP basis set                      
  Hagen Neugebauer       : wr2SCAN                                       
  Tobias Risthaus        : range-separated hybrid DFT                    
  Lukas Wittmann         : regularized MP2, r2SCAN double-hybrids, wr2SCAN        
                                                                         
We gratefully acknowledge several colleagues who have allowed us to      
interface, adapt or use parts of their codes:                            
  Ed Valeev, F. Pavosevic, A. Kumar             : LibInt (2-el integral package), F12 methods 
  Garnet Chan, S. Sharma, J. Yang, R. Olivares  : DMRG                   
  Ulf Ekstrom                                   : XCFun DFT Library      
  Mihaly Kallay                                 : mrcc  (arbitrary order and MRCC methods)
  Frank Weinhold                                : gennbo (NPA and NBO analysis)           
  Simon Mueller                                 : openCOSMO-RS                            
  Christopher J. Cramer and Donald G. Truhlar   : smd solvation model                     
  S Lehtola, MJT Oliveira, MAL Marques          : LibXC Library                           
  Liviu Ungur et al                             : ANISO software                          


 Your calculation uses the libint2 library for the computation of 2-el integrals
 For citations please refer to: http://libint.valeyev.net

 Your ORCA version has been built with support for libXC version: 6.2.2
 For citations please refer to: https://libxc.gitlab.io

 This ORCA versions uses:
   CBLAS   interface :  Fast vector & matrix operations
   LAPACKE interface :  Fast linear algebra routines
   SCALAPACK package :  Parallel linear algebra routines
   Shared memory     :  Shared parallel matrices
   BLAS/LAPACK       :  OpenBLAS 0.3.27  USE64BITINT DYNAMIC_ARCH NO_AFFINITY Zen SINGLE_THREADED
        Core in use  :  Zen
   Copyright (c) 2011-2014, The OpenBLAS Project


Your calculation utilizes the geometrical counterpoise correction gCP
Please cite in your paper:
H.Kruse, S. Grimme J.Chem.Phys., 136, (2012), 154101 
   

Your calculation utilizes the atom-pairwise dispersion correction
based on EEQ partial charges (D4)


================================================================================

----- Orbital basis set information -----
Your calculation utilizes the basis: def2-SV(P)
   F. Weigend and R. Ahlrichs, Phys. Chem. Chem. Phys. 7, 3297 (2005).

----- AuxJ basis set information -----
Your calculation utilizes the auxiliary basis: def2/J
   F. Weigend, Phys. Chem. Chem. Phys. 8, 1057 (2006).

================================================================================
                                        WARNINGS
                       Please study these warnings very carefully!
================================================================================

WARNING: Old DensityContainer found on disk!
         Will remove this file - 
         If you want to keep old densities, please start your calculation with a different basename. 


================================================================================
                                       INPUT FILE
================================================================================
NAME = sp.inp
|  1> ! pbe def2-sv(p) def2/J RI DEFGRID1 loosescf d4 GCP(DFT/SV(P)) printgap
|  2> %output
|  3>     printlevel normal
|  4> end
|  5> * xyz 0 1
|  6> C 2.1375125197 -3.8704524027 0.4598189511
|  7> C 2.8075399736 -2.5103886452 0.423751858
|  8> O 2.2952034751 -1.7779462807 -0.7060163565
|  9> C 2.094344158 -0.4870424745 -0.6067492854
| 10> O 2.3084023122 0.1862470755 0.3832988724
| 11> C 1.5813682849 0.1104012134 -1.9042823326
| 12> C 0.3398426068 0.9728108256 -1.6554676783
| 13> H 0.2030784446 1.6731226149 -2.4825738498
| 14> C 0.4609881039 1.7509256915 -0.3592080758
| 15> O -0.255617783 1.5305633209 0.6031599065
| 16> O 1.3473724884 2.6971318498 -0.4324807499
| 17> C 1.6285535314 3.4588527477 0.7616630067
| 18> C 2.5027297416 4.6323761279 0.3692965419
| 19> S -1.1932070533 -0.0093070824 -1.607704106
| 20> P -1.639328577 -0.4489690985 0.4327695946
| 21> S -0.3495123529 -1.2247985821 1.6882578012
| 22> O -2.6183383464 0.6484858557 1.0278749147
| 23> C -3.8574265442 1.0055044533 0.3876408245
| 24> O -2.7636986421 -1.5594314708 0.0755007233
| 25> C -2.4210292834 -2.8772066406 -0.3507825308
| 26> H 1.0800243901 -3.7515104595 0.6805845978
| 27> H 2.2525493704 -4.3671371904 -0.4985564121
| 28> H 2.5928672771 -4.4717609208 1.2390731429
| 29> H 3.8880490699 -2.5993596343 0.2821204697
| 30> H 2.6009402274 -1.9386325196 1.3333788747
| 31> H 1.3563176404 -0.683032741 -2.6153641758
| 32> H 2.374878778 0.7482698557 -2.2994788733
| 33> H 0.6781378097 3.7766409275 1.2013868347
| 34> H 2.129455654 2.7854492776 1.4642784826
| 35> H 2.7356751059 5.2129310953 1.2554903479
| 36> H 3.4252557243 4.273819258 -0.076286442
| 37> H 1.9844010173 5.2627452071 -0.3468735506
| 38> H -3.6947006309 1.198057061 -0.6731716575
| 39> H -4.1876641686 1.9071460274 0.8974630818
| 40> H -4.5798832932 0.2007475492 0.5114156102
| 41> H -1.6428796671 -3.2864921183 0.2965170466
| 42> H -2.0752154313 -2.8575934307 -1.384200129
| 43> H -3.3331434198 -3.461915875 -0.26237082
| 44> *
| 45> 
| 46>                          ****END OF INPUT****
================================================================================

                       ****************************
                       * Single Point Calculation *
                       ****************************

---------------------------------
CARTESIAN COORDINATES (ANGSTROEM)
---------------------------------
  C      2.137513   -3.870452    0.459819
  C      2.807540   -2.510389    0.423752
  O      2.295203   -1.777946   -0.706016
  C      2.094344   -0.487042   -0.606749
  O      2.308402    0.186247    0.383299
  C      1.581368    0.110401   -1.904282
  C      0.339843    0.972811   -1.655468
  H      0.203078    1.673123   -2.482574
  C      0.460988    1.750926   -0.359208
  O     -0.255618    1.530563    0.603160
  O      1.347372    2.697132   -0.432481
  C      1.628554    3.458853    0.761663
  C      2.502730    4.632376    0.369297
  S     -1.193207   -0.009307   -1.607704
  P     -1.639329   -0.448969    0.432770
  S     -0.349512   -1.224799    1.688258
  O     -2.618338    0.648486    1.027875
  C     -3.857427    1.005504    0.387641
  O     -2.763699   -1.559431    0.075501
  C     -2.421029   -2.877207   -0.350783
  H      1.080024   -3.751510    0.680585
  H      2.252549   -4.367137   -0.498556
  H      2.592867   -4.471761    1.239073
  H      3.888049   -2.599360    0.282120
  H      2.600940   -1.938633    1.333379
  H      1.356318   -0.683033   -2.615364
  H      2.374879    0.748270   -2.299479
  H      0.678138    3.776641    1.201387
  H      2.129456    2.785449    1.464278
  H      2.735675    5.212931    1.255490
  H      3.425256    4.273819   -0.076286
  H      1.984401    5.262745   -0.346874
  H     -3.694701    1.198057   -0.673172
  H     -4.187664    1.907146    0.897463
  H     -4.579883    0.200748    0.511416
  H     -1.642880   -3.286492    0.296517
  H     -2.075215   -2.857593   -1.384200
  H     -3.333143   -3.461916   -0.262371

----------------------------
CARTESIAN COORDINATES (A.U.)
----------------------------
  NO LB      ZA    FRAG     MASS         X           Y           Z
   0 C     6.0000    0    12.011    4.039313   -7.314095    0.868932
   1 C     6.0000    0    12.011    5.305482   -4.743947    0.800775
   2 O     8.0000    0    15.999    4.337306   -3.359832   -1.334178
   3 C     6.0000    0    12.011    3.957737   -0.920377   -1.146590
   4 O     8.0000    0    15.999    4.362248    0.351956    0.724330
   5 C     6.0000    0    12.011    2.988353    0.208628   -3.598572
   6 C     6.0000    0    12.011    0.642209    1.838346   -3.128381
   7 H     1.0000    0     1.008    0.383763    3.161744   -4.691385
   8 C     6.0000    0    12.011    0.871141    3.308770   -0.678805
   9 O     8.0000    0    15.999   -0.483048    2.892346    1.139807
  10 O     8.0000    0    15.999    2.546165    5.096841   -0.817270
  11 C     6.0000    0    12.011    3.077520    6.536284    1.439334
  12 C     6.0000    0    12.011    4.729474    8.753922    0.697869
  13 S    16.0000    0    32.060   -2.254835   -0.017588   -3.038120
  14 P    15.0000    0    30.974   -3.097882   -0.848429    0.817816
  15 S    16.0000    0    32.060   -0.660483   -2.314534    3.190345
  16 O     8.0000    0    15.999   -4.947942    1.225461    1.942402
  17 C     6.0000    0    12.011   -7.289480    1.900128    0.732535
  18 O     8.0000    0    15.999   -5.222634   -2.946898    0.142676
  19 C     6.0000    0    12.011   -4.575082   -5.437133   -0.662883
  20 H     1.0000    0     1.008    2.040950   -7.089327    1.286119
  21 H     1.0000    0     1.008    4.256701   -8.252693   -0.942135
  22 H     1.0000    0     1.008    4.899809   -8.450403    2.341509
  23 H     1.0000    0     1.008    7.347348   -4.912078    0.533130
  24 H     1.0000    0     1.008    4.915065   -3.663485    2.519721
  25 H     1.0000    0     1.008    2.563069   -1.290745   -4.942322
  26 H     1.0000    0     1.008    4.487870    1.414025   -4.345385
  27 H     1.0000    0     1.008    1.281495    7.136817    2.270292
  28 H     1.0000    0     1.008    4.024088    5.263736    2.767085
  29 H     1.0000    0     1.008    5.169677    9.851012    2.372533
  30 H     1.0000    0     1.008    6.472795    8.076348   -0.144160
  31 H     1.0000    0     1.008    3.749974    9.945147   -0.655496
  32 H     1.0000    0     1.008   -6.981972    2.264000   -1.272110
  33 H     1.0000    0     1.008   -7.913538    3.603984    1.695959
  34 H     1.0000    0     1.008   -8.654725    0.379358    0.966435
  35 H     1.0000    0     1.008   -3.104593   -6.210570    0.560336
  36 H     1.0000    0     1.008   -3.921589   -5.400069   -2.615759
  37 H     1.0000    0     1.008   -6.298728   -6.542073   -0.495809

--------------------------------
INTERNAL COORDINATES (ANGSTROEM)
--------------------------------
 C      0   0   0     0.000000000000     0.00000000     0.00000000
 C      1   0   0     1.516578731438     0.00000000     0.00000000
 O      2   1   0     1.440602902782   108.51086647     0.00000000
 C      3   2   1     1.310202676509   119.73852564   142.88374847
 O      4   3   2     1.216279189283   125.45777007     0.19893314
 C      4   3   2     1.517786287713   112.01648516   178.81242264
 C      6   4   3     1.532006880138   110.89368057   130.06536979
 H      7   6   4     1.092357843030   109.83922723   159.09240232
 C      7   6   4     1.516716167605   111.27669071    38.09835910
 O      9   7   6     1.219932664073   122.31796241   246.93856859
 O      9   7   6     1.298596263609   112.34026849    70.33305640
 C     11   9   7     1.444043218421   118.07320089   184.09281509
 C     12  11   9     1.515022314375   107.86519675   189.41554329
 S      7   6   4     1.821284767516   112.50990444   275.76729769
 P     14   7   6     2.134446069862   108.18456780    95.83377820
 S     15  14   7     1.960047937293   123.80248966   309.04337118
 O     15  14   7     1.586511218709   110.18654615    93.12125489
 C     17  15  14     1.439687997871   122.40037669    52.60914051
 O     15  14   7     1.620177697040    94.32568712   192.63040169
 C     19  15  14     1.426769462898   122.15732746    77.29119052
 H      1   2   3     1.086814519989   109.66773308   293.02360166
 H      1   2   3     1.085547139529   110.02983526    53.43162229
 H      1   2   3     1.084507715263   109.19714492   173.81746391
 H      2   1   3     1.093377882637   111.51273006   242.47742834
 H      2   1   3     1.094079444922   111.43579787   119.54036138
 H      6   4   3     1.088954829326   109.95479695     7.67259018
 H      6   4   3     1.092115201465   107.07898708   248.37677266
 H     12  11   9     1.094365759783   108.44190896   311.32736296
 H     12  11   9     1.094551815558   107.18225317    68.33869555
 H     13  12  11     1.084733642289   109.08040651   180.63483964
 H     13  12  11     1.085431441064   109.92850094   300.39989656
 H     13  12  11     1.085785173889   110.18633111    60.63821840
 H     18  17  15     1.090357442107   110.36503035   311.19604305
 H     18  17  15     1.087167489743   104.98453283   191.75823890
 H     18  17  15     1.088530030108   109.71370607    72.42947707
 H     20  19  15     1.091800426134   109.89358119    46.34650620
 H     20  19  15     1.089919185342   110.05174969   285.00748775
 H     20  19  15     1.087038967664   105.72242956   165.45907682

---------------------------
INTERNAL COORDINATES (A.U.)
---------------------------
 C      0   0   0     0.000000000000     0.00000000     0.00000000
 C      1   0   0     2.865918462947     0.00000000     0.00000000
 O      2   1   0     2.722344953990   108.51086647     0.00000000
 C      3   2   1     2.475924238533   119.73852564   142.88374847
 O      4   3   2     2.298434570132   125.45777007     0.19893314
 C      4   3   2     2.868200413599   112.01648516   178.81242264
 C      6   4   3     2.895073438744   110.89368057   130.06536979
 H      7   6   4     2.064257163567   109.83922723   159.09240232
 C      7   6   4     2.866178179665   111.27669071    38.09835910
 O      9   7   6     2.305338636923   122.31796241   246.93856859
 O      9   7   6     2.453991296755   112.34026849    70.33305640
 C     11   9   7     2.728846208361   118.07320089   184.09281509
 C     12  11   9     2.862977260949   107.86519675   189.41554329
 S      7   6   4     3.441729422488   112.50990444   275.76729769
 P     14   7   6     4.033518519664   108.18456780    95.83377820
 S     15  14   7     3.703953810841   123.80248966   309.04337118
 O     15  14   7     2.998071711754   110.18654615    93.12125489
 C     17  15  14     2.720616034270   122.40037669    52.60914051
 O     15  14   7     3.061692135694    94.32568712   192.63040169
 C     19  15  14     2.696203541120   122.15732746    77.29119052
 H      1   2   3     2.053781801149   109.66773308   293.02360166
 H      1   2   3     2.051386799172   110.02983526    53.43162229
 H      1   2   3     2.049422571971   109.19714492   173.81746391
 H      2   1   3     2.066184759071   111.51273006   242.47742834
 H      2   1   3     2.067510519656   111.43579787   119.54036138
 H      6   4   3     2.057826399638   109.95479695     7.67259018
 H      6   4   3     2.063798637461   107.07898708   248.37677266
 H     12  11   9     2.068051576331   108.44190896   311.32736296
 H     12  11   9     2.068403170792   107.18225317    68.33869555
 H     13  12  11     2.049849512178   109.08040651   180.63483964
 H     13  12  11     2.051168160758   109.92850094   300.39989656
 H     13  12  11     2.051836618922   110.18633111    60.63821840
 H     18  17  15     2.060476953665   110.36503035   311.19604305
 H     18  17  15     2.054448817316   104.98453283   191.75823890
 H     18  17  15     2.057023645454   109.71370607    72.42947707
 H     20  19  15     2.063203798292   109.89358119    46.34650620
 H     20  19  15     2.059648768403   110.05174969   285.00748775
 H     20  19  15     2.054205945785   105.72242956   165.45907682

---------------------
BASIS SET INFORMATION
---------------------
There are 5 groups of distinct atoms

 Group   1 Type C   : 7s4p1d contracted to 3s2p1d pattern {511/31/1}
 Group   2 Type O   : 7s4p1d contracted to 3s2p1d pattern {511/31/1}
 Group   3 Type H   : 4s contracted to 2s pattern {31}
 Group   4 Type S   : 10s7p1d contracted to 4s3p1d pattern {5311/511/1}
 Group   5 Type P   : 10s7p1d contracted to 4s3p1d pattern {5311/511/1}

Atom   0C    basis set group =>   1
Atom   1C    basis set group =>   1
Atom   2O    basis set group =>   2
Atom   3C    basis set group =>   1
Atom   4O    basis set group =>   2
Atom   5C    basis set group =>   1
Atom   6C    basis set group =>   1
Atom   7H    basis set group =>   3
Atom   8C    basis set group =>   1
Atom   9O    basis set group =>   2
Atom  10O    basis set group =>   2
Atom  11C    basis set group =>   1
Atom  12C    basis set group =>   1
Atom  13S    basis set group =>   4
Atom  14P    basis set group =>   5
Atom  15S    basis set group =>   4
Atom  16O    basis set group =>   2
Atom  17C    basis set group =>   1
Atom  18O    basis set group =>   2
Atom  19C    basis set group =>   1
Atom  20H    basis set group =>   3
Atom  21H    basis set group =>   3
Atom  22H    basis set group =>   3
Atom  23H    basis set group =>   3
Atom  24H    basis set group =>   3
Atom  25H    basis set group =>   3
Atom  26H    basis set group =>   3
Atom  27H    basis set group =>   3
Atom  28H    basis set group =>   3
Atom  29H    basis set group =>   3
Atom  30H    basis set group =>   3
Atom  31H    basis set group =>   3
Atom  32H    basis set group =>   3
Atom  33H    basis set group =>   3
Atom  34H    basis set group =>   3
Atom  35H    basis set group =>   3
Atom  36H    basis set group =>   3
Atom  37H    basis set group =>   3
---------------------------------
AUXILIARY/J BASIS SET INFORMATION
---------------------------------
There are 5 groups of distinct atoms

 Group   1 Type C   : 12s5p4d2f1g contracted to 6s4p3d1f1g pattern {711111/2111/211/2/1}
 Group   2 Type O   : 12s5p4d2f1g contracted to 6s4p3d1f1g pattern {711111/2111/211/2/1}
 Group   3 Type H   : 5s2p1d contracted to 3s1p1d pattern {311/2/1}
 Group   4 Type S   : 14s5p5d2f1g contracted to 8s4p3d1f1g pattern {71111111/2111/311/2/1}
 Group   5 Type P   : 14s5p5d2f1g contracted to 8s4p3d1f1g pattern {71111111/2111/311/2/1}

Atom   0C    basis set group =>   1
Atom   1C    basis set group =>   1
Atom   2O    basis set group =>   2
Atom   3C    basis set group =>   1
Atom   4O    basis set group =>   2
Atom   5C    basis set group =>   1
Atom   6C    basis set group =>   1
Atom   7H    basis set group =>   3
Atom   8C    basis set group =>   1
Atom   9O    basis set group =>   2
Atom  10O    basis set group =>   2
Atom  11C    basis set group =>   1
Atom  12C    basis set group =>   1
Atom  13S    basis set group =>   4
Atom  14P    basis set group =>   5
Atom  15S    basis set group =>   4
Atom  16O    basis set group =>   2
Atom  17C    basis set group =>   1
Atom  18O    basis set group =>   2
Atom  19C    basis set group =>   1
Atom  20H    basis set group =>   3
Atom  21H    basis set group =>   3
Atom  22H    basis set group =>   3
Atom  23H    basis set group =>   3
Atom  24H    basis set group =>   3
Atom  25H    basis set group =>   3
Atom  26H    basis set group =>   3
Atom  27H    basis set group =>   3
Atom  28H    basis set group =>   3
Atom  29H    basis set group =>   3
Atom  30H    basis set group =>   3
Atom  31H    basis set group =>   3
Atom  32H    basis set group =>   3
Atom  33H    basis set group =>   3
Atom  34H    basis set group =>   3
Atom  35H    basis set group =>   3
Atom  36H    basis set group =>   3
Atom  37H    basis set group =>   3

Checking for AutoStart:
The File: sp.gbw exists
Trying to determine its content:
     ... Fine, the file contains calculation information
     ... Fine, the calculation information was read
     ... Fine, the file contains a basis set
     ... Fine, the basis set was read
     ... Fine, the file contains a geometry
     ... Fine, the geometry was read
     ... Fine, the file contains a set of orbitals
     ... Fine, the orbitals can be read
     => possible old guess file was deleted
     => GBW file was renamed to GES file
     => GES file is set as startup file
     => Guess is set to MORead
     ... now leaving AutoStart

------------------------------------------------------------------------------
                             ORCA STARTUP CALCULATIONS
                           -- RI-GTO INTEGRALS CHOSEN --
------------------------------------------------------------------------------
------------------------------------------------------------------------------
                   ___                                                        
                  /   \      - P O W E R E D   B Y -                         
                 /     \                                                     
                 |  |  |   _    _      __       _____    __    __             
                 |  |  |  | |  | |    /  \     |  _  \  |  |  /  |          
                  \  \/   | |  | |   /    \    | | | |  |  | /  /          
                 / \  \   | |__| |  /  /\  \   | |_| |  |  |/  /          
                |  |  |   |  __  | /  /__\  \  |    /   |      \           
                |  |  |   | |  | | |   __   |  |    \   |  |\   \          
                \     /   | |  | | |  |  |  |  | |\  \  |  | \   \       
                 \___/    |_|  |_| |__|  |__|  |_| \__\ |__|  \__/        
                                                                              
                      - O R C A' S   B I G   F R I E N D -                    
                                      &                                       
                       - I N T E G R A L  F E E D E R -                       
                                                                              
 v1 FN, 2020, v2 2021, v3 2022-2024                                           
------------------------------------------------------------------------------


----------------------
SHARK INTEGRAL PACKAGE
----------------------

Number of atoms                             ...     38
Number of basis functions                   ...    316
Number of shells                            ...    158
Maximum angular momentum                    ...      2
Integral batch strategy                     ... SHARK/LIBINT Hybrid
RI-J (if used) integral strategy            ... SPLIT-RIJ (Revised 2003 algorithm where possible)
Printlevel                                  ...      1
Contraction scheme used                     ... SEGMENTED contraction
Prescreening option                         ... SCHWARTZ
   Thresh                                   ... 1.000e-09
   Tcut                                     ... 1.000e-10
   Tpresel                                  ... 1.000e-10 
Coulomb Range Separation                    ... NOT USED
Exchange Range Separation                   ... NOT USED
Multipole approximations                    ... NOT USED
Finite Nucleus Model                        ... NOT USED
CABS basis                                  ... NOT available
Auxiliary Coulomb fitting basis             ... AVAILABLE
   # of basis functions in Aux-J            ...   1146
   # of shells in Aux-J                     ...    386
   Maximum angular momentum in Aux-J        ...      4
Auxiliary J/K fitting basis                 ... NOT available
Auxiliary Correlation fitting basis         ... NOT available
Auxiliary 'external' fitting basis          ... NOT available

Checking pre-screening integrals            ... done (  0.0 sec) Dimension = 158
Check shell pair data                       ... done (  0.0 sec)
Shell pair information
Shell pair cut-off parameter TPreSel        ...   1.0e-10
Total number of shell pairs                 ...     12561
Shell pairs after pre-screening             ...      9497
Total number of primitive shell pairs       ...     52337
Primitive shell pairs kept                  ...     23219
          la=0 lb=0:   3533 shell pairs
          la=1 lb=0:   3216 shell pairs
          la=1 lb=1:    759 shell pairs
          la=2 lb=0:   1269 shell pairs
          la=2 lb=1:    602 shell pairs
          la=2 lb=2:    118 shell pairs

Calculating one electron integrals          ... done (  0.1 sec)
Calculating RI/J V-Matrix + Cholesky decomp.... done (  0.1 sec)
Calculating Nuclear repulsion               ... done (  0.0 sec) ENN=   2217.118157316144 Eh

Diagonalization of the overlap matrix:
Smallest eigenvalue                        ... 1.310e-03
Time for diagonalization                   ...    0.009 sec
Threshold for overlap eigenvalues          ... 1.000e-07
Number of eigenvalues below threshold      ... 0
Time for construction of square roots      ...    0.007 sec
Total time needed                          ...    0.017 sec

-------------------
DFT GRID GENERATION
-------------------

General Integration Accuracy     IntAcc      ... 4.159
Radial Grid Type                 RadialGrid  ... OptM3 with GC (2021)
Angular Grid (max. ang.)         AngularGrid ... 3 (Lebedev-194)
Angular grid pruning method      GridPruning ... 4 (adaptive)
Weight generation scheme         WeightScheme... mBecke (2022)
Basis function cutoff            BFCut       ... 1.0000e-10
Integration weight cutoff        WCut        ... 1.0000e-14
Partially contracted basis set               ... off
Rotationally invariant grid construction     ... off
Angular grids for H and He will be reduced by one unit

Total number of grid points                  ...    90870
Total number of batches                      ...     1439
Average number of points per batch           ...       63
Average number of grid points per atom       ...     2391
Initializing property integral containers    ... done (  0.0 sec)

SHARK setup successfully completed in   1.2 seconds

Maximum memory used throughout the entire STARTUP-calculation: 49.7 MB
-------------------------------------------------------------------------------
                                 ORCA GUESS
                   Start orbitals & Density for SCF / CASSCF
-------------------------------------------------------------------------------

------------
SCF SETTINGS
------------
Hamiltonian:
 Density Functional     Method          .... DFT(GTOs)
 Exchange Functional    Exchange        .... PBE
   PBE kappa parameter   XKappa         ....  0.804000
   PBE mue parameter    XMuePBE         ....  0.219520
 Correlation Functional Correlation     .... PBE
   PBE beta parameter  CBetaPBE         ....  0.066725
 LDA part of GGA corr.  LDAOpt          .... PW91-LDA
 Gradients option       PostSCFGGA      .... off
   NL short-range parameter             ....  6.400000
 RI-approximation to the Coulomb term is turned on
   Number of AuxJ basis functions       .... 1146


General Settings:
 Integral files         IntName         .... sp
 Hartree-Fock type      HFTyp           .... RHF
 Total Charge           Charge          ....    0
 Multiplicity           Mult            ....    1
 Number of Electrons    NEL             ....  174
 Basis Dimension        Dim             ....  316
 Nuclear Repulsion      ENuc            ....   2217.1181573161 Eh

Convergence Acceleration:
 AO-DIIS                CNVDIIS         .... on
   Start iteration      DIISMaxIt       ....    12
   Startup error        DIISStart       ....  0.200000
   # of expansion vecs  DIISMaxEq       ....     5
   Bias factor          DIISBfac        ....   1.050
   Max. coefficient     DIISMaxC        ....  10.000
 MO-DIIS                CNVKDIIS        .... off
 Trust-Rad. Augm. Hess. CNVTRAH         .... auto
   Auto Start mean grad. ratio tolernc. ....  1.125000
   Auto Start start iteration           ....     1
   Auto Start num. interpolation iter.  ....    10
   Max. Number of Micro iterations      ....    24
   Max. Number of Macro iterations      .... Maxiter - #DIIS iter
   Number of Davidson start vectors     ....     2
   Converg. threshold    (grad. norm)   ....   1.000e-04
   Grad. Scal. Fac. for Micro threshold ....   0.100
   Minimum threshold for Micro iter.    ....   1.000e-02
   NR start threshold (gradient norm)   ....   1.000e-04
   Initial trust radius                 ....   0.400
   Minimum AH scaling param. (alpha)    ....   1.000
   Maximum AH scaling param. (alpha)    .... 1000.000
   Quad. conv. algorithm                .... NR
   White noise on init. David. guess    .... on
   Maximum white noise                  ....   0.010
   Pseudo random numbers                .... off
   Inactive MOs                         .... canonical
   Orbital update algorithm             .... Taylor
   Preconditioner                       .... Diag
   Full preconditioner red. dimension   ....   250
 SOSCF                  CNVSOSCF        .... on
   Start iteration      SOSCFMaxIt      ....   150
   Startup grad/error   SOSCFStart      ....  0.003300
   Hessian update       SOSCFHessUp     .... L-BFGS
 Level Shifting         CNVShift        .... on
   Level shift para.    LevelShift      ....    0.2500
   Turn off err/grad.   ShiftErr        ....    0.0010
 Zerner damping         CNVZerner       .... off
 Static damping         CNVDamp         .... on
   Fraction old density DampFac         ....    0.7000
   Max. Damping (<1)    DampMax         ....    0.9800
   Min. Damping (>=0)   DampMin         ....    0.0000
   Turn off err/grad.   DampErr         ....    0.1000

SCF Procedure:
 Maximum # iterations   MaxIter         ....   125
 SCF integral mode      SCFMode         .... Direct
   Integral package                     .... SHARK and LIBINT hybrid scheme
 Reset frequency        DirectResetFreq ....    20
 Integral Threshold     Thresh          ....  1.000e-09 Eh
 Primitive CutOff       TCut            ....  1.000e-10 Eh

Convergence Tolerance:
 Convergence Check Mode ConvCheckMode   .... Total+1el-Energy
 Convergence forced     ConvForced      .... 0
 Energy Change          TolE            ....  1.000e-05 Eh
 1-El. energy change                    ....  1.000e-02 Eh
 Orbital Gradient       TolG            ....  1.000e-04
 Orbital Rotation angle TolX            ....  1.000e-04
 DIIS Error             TolErr          ....  5.000e-04

---------------------
INITIAL GUESS: MOREAD
---------------------
Guess MOs are being read from file: sp.ges
Input Geometry matches current geometry (good)
Input basis set matches current basis set (good)
Occupation numbers will be reassigned to an Aufbau configuration
MOs were renormalized
MOs were reorthogonalized (Cholesky)
                      ------------------
                      INITIAL GUESS DONE (   0.0 sec)
                      ------------------
             **** ENERGY FILE WAS UPDATED (sp.en.tmp) ****
Finished Guess after   0.1 sec
Maximum memory used throughout the entire GUESS-calculation: 25.4 MB

-------------------------------------------------------------------------------------------
                                      ORCA LEAN-SCF
                              memory conserving SCF solver
-------------------------------------------------------------------------------------------

----------------------------------------D-I-I-S--------------------------------------------
Iteration    Energy (Eh)           Delta-E    RMSDP     MaxDP     DIISErr   Damp  Time(sec)
-------------------------------------------------------------------------------------------
               ***  Starting incremental Fock matrix formation  ***
                              *** Initializing SOSCF ***
---------------------------------------S-O-S-C-F--------------------------------------
Iteration    Energy (Eh)           Delta-E    RMSDP     MaxDP     MaxGrad    Time(sec)
--------------------------------------------------------------------------------------
    1    -1979.1362513500157547     0.00e+00  9.82e-06  4.85e-04  4.59e-05     1.9
               *** Restarting incremental Fock matrix formation ***
    2    -1979.1362514119978186    -6.20e-08  1.56e-05  5.95e-04  8.04e-05     1.7
    3    -1979.1362488729314464     2.54e-06  1.11e-05  4.73e-04  2.69e-04     1.2
                 **** Energy Check signals convergence ****

               *****************************************************
               *                     SUCCESS                       *
               *           SCF CONVERGED AFTER   3 CYCLES          *
               *****************************************************

             **** ENERGY FILE WAS UPDATED (sp.en.tmp) ****

----------------
TOTAL SCF ENERGY
----------------

Total Energy       :      -1979.13624887293145 Eh          -53855.03527 eV

Components:
Nuclear Repulsion  :       2217.11815731614433 Eh           60330.85222 eV
Electronic Energy  :      -4196.25440618907487 Eh         -114185.88749 eV
One Electron Energy:      -7139.15481680563698 Eh         -194266.27887 eV
Two Electron Energy:       2942.90041061656166 Eh           80080.39138 eV

Virial components:
Potential Energy   :      -3949.29152216678631 Eh         -107465.68577 eV
Kinetic Energy     :       1970.15527329385463 Eh           53610.65050 eV
Virial Ratio       :          2.00455851155532

DFT components:
N(Alpha)           :       87.000331373739 electrons
N(Beta)            :       87.000331373739 electrons
N(Total)           :      174.000662747477 electrons
E(X)               :     -180.015211383457 Eh       
E(C)               :       -6.129071472014 Eh       
E(XC)              :     -186.144282855471 Eh       

---------------
SCF CONVERGENCE
---------------

  Last Energy change         ...   -2.5391e-06  Tolerance :   1.0000e-05
  Last MAX-Density change    ...    4.7307e-04  Tolerance :   1.0000e-03
  Last RMS-Density change    ...    1.1134e-05  Tolerance :   1.0000e-04
  Last DIIS Error            ...    1.5946e-04  Tolerance :   5.0000e-04
  Last Orbital Gradient      ...    2.6936e-04  Tolerance :   1.0000e-04
  Last Orbital Rotation      ...    2.7989e-04  Tolerance :   1.0000e-04


----------------
ORBITAL ENERGIES
----------------

  NO   OCC          E(Eh)            E(eV) 
   0   2.0000     -88.033878     -2395.5236 
   1   2.0000     -87.961128     -2393.5440 
   2   2.0000     -76.415705     -2079.3770 
   3   2.0000     -18.813685      -511.9464 
   4   2.0000     -18.803627      -511.6727 
   5   2.0000     -18.772958      -510.8382 
   6   2.0000     -18.771859      -510.8082 
   7   2.0000     -18.751479      -510.2537 
   8   2.0000     -18.737232      -509.8660 
   9   2.0000     -10.023968      -272.7660 
  10   2.0000     -10.011807      -272.4351 
  11   2.0000      -9.953909      -270.8596 
  12   2.0000      -9.949291      -270.7340 
  13   2.0000      -9.939954      -270.4799 
  14   2.0000      -9.935931      -270.3704 
  15   2.0000      -9.929264      -270.1890 
  16   2.0000      -9.916749      -269.8485 
  17   2.0000      -9.891266      -269.1550 
  18   2.0000      -9.878228      -268.8003 
  19   2.0000      -7.678711      -208.9483 
  20   2.0000      -7.606401      -206.9807 
  21   2.0000      -6.410549      -174.4399 
  22   2.0000      -5.706800      -155.2899 
  23   2.0000      -5.702775      -155.1804 
  24   2.0000      -5.695926      -154.9940 
  25   2.0000      -5.635710      -153.3555 
  26   2.0000      -5.627116      -153.1216 
  27   2.0000      -5.625950      -153.0899 
  28   2.0000      -4.633769      -126.0913 
  29   2.0000      -4.632664      -126.0612 
  30   2.0000      -4.630680      -126.0072 
  31   2.0000      -1.025500       -27.9053 
  32   2.0000      -1.009706       -27.4755 
  33   2.0000      -0.968027       -26.3414 
  34   2.0000      -0.929946       -25.3051 
  35   2.0000      -0.920405       -25.0455 
  36   2.0000      -0.915507       -24.9122 
  37   2.0000      -0.766070       -20.8458 
  38   2.0000      -0.713063       -19.4034 
  39   2.0000      -0.706566       -19.2266 
  40   2.0000      -0.683681       -18.6039 
  41   2.0000      -0.654546       -17.8111 
  42   2.0000      -0.622852       -16.9487 
  43   2.0000      -0.618924       -16.8418 
  44   2.0000      -0.603770       -16.4294 
  45   2.0000      -0.586663       -15.9639 
  46   2.0000      -0.558535       -15.1985 
  47   2.0000      -0.515834       -14.0366 
  48   2.0000      -0.503974       -13.7138 
  49   2.0000      -0.499921       -13.6035 
  50   2.0000      -0.487691       -13.2708 
  51   2.0000      -0.462300       -12.5798 
  52   2.0000      -0.456963       -12.4346 
  53   2.0000      -0.448874       -12.2145 
  54   2.0000      -0.443759       -12.0753 
  55   2.0000      -0.425046       -11.5661 
  56   2.0000      -0.418067       -11.3762 
  57   2.0000      -0.412708       -11.2304 
  58   2.0000      -0.411452       -11.1962 
  59   2.0000      -0.407313       -11.0835 
  60   2.0000      -0.399666       -10.8755 
  61   2.0000      -0.392702       -10.6860 
  62   2.0000      -0.385139       -10.4802 
  63   2.0000      -0.378889       -10.3101 
  64   2.0000      -0.368764       -10.0346 
  65   2.0000      -0.363219        -9.8837 
  66   2.0000      -0.358752        -9.7621 
  67   2.0000      -0.351950        -9.5770 
  68   2.0000      -0.348314        -9.4781 
  69   2.0000      -0.339314        -9.2332 
  70   2.0000      -0.331831        -9.0296 
  71   2.0000      -0.323994        -8.8163 
  72   2.0000      -0.315532        -8.5861 
  73   2.0000      -0.311433        -8.4745 
  74   2.0000      -0.303560        -8.2603 
  75   2.0000      -0.291813        -7.9406 
  76   2.0000      -0.283572        -7.7164 
  77   2.0000      -0.280449        -7.6314 
  78   2.0000      -0.272023        -7.4021 
  79   2.0000      -0.256847        -6.9892 
  80   2.0000      -0.254206        -6.9173 
  81   2.0000      -0.243570        -6.6279 
  82   2.0000      -0.236587        -6.4379 
  83   2.0000      -0.225170        -6.1272 
  84   2.0000      -0.223206        -6.0737 
  85   2.0000      -0.182072        -4.9544 
  86   2.0000      -0.171682        -4.6717 
  87   0.0000      -0.038035        -1.0350 
  88   0.0000      -0.028771        -0.7829 
  89   0.0000      -0.023605        -0.6423 
  90   0.0000       0.004265         0.1161 
  91   0.0000       0.031994         0.8706 
  92   0.0000       0.042266         1.1501 
  93   0.0000       0.051204         1.3933 
  94   0.0000       0.053895         1.4665 
  95   0.0000       0.063093         1.7169 
  96   0.0000       0.065133         1.7724 
  97   0.0000       0.070260         1.9119 
*Only the first 10 virtual orbitals were printed.

                    ********************************
                    * MULLIKEN POPULATION ANALYSIS *
                    ********************************

-----------------------
MULLIKEN ATOMIC CHARGES
-----------------------
   0 C :   -0.300857
   1 C :   -0.025776
   2 O :   -0.218542
   3 C :    0.104220
   4 O :   -0.199681
   5 C :   -0.035745
   6 C :   -0.285755
   7 H :    0.143690
   8 C :    0.220339
   9 O :   -0.194966
  10 O :   -0.221520
  11 C :   -0.029375
  12 C :   -0.277210
  13 S :   -0.115221
  14 P :    0.637484
  15 S :   -0.326096
  16 O :   -0.366119
  17 C :   -0.096295
  18 O :   -0.409507
  19 C :   -0.109118
  20 H :    0.136922
  21 H :    0.106320
  22 H :    0.107280
  23 H :    0.099074
  24 H :    0.131721
  25 H :    0.115513
  26 H :    0.123839
  27 H :    0.114270
  28 H :    0.127924
  29 H :    0.115174
  30 H :    0.117829
  31 H :    0.112805
  32 H :    0.106862
  33 H :    0.123053
  34 H :    0.120996
  35 H :    0.124575
  36 H :    0.106567
  37 H :    0.115323
Sum of atomic charges:   -0.0000000

--------------------------------
MULLIKEN REDUCED ORBITAL CHARGES
--------------------------------
  0 C s       :     3.097680  s :     3.097680
      pz      :     1.062869  p :     3.175420
      px      :     1.095408
      py      :     1.017143
      dz2     :     0.005346  d :     0.027758
      dxz     :     0.002957
      dyz     :     0.007680
      dx2y2   :     0.007281
      dxy     :     0.004494

  1 C s       :     3.078834  s :     3.078834
      pz      :     0.891050  p :     2.888687
      px      :     1.022568
      py      :     0.975069
      dz2     :     0.012594  d :     0.058255
      dxz     :     0.007733
      dyz     :     0.017570
      dx2y2   :     0.012919
      dxy     :     0.007438

  2 O s       :     3.722977  s :     3.722977
      pz      :     1.551515  p :     4.479078
      px      :     1.644243
      py      :     1.283320
      dz2     :     0.003784  d :     0.016487
      dxz     :     0.002013
      dyz     :     0.003717
      dx2y2   :     0.003835
      dxy     :     0.003139

  3 C s       :     3.063102  s :     3.063102
      pz      :     0.973339  p :     2.699189
      px      :     0.867969
      py      :     0.857881
      dz2     :     0.034465  d :     0.133488
      dxz     :     0.016865
      dyz     :     0.033141
      dx2y2   :     0.024967
      dxy     :     0.024050

  4 O s       :     3.762919  s :     3.762919
      pz      :     1.410163  p :     4.419282
      px      :     1.432657
      py      :     1.576462
      dz2     :     0.004890  d :     0.017480
      dxz     :     0.003822
      dyz     :     0.005457
      dx2y2   :     0.001424
      dxy     :     0.001888

  5 C s       :     2.956974  s :     2.956974
      pz      :     1.046335  p :     3.046481
      px      :     0.969831
      py      :     1.030315
      dz2     :     0.004964  d :     0.032289
      dxz     :     0.005952
      dyz     :     0.008825
      dx2y2   :     0.004297
      dxy     :     0.008251

  6 C s       :     3.163106  s :     3.163106
      pz      :     1.070814  p :     3.080754
      px      :     0.977237
      py      :     1.032704
      dz2     :     0.006696  d :     0.041895
      dxz     :     0.005282
      dyz     :     0.010716
      dx2y2   :     0.009822
      dxy     :     0.009378

  7 H s       :     0.856310  s :     0.856310

  8 C s       :     3.020911  s :     3.020911
      pz      :     0.949388  p :     2.626223
      px      :     0.836981
      py      :     0.839854
      dz2     :     0.033276  d :     0.132527
      dxz     :     0.022305
      dyz     :     0.026303
      dx2y2   :     0.025159
      dxy     :     0.025485

  9 O s       :     3.771873  s :     3.771873
      pz      :     1.431574  p :     4.405476
      px      :     1.424668
      py      :     1.549234
      dz2     :     0.004753  d :     0.017618
      dxz     :     0.005660
      dyz     :     0.003537
      dx2y2   :     0.002151
      dxy     :     0.001517

 10 O s       :     3.727795  s :     3.727795
      pz      :     1.525802  p :     4.476716
      px      :     1.534267
      py      :     1.416647
      dz2     :     0.004010  d :     0.017008
      dxz     :     0.002483
      dyz     :     0.003323
      dx2y2   :     0.003183
      dxy     :     0.004009

 11 C s       :     3.093860  s :     3.093860
      pz      :     0.837218  p :     2.877319
      px      :     1.065047
      py      :     0.975054
      dz2     :     0.010070  d :     0.058196
      dxz     :     0.011897
      dyz     :     0.018229
      dx2y2   :     0.008694
      dxy     :     0.009305

 12 C s       :     3.083618  s :     3.083618
      pz      :     1.060996  p :     3.165805
      px      :     1.063902
      py      :     1.040906
      dz2     :     0.003103  d :     0.027787
      dxz     :     0.005418
      dyz     :     0.008053
      dx2y2   :     0.005169
      dxy     :     0.006044

 13 S s       :     5.862476  s :     5.862476
      pz      :     3.297352  p :    10.182024
      px      :     3.283003
      py      :     3.601669
      dz2     :     0.024455  d :     0.070720
      dxz     :     0.010143
      dyz     :     0.009514
      dx2y2   :     0.009191
      dxy     :     0.017417

 14 P s       :     5.220324  s :     5.220324
      pz      :     2.890504  p :     8.563876
      px      :     2.857721
      py      :     2.815651
      dz2     :     0.120487  d :     0.578316
      dxz     :     0.113099
      dyz     :     0.098651
      dx2y2   :     0.095246
      dxy     :     0.150832

 15 S s       :     5.910681  s :     5.910681
      pz      :     3.352086  p :    10.373627
      px      :     3.460751
      py      :     3.560790
      dz2     :     0.007337  d :     0.041787
      dxz     :     0.013505
      dyz     :     0.007500
      dx2y2   :     0.005813
      dxy     :     0.007632

 16 O s       :     3.760348  s :     3.760348
      pz      :     1.635381  p :     4.592289
      px      :     1.340768
      py      :     1.616140
      dz2     :     0.002121  d :     0.013482
      dxz     :     0.003757
      dyz     :     0.002478
      dx2y2   :     0.002439
      dxy     :     0.002688

 17 C s       :     3.123263  s :     3.123263
      pz      :     1.026966  p :     2.921007
      px      :     0.817870
      py      :     1.076170
      dz2     :     0.011863  d :     0.052026
      dxz     :     0.010405
      dyz     :     0.005402
      dx2y2   :     0.010361
      dxy     :     0.013994

 18 O s       :     3.767380  s :     3.767380
      pz      :     1.748368  p :     4.629340
      px      :     1.598504
      py      :     1.282469
      dz2     :     0.001852  d :     0.012787
      dxz     :     0.001805
      dyz     :     0.001981
      dx2y2   :     0.002567
      dxy     :     0.004581

 19 C s       :     3.121412  s :     3.121412
      pz      :     1.065995  p :     2.934925
      px      :     1.092069
      py      :     0.776861
      dz2     :     0.010998  d :     0.052781
      dxz     :     0.006237
      dyz     :     0.010596
      dx2y2   :     0.010747
      dxy     :     0.014204

 20 H s       :     0.863078  s :     0.863078

 21 H s       :     0.893680  s :     0.893680

 22 H s       :     0.892720  s :     0.892720

 23 H s       :     0.900926  s :     0.900926

 24 H s       :     0.868279  s :     0.868279

 25 H s       :     0.884487  s :     0.884487

 26 H s       :     0.876161  s :     0.876161

 27 H s       :     0.885730  s :     0.885730

 28 H s       :     0.872076  s :     0.872076

 29 H s       :     0.884826  s :     0.884826

 30 H s       :     0.882171  s :     0.882171

 31 H s       :     0.887195  s :     0.887195

 32 H s       :     0.893138  s :     0.893138

 33 H s       :     0.876947  s :     0.876947

 34 H s       :     0.879004  s :     0.879004

 35 H s       :     0.875425  s :     0.875425

 36 H s       :     0.893433  s :     0.893433

 37 H s       :     0.884677  s :     0.884677


------------------------
MULLIKEN OVERLAP CHARGES
------------------------
B(  0-C ,  1-C ) :   0.9092 B(  0-C ,  2-O ) :  -0.1008 B(  0-C , 20-H ) :   0.7367 
B(  0-C , 21-H ) :   0.7265 B(  0-C , 22-H ) :   0.7056 B(  0-C , 23-H ) :  -0.0553 
B(  1-C ,  2-O ) :   0.5249 B(  1-C ,  3-C ) :  -0.0717 B(  1-C , 23-H ) :   0.7375 
B(  1-C , 24-H ) :   0.7070 B(  2-O ,  3-C ) :   0.7649 B(  2-O ,  4-O ) :  -0.1450 
B(  2-O ,  5-C ) :  -0.2106 B(  2-O , 23-H ) :  -0.0573 B(  2-O , 24-H ) :  -0.0628 
B(  3-C ,  4-O ) :   1.2527 B(  3-C ,  5-C ) :   0.4421 B(  4-O ,  5-C ) :  -0.1811 
B(  4-O ,  6-C ) :  -0.0599 B(  4-O ,  8-C ) :   0.1358 B(  4-O , 24-H ) :   0.0575 
B(  5-C ,  6-C ) :   0.4601 B(  5-C ,  8-C ) :  -0.0703 B(  5-C , 13-S ) :  -0.1762 
B(  5-C , 25-H ) :   0.6034 B(  5-C , 26-H ) :   0.5700 B(  6-C ,  7-H ) :   0.6203 
B(  6-C ,  8-C ) :   0.1681 B(  6-C ,  9-O ) :  -0.1972 B(  6-C , 10-O ) :  -0.2229 
B(  6-C , 13-S ) :   0.4482 B(  6-C , 25-H ) :  -0.0554 B(  7-H , 13-S ) :  -0.0576 
B(  8-C ,  9-O ) :   1.2199 B(  8-C , 10-O ) :   0.7552 B(  8-C , 11-C ) :  -0.0694 
B(  8-C , 13-S ) :  -0.0708 B(  9-O , 10-O ) :  -0.1314 B(  9-O , 14-P ) :   0.1077 
B( 10-O , 11-C ) :   0.5329 B( 10-O , 12-C ) :  -0.1014 B( 10-O , 27-H ) :  -0.0609 
B( 10-O , 28-H ) :  -0.0615 B( 11-C , 12-C ) :   0.8620 B( 11-C , 27-H ) :   0.7402 
B( 11-C , 28-H ) :   0.7435 B( 12-C , 27-H ) :  -0.0547 B( 12-C , 28-H ) :  -0.0508 
B( 12-C , 29-H ) :   0.7187 B( 12-C , 30-H ) :   0.7320 B( 12-C , 31-H ) :   0.7434 
B( 13-S , 14-P ) :   0.5430 B( 13-S , 15-S ) :  -0.0652 B( 13-S , 16-O ) :  -0.0571 
B( 13-S , 18-O ) :  -0.0780 B( 13-S , 32-H ) :   0.0516 B( 14-P , 15-S ) :   0.9226 
B( 14-P , 16-O ) :   0.6329 B( 14-P , 17-C ) :  -0.0581 B( 14-P , 18-O ) :   0.5630 
B( 14-P , 19-C ) :  -0.0851 B( 15-S , 16-O ) :  -0.0507 B( 15-S , 18-O ) :  -0.0771 
B( 15-S , 35-H ) :   0.0718 B( 16-O , 17-C ) :   0.5639 B( 16-O , 18-O ) :  -0.0698 
B( 16-O , 32-H ) :  -0.0614 B( 16-O , 33-H ) :  -0.0553 B( 16-O , 34-H ) :  -0.0622 
B( 17-C , 32-H ) :   0.7316 B( 17-C , 33-H ) :   0.7605 B( 17-C , 34-H ) :   0.7586 
B( 18-O , 19-C ) :   0.5941 B( 18-O , 35-H ) :  -0.0720 B( 18-O , 36-H ) :  -0.0693 
B( 18-O , 37-H ) :  -0.0578 B( 19-C , 35-H ) :   0.7277 B( 19-C , 36-H ) :   0.7463 
B( 19-C , 37-H ) :   0.7495 B( 23-H , 24-H ) :  -0.0693 B( 27-H , 28-H ) :  -0.0721 
B( 30-H , 31-H ) :  -0.0534 B( 32-H , 34-H ) :  -0.0638 B( 33-H , 34-H ) :  -0.0551 
B( 35-H , 36-H ) :  -0.0616 B( 36-H , 37-H ) :  -0.0556 


                     *******************************
                     * LOEWDIN POPULATION ANALYSIS *
                     *******************************

----------------------
LOEWDIN ATOMIC CHARGES
----------------------
   0 C :   -0.355502
   1 C :   -0.109819
   2 O :   -0.043594
   3 C :    0.028361
   4 O :   -0.155979
   5 C :   -0.246273
   6 C :   -0.260596
   7 H :    0.146501
   8 C :    0.022536
   9 O :   -0.142306
  10 O :   -0.039150
  11 C :   -0.102267
  12 C :   -0.350677
  13 S :    0.086164
  14 P :    0.585709
  15 S :   -0.315045
  16 O :   -0.241585
  17 C :   -0.209268
  18 O :   -0.275078
  19 C :   -0.223275
  20 H :    0.125688
  21 H :    0.122217
  22 H :    0.129398
  23 H :    0.113848
  24 H :    0.124009
  25 H :    0.135370
  26 H :    0.148352
  27 H :    0.120246
  28 H :    0.128619
  29 H :    0.133110
  30 H :    0.128035
  31 H :    0.125327
  32 H :    0.104172
  33 H :    0.121408
  34 H :    0.114879
  35 H :    0.105297
  36 H :    0.103443
  37 H :    0.117726

-------------------------------
LOEWDIN REDUCED ORBITAL CHARGES
-------------------------------
  0 C s       :     2.950415  s :     2.950415
      pz      :     1.124208  p :     3.336301
      px      :     1.135440
      py      :     1.076653
      dz2     :     0.013942  d :     0.068786
      dxz     :     0.006820
      dyz     :     0.018474
      dx2y2   :     0.017750
      dxy     :     0.011801

  1 C s       :     2.926548  s :     2.926548
      pz      :     0.955503  p :     3.053782
      px      :     1.075487
      py      :     1.022792
      dz2     :     0.030052  d :     0.129489
      dxz     :     0.015847
      dyz     :     0.036979
      dx2y2   :     0.029423
      dxy     :     0.017187

  2 O s       :     3.441560  s :     3.441560
      pz      :     1.578033  p :     4.568461
      px      :     1.630196
      py      :     1.360233
      dz2     :     0.007279  d :     0.033573
      dxz     :     0.003291
      dyz     :     0.008021
      dx2y2   :     0.009321
      dxy     :     0.005661

  3 C s       :     2.843675  s :     2.843675
      pz      :     1.027053  p :     2.825037
      px      :     0.860249
      py      :     0.937735
      dz2     :     0.079737  d :     0.302927
      dxz     :     0.034619
      dyz     :     0.081756
      dx2y2   :     0.059100
      dxy     :     0.047715

  4 O s       :     3.550777  s :     3.550777
      pz      :     1.515439  p :     4.574194
      px      :     1.435809
      py      :     1.622946
      dz2     :     0.008691  d :     0.031007
      dxz     :     0.005395
      dyz     :     0.011670
      dx2y2   :     0.002549
      dxy     :     0.002702

  5 C s       :     2.925157  s :     2.925157
      pz      :     1.080651  p :     3.237196
      px      :     1.062434
      py      :     1.094111
      dz2     :     0.014234  d :     0.083920
      dxz     :     0.015499
      dyz     :     0.022848
      dx2y2   :     0.010082
      dxy     :     0.021256

  6 C s       :     2.948139  s :     2.948139
      pz      :     1.098916  p :     3.211896
      px      :     1.040044
      py      :     1.072936
      dz2     :     0.018837  d :     0.100561
      dxz     :     0.010511
      dyz     :     0.027371
      dx2y2   :     0.019726
      dxy     :     0.024116

  7 H s       :     0.853499  s :     0.853499

  8 C s       :     2.843955  s :     2.843955
      pz      :     1.019460  p :     2.829043
      px      :     0.905345
      py      :     0.904239
      dz2     :     0.077320  d :     0.304467
      dxz     :     0.054034
      dyz     :     0.060113
      dx2y2   :     0.052082
      dxy     :     0.060918

  9 O s       :     3.551570  s :     3.551570
      pz      :     1.529180  p :     4.559042
      px      :     1.474207
      py      :     1.555655
      dz2     :     0.008137  d :     0.031695
      dxz     :     0.012021
      dyz     :     0.005234
      dx2y2   :     0.003505
      dxy     :     0.002797

 10 O s       :     3.433404  s :     3.433404
      pz      :     1.554008  p :     4.571374
      px      :     1.568385
      py      :     1.448981
      dz2     :     0.007822  d :     0.034373
      dxz     :     0.004395
      dyz     :     0.006946
      dx2y2   :     0.005309
      dxy     :     0.009900

 11 C s       :     2.927372  s :     2.927372
      pz      :     0.909506  p :     3.046015
      px      :     1.113237
      py      :     1.023272
      dz2     :     0.022523  d :     0.128880
      dxz     :     0.026626
      dyz     :     0.040021
      dx2y2   :     0.017065
      dxy     :     0.022645

 12 C s       :     2.948099  s :     2.948099
      pz      :     1.123863  p :     3.333600
      px      :     1.114951
      py      :     1.094786
      dz2     :     0.007817  d :     0.068978
      dxz     :     0.013406
      dyz     :     0.020026
      dx2y2   :     0.011228
      dxy     :     0.016501

 13 S s       :     5.623562  s :     5.623562
      pz      :     3.305945  p :    10.199600
      px      :     3.307385
      py      :     3.586271
      dz2     :     0.031630  d :     0.090674
      dxz     :     0.012425
      dyz     :     0.011380
      dx2y2   :     0.011679
      dxy     :     0.023560

 14 P s       :     5.079354  s :     5.079354
      pz      :     2.899866  p :     8.533628
      px      :     2.852095
      py      :     2.781668
      dz2     :     0.167551  d :     0.801310
      dxz     :     0.160470
      dyz     :     0.136641
      dx2y2   :     0.117855
      dxy     :     0.218792

 15 S s       :     5.761776  s :     5.761776
      pz      :     3.423855  p :    10.496639
      px      :     3.489961
      py      :     3.582823
      dz2     :     0.008468  d :     0.056630
      dxz     :     0.020397
      dyz     :     0.010502
      dx2y2   :     0.006938
      dxy     :     0.010324

 16 O s       :     3.501260  s :     3.501260
      pz      :     1.668448  p :     4.716229
      px      :     1.404292
      py      :     1.643489
      dz2     :     0.002916  d :     0.024095
      dxz     :     0.007076
      dyz     :     0.003812
      dx2y2   :     0.004522
      dxy     :     0.005768

 17 C s       :     2.972170  s :     2.972170
      pz      :     1.094546  p :     3.123068
      px      :     0.898206
      py      :     1.130315
      dz2     :     0.027811  d :     0.114031
      dxz     :     0.021490
      dyz     :     0.011999
      dx2y2   :     0.021402
      dxy     :     0.031329

 18 O s       :     3.506041  s :     3.506041
      pz      :     1.752434  p :     4.745364
      px      :     1.643414
      py      :     1.349517
      dz2     :     0.003123  d :     0.023673
      dxz     :     0.002413
      dyz     :     0.003941
      dx2y2   :     0.004929
      dxy     :     0.009267

 19 C s       :     2.970122  s :     2.970122
      pz      :     1.124494  p :     3.135977
      px      :     1.145982
      py      :     0.865501
      dz2     :     0.025721  d :     0.117176
      dxz     :     0.014864
      dyz     :     0.021988
      dx2y2   :     0.022945
      dxy     :     0.031658

 20 H s       :     0.874312  s :     0.874312

 21 H s       :     0.877783  s :     0.877783

 22 H s       :     0.870602  s :     0.870602

 23 H s       :     0.886152  s :     0.886152

 24 H s       :     0.875991  s :     0.875991

 25 H s       :     0.864630  s :     0.864630

 26 H s       :     0.851648  s :     0.851648

 27 H s       :     0.879754  s :     0.879754

 28 H s       :     0.871381  s :     0.871381

 29 H s       :     0.866890  s :     0.866890

 30 H s       :     0.871965  s :     0.871965

 31 H s       :     0.874673  s :     0.874673

 32 H s       :     0.895828  s :     0.895828

 33 H s       :     0.878592  s :     0.878592

 34 H s       :     0.885121  s :     0.885121

 35 H s       :     0.894703  s :     0.894703

 36 H s       :     0.896557  s :     0.896557

 37 H s       :     0.882274  s :     0.882274


---------------------------------
LOEWDIN BOND ORDERS (THRESH 0.050000)
---------------------------------
B(  0-C ,  1-C ) :   1.1553 B(  0-C ,  2-O ) :   0.0548 B(  0-C , 20-H ) :   0.9287 
B(  0-C , 21-H ) :   0.9369 B(  0-C , 22-H ) :   0.9292 B(  1-C ,  2-O ) :   1.0494 
B(  1-C ,  3-C ) :   0.0762 B(  1-C , 23-H ) :   0.9174 B(  1-C , 24-H ) :   0.9015 
B(  2-O ,  3-C ) :   1.4553 B(  2-O ,  4-O ) :   0.2080 B(  2-O ,  5-C ) :   0.0726 
B(  3-C ,  4-O ) :   2.1551 B(  3-C ,  5-C ) :   1.0380 B(  3-C ,  6-C ) :   0.0582 
B(  4-O ,  5-C ) :   0.0963 B(  4-O ,  8-C ) :   0.0603 B(  5-C ,  6-C ) :   1.0551 
B(  5-C ,  8-C ) :   0.0586 B(  5-C , 13-S ) :   0.0673 B(  5-C , 25-H ) :   0.8917 
B(  5-C , 26-H ) :   0.8755 B(  6-C ,  7-H ) :   0.8684 B(  6-C ,  8-C ) :   1.0169 
B(  6-C ,  9-O ) :   0.0918 B(  6-C , 10-O ) :   0.0695 B(  6-C , 13-S ) :   1.1246 
B(  8-C ,  9-O ) :   2.0969 B(  8-C , 10-O ) :   1.4626 B(  8-C , 11-C ) :   0.0788 
B(  8-C , 13-S ) :   0.0637 B(  9-O , 10-O ) :   0.1896 B(  9-O , 14-P ) :   0.1646 
B( 10-O , 11-C ) :   1.0394 B( 10-O , 12-C ) :   0.0546 B( 11-C , 12-C ) :   1.1590 
B( 11-C , 27-H ) :   0.9109 B( 11-C , 28-H ) :   0.9102 B( 12-C , 29-H ) :   0.9293 
B( 12-C , 30-H ) :   0.9366 B( 12-C , 31-H ) :   0.9378 B( 13-S , 14-P ) :   1.0188 
B( 13-S , 15-S ) :   0.1198 B( 13-S , 16-O ) :   0.0638 B( 13-S , 18-O ) :   0.0727 
B( 14-P , 15-S ) :   1.7184 B( 14-P , 16-O ) :   1.2698 B( 14-P , 17-C ) :   0.0648 
B( 14-P , 18-O ) :   1.1761 B( 14-P , 19-C ) :   0.0625 B( 15-S , 16-O ) :   0.0590 
B( 15-S , 18-O ) :   0.0845 B( 16-O , 17-C ) :   1.1214 B( 16-O , 18-O ) :   0.0529 
B( 17-C , 32-H ) :   0.9428 B( 17-C , 33-H ) :   0.9511 B( 17-C , 34-H ) :   0.9489 
B( 18-O , 19-C ) :   1.1439 B( 19-C , 35-H ) :   0.9346 B( 19-C , 36-H ) :   0.9476 
B( 19-C , 37-H ) :   0.9497 

------------------------------------------
LOEWDIN REDUCED ORBITAL POPULATIONS PER MO
-------------------------------------------
THRESHOLD FOR PRINTING IS 0.1%%
                      0         1         2         3         4         5   
                 -88.03388 -87.96113 -76.41570 -18.81368 -18.80363 -18.77296
                   2.00000   2.00000   2.00000   2.00000   2.00000   2.00000
                  --------  --------  --------  --------  --------  --------
 2 O  s               0.0       0.0       0.0       0.0      99.9       0.0
10 O  s               0.0       0.0       0.0      99.9       0.0       0.0
13 S  s             100.0       0.0       0.0       0.0       0.0       0.0
14 P  s               0.0       0.0     100.0       0.0       0.0       0.0
15 S  s               0.0     100.0       0.0       0.0       0.0       0.0
16 O  s               0.0       0.0       0.0       0.0       0.0      99.8
18 O  s               0.0       0.0       0.0       0.0       0.0       0.1

                      6         7         8         9        10        11   
                 -18.77186 -18.75148 -18.73723 -10.02397 -10.01181  -9.95391
                   2.00000   2.00000   2.00000   2.00000   2.00000   2.00000
                  --------  --------  --------  --------  --------  --------
 2 O  py              0.0       0.0       0.0       0.0       0.2       0.0
 3 C  s               0.0       0.0       0.0       0.0      99.3       0.0
 4 O  s               0.0       0.0      99.9       0.0       0.0       0.0
 4 O  pz              0.0       0.0       0.0       0.0       0.2       0.0
 6 C  s               0.0       0.0       0.0       0.0       0.0      99.6
 8 C  s               0.0       0.0       0.0      99.3       0.0       0.0
 9 O  s               0.0      99.9       0.0       0.0       0.0       0.0
 9 O  pz              0.0       0.0       0.0       0.2       0.0       0.0
10 O  py              0.0       0.0       0.0       0.1       0.0       0.0
16 O  s               0.1       0.0       0.0       0.0       0.0       0.0
18 O  s              99.8       0.0       0.0       0.0       0.0       0.0

                     12        13        14        15        16        17   
                  -9.94929  -9.93995  -9.93593  -9.92926  -9.91675  -9.89127
                   2.00000   2.00000   2.00000   2.00000   2.00000   2.00000
                  --------  --------  --------  --------  --------  --------
 1 C  s               0.0      99.7       0.0       0.0       0.0       0.0
 5 C  s               0.0       0.0       0.0       0.0      99.6       0.0
11 C  s              99.7       0.0       0.0       0.0       0.0       0.0
12 C  s               0.0       0.0       0.0       0.0       0.0      99.7
17 C  s               0.0       0.0      99.7       0.0       0.0       0.0
19 C  s               0.0       0.0       0.0      99.7       0.0       0.0

                     18        19        20        21        22        23   
                  -9.87823  -7.67871  -7.60640  -6.41055  -5.70680  -5.70278
                   2.00000   2.00000   2.00000   2.00000   2.00000   2.00000
                  --------  --------  --------  --------  --------  --------
 0 C  s              99.7       0.0       0.0       0.0       0.0       0.0
 6 C  px              0.0       0.1       0.0       0.0       0.0       0.0
13 S  s               0.0      99.8       0.0       0.0       0.0       0.0
13 S  pz              0.0       0.0       0.0       0.0      29.3      70.2
13 S  px              0.0       0.0       0.0       0.0      47.6      24.0
13 S  py              0.0       0.0       0.0       0.0      23.1       5.8
14 P  s               0.0       0.0       0.0      99.4       0.0       0.0
15 S  s               0.0       0.0      99.9       0.0       0.0       0.0
16 O  py              0.0       0.0       0.0       0.1       0.0       0.0

                     24        25        26        27        28        29   
                  -5.69593  -5.63571  -5.62712  -5.62595  -4.63377  -4.63266
                   2.00000   2.00000   2.00000   2.00000   2.00000   2.00000
                  --------  --------  --------  --------  --------  --------
13 S  pz              0.5       0.0       0.0       0.0       0.0       0.0
13 S  px             28.3       0.0       0.0       0.0       0.0       0.0
13 S  py             71.2       0.0       0.0       0.0       0.0       0.0
14 P  pz              0.0       0.0       0.0       0.0      23.3      34.7
14 P  px              0.0       0.0       0.0       0.0       6.2      64.2
14 P  py              0.0       0.0       0.0       0.0      70.4       1.0
15 S  pz              0.0      47.2      52.8       0.0       0.0       0.0
15 S  px              0.0      32.1      27.0      40.9       0.0       0.0
15 S  py              0.0      20.7      20.2      59.1       0.0       0.0

                     30        31        32        33        34        35   
                  -4.63068  -1.02550  -1.00971  -0.96803  -0.92995  -0.92040
                   2.00000   2.00000   2.00000   2.00000   2.00000   2.00000
                  --------  --------  --------  --------  --------  --------
 0 C  s               0.0       0.0       0.2       0.0       0.0       0.0
 0 C  py              0.0       0.0       0.4       0.0       0.0       0.0
 1 C  s               0.0       0.1       4.3       0.0       0.0       0.0
 1 C  pz              0.0       0.0       2.8       0.0       0.0       0.0
 1 C  px              0.0       0.0       0.7       0.0       0.0       0.0
 1 C  py              0.0       0.0       1.9       0.0       0.0       0.0
 1 C  dxz             0.0       0.0       0.1       0.0       0.0       0.0
 1 C  dyz             0.0       0.0       0.2       0.0       0.0       0.0
 2 O  s               0.0       0.7      41.5       0.0       0.2       0.2
 2 O  pz              0.0       0.0       1.1       0.0       0.0       0.0
 2 O  py              0.0       0.0       2.1       0.0       0.0       0.0
 3 C  s               0.0       0.6      18.4       0.0       0.0       0.1
 3 C  pz              0.0       0.0       1.0       0.0       0.1       0.1
 3 C  px              0.0       0.0       0.5       0.0       0.0       0.0
 3 C  py              0.0       0.0       3.7       0.0       0.2       0.2
 3 C  dyz             0.0       0.0       0.2       0.0       0.0       0.0
 3 C  dx2y2           0.0       0.0       0.8       0.0       0.0       0.0
 4 O  s               0.0       0.5      10.0       0.0       0.4       0.5
 4 O  pz              0.0       0.1       1.4       0.0       0.0       0.0
 4 O  py              0.0       0.0       1.1       0.0       0.0       0.0
 5 C  s               0.0       0.2       0.9       0.0       0.0       0.0
 5 C  pz              0.0       0.1       1.1       0.0       0.0       0.0
 5 C  px              0.0       0.0       0.2       0.0       0.0       0.0
 5 C  py              0.0       0.0       0.5       0.0       0.0       0.0
 6 C  s               0.0       1.2       0.0       0.0       0.4       0.1
 6 C  pz              0.0       1.3       0.0       0.0       0.5       0.1
 6 C  px              0.0       0.1       0.1       0.0       0.1       0.0
 6 C  py              0.0       0.5       0.1       0.0       0.0       0.0
 7 H  s               0.0       0.2       0.0       0.0       0.0       0.0
 8 C  s               0.0      19.2       0.3       0.0       4.2       0.4
 8 C  pz              0.0       1.0       0.0       0.1       7.0       0.6
 8 C  px              0.0       1.1       0.0       0.2      11.0       0.8
 8 C  py              0.0       2.8       0.2       0.1       4.5       0.4
 8 C  dz2             0.0       0.0       0.0       0.0       0.6       0.1
 8 C  dxz             0.0       0.2       0.0       0.0       0.8       0.1
 8 C  dx2y2           0.0       0.0       0.0       0.0       0.1       0.0
 8 C  dxy             0.0       0.9       0.0       0.0       0.1       0.0
 9 O  s               0.0      10.4       0.2       0.5      37.3       2.9
 9 O  pz              0.0       1.4       0.0       0.0       2.8       0.3
 9 O  px              0.0       1.0       0.0       0.0       1.0       0.1
 9 O  py              0.0       0.2       0.0       0.0       0.0       0.0
10 O  s               0.0      40.1       1.1       0.4      13.3       1.0
10 O  pz              0.0       1.0       0.0       0.0       0.2       0.0
10 O  px              0.0       1.5       0.0       0.0       0.1       0.0
10 O  py              0.0       0.8       0.0       0.0       0.2       0.0
11 C  s               0.0       4.0       0.1       0.0       1.7       0.1
11 C  pz              0.0       3.0       0.1       0.0       1.1       0.1
11 C  px              0.0       0.4       0.0       0.0       0.0       0.0
11 C  py              0.0       1.7       0.0       0.0       0.2       0.0
11 C  dyz             0.0       0.3       0.0       0.0       0.1       0.0
12 C  s               0.0       0.2       0.0       0.0       0.2       0.0
12 C  px              0.0       0.1       0.0       0.0       0.1       0.0
12 C  py              0.0       0.3       0.0       0.0       0.2       0.0
13 S  s               0.0       0.1       0.0       0.3       0.1       0.1
13 S  pz              0.0       0.0       0.0       0.3       0.0       0.0
14 P  s               0.0       0.1       0.0      13.6       0.0       0.0
14 P  pz             42.0       0.0       0.0       0.0       0.1       1.4
14 P  px             29.5       0.0       0.0       5.1       0.5       0.0
14 P  py             28.5       0.1       0.0       0.1       1.6       7.0
14 P  dz2             0.0       0.0       0.0       0.4       0.0       0.0
14 P  dxz             0.0       0.0       0.0       0.0       0.0       0.4
14 P  dyz             0.0       0.0       0.0       0.4       0.0       0.0
14 P  dxy             0.0       0.0       0.0       0.0       0.1       2.6
15 S  s               0.0       0.0       0.0       0.3       0.0       0.0
15 S  pz              0.0       0.0       0.0       0.1       0.0       0.0
15 S  px              0.0       0.0       0.0       0.2       0.0       0.0
16 O  s               0.0       0.0       0.0      31.3       0.6      27.1
16 O  pz              0.0       0.0       0.0       1.2       0.0       0.7
16 O  px              0.0       0.0       0.0       0.0       0.0       0.2
16 O  py              0.0       0.0       0.0       0.8       0.0       0.1
17 C  s               0.0       0.0       0.0       4.0       0.1       3.9
17 C  pz              0.0       0.0       0.0       0.6       0.0       0.6
17 C  px              0.0       0.0       0.0       3.3       0.0       2.6
17 C  py              0.0       0.0       0.0       0.6       0.0       0.2
17 C  dxz             0.0       0.0       0.0       0.1       0.0       0.1
17 C  dx2y2           0.0       0.0       0.0       0.1       0.0       0.1
18 O  s               0.0       0.0       0.0      24.7       4.9      29.7
18 O  pz              0.0       0.0       0.0       0.0       0.0       0.1
18 O  px              0.0       0.0       0.0       1.2       0.1       0.8
18 O  py              0.0       0.0       0.0       0.1       0.0       0.5
19 C  s               0.0       0.0       0.0       2.9       0.7       5.0
19 C  pz              0.0       0.0       0.0       0.3       0.1       0.4
19 C  px              0.0       0.0       0.0       0.1       0.0       0.2
19 C  py              0.0       0.0       0.0       2.9       0.6       3.7
19 C  dx2y2           0.0       0.0       0.0       0.1       0.0       0.2
23 H  s               0.0       0.0       0.5       0.0       0.0       0.0
24 H  s               0.0       0.0       0.8       0.0       0.0       0.0
25 H  s               0.0       0.0       0.2       0.0       0.0       0.0
[...]
19 C  dx2y2           0.0       0.2       1.2       3.3       0.0       0.0
19 C  dxy             0.0       0.4       0.0       0.7       0.0       0.0

                    312       313       314       315   
                   3.50609   3.52393   3.57616   3.59167
                   0.00000   0.00000   0.00000   0.00000
                  --------  --------  --------  --------
 1 C  s               0.1       0.1       0.0       0.0
 1 C  py              0.1       0.1       0.0       0.0
 1 C  dz2             0.0       0.0       0.4       0.3
 1 C  dxz             0.0       0.0       0.1       0.1
 1 C  dyz             0.6       0.4       0.0       0.0
 1 C  dxy             0.2       0.1       0.0       0.0
 2 O  s               0.6       0.2       0.4       0.4
 2 O  pz              0.2       0.1       0.1       0.1
 2 O  px              0.2       0.1       0.0       0.0
 2 O  py              2.0       1.2       0.1       0.1
 2 O  dz2             9.1       5.1       1.3       1.1
 2 O  dxz             0.8       0.7       0.1       0.1
 2 O  dyz             0.6       1.2       3.6       2.9
 2 O  dx2y2          11.3       5.4       2.9       2.3
 2 O  dxy             0.8       0.2       1.9       1.4
 3 C  s               0.1       0.1       3.7       3.1
 3 C  pz              0.7       0.6       1.3       1.2
 3 C  px              0.0       0.0       0.1       0.1
 3 C  py              2.3       1.7       0.2       0.2
 3 C  dz2             5.8       4.0       0.0       0.0
 3 C  dxz             0.9       0.6       0.0       0.0
 3 C  dyz             0.2       0.0       5.7       4.9
 3 C  dx2y2           3.8       1.7       2.0       1.7
 3 C  dxy             0.3       0.3       0.1       0.0
 4 O  s               0.7       0.7       2.3       1.5
 4 O  pz              0.1       0.2       1.4       1.1
 4 O  px              0.0       0.0       0.1       0.1
 4 O  py              0.9       0.6       0.2       0.2
 4 O  dz2             0.6       0.0      11.8      10.9
 4 O  dxz             0.4       0.2       4.0       2.6
 4 O  dyz            10.8      10.3       8.8       7.2
 4 O  dx2y2           4.4       2.6       0.0       0.0
 4 O  dxy             0.3       0.5       0.3       1.2
 5 C  pz              0.1       0.0       0.1       0.1
 5 C  dz2             0.0       0.1       0.2       0.2
 5 C  dyz             0.5       0.7       0.1       0.0
 5 C  dxy             0.1       0.1       0.0       0.0
 6 C  pz              0.0       0.1       0.0       0.1
 6 C  dz2             0.0       0.0       0.1       0.2
 6 C  dxz             0.1       0.4       0.0       0.0
 6 C  dyz             0.2       0.1       0.1       0.0
 8 C  s               0.0       0.4       3.4       4.1
 8 C  pz              0.5       0.9       0.8       1.2
 8 C  px              1.3       1.9       0.1       0.4
 8 C  py              0.7       1.0       0.1       0.0
 8 C  dz2             3.3       4.5       0.4       0.0
 8 C  dxz             0.3       0.6       2.3       3.4
 8 C  dyz             0.2       0.2       2.3       2.0
 8 C  dx2y2           0.0       0.1       0.4       0.5
 8 C  dxy             2.0       3.5       2.2       2.0
 9 O  s               0.7       1.1       1.3       2.3
 9 O  pz              0.2       0.3       0.9       1.3
 9 O  px              0.5       0.6       0.2       0.5
 9 O  py              0.3       0.4       0.0       0.0
 9 O  dz2             0.1       0.0       8.6       9.4
 9 O  dxz             4.9       7.6       9.2      14.2
 9 O  dyz             3.0       5.1       0.1       0.1
 9 O  dx2y2           1.3       1.4       0.9       1.4
 9 O  dxy             1.7       2.7       0.4       0.0
10 O  s               0.2       0.9       0.5       0.7
10 O  pz              0.2       0.2       0.3       0.1
10 O  px              0.5       0.9       0.1       0.1
10 O  py              1.0       1.4       0.3       0.2
10 O  dz2             6.6       9.0       2.6       1.3
10 O  dxz             0.1       0.2       1.3       1.6
10 O  dyz             1.4       2.0       1.0       1.8
10 O  dx2y2           0.0       0.0       1.0       0.9
10 O  dxy             6.8      10.2       4.5       4.0
11 C  s               0.1       0.2       0.0       0.0
11 C  py              0.1       0.2       0.0       0.0
11 C  dz2             0.0       0.0       0.3       0.4
11 C  dxz             0.3       0.3       0.1       0.0
11 C  dyz             0.4       0.5       0.0       0.0


                      *****************************
                      * MAYER POPULATION ANALYSIS *
                      *****************************

  NA   - Mulliken gross atomic population
  ZA   - Total nuclear charge
  QA   - Mulliken gross atomic charge
  VA   - Mayer's total valence
  BVA  - Mayer's bonded valence
  FA   - Mayer's free valence

  ATOM       NA         ZA         QA         VA         BVA        FA
  0 C      6.3009     6.0000    -0.3009     4.0020     4.0020    -0.0000
  1 C      6.0258     6.0000    -0.0258     3.9958     3.9958    -0.0000
  2 O      8.2185     8.0000    -0.2185     2.3051     2.3051    -0.0000
  3 C      5.8958     6.0000     0.1042     4.4172     4.4172    -0.0000
  4 O      8.1997     8.0000    -0.1997     2.3026     2.3026    -0.0000
  5 C      6.0357     6.0000    -0.0357     3.8048     3.8048    -0.0000
  6 C      6.2858     6.0000    -0.2858     3.9203     3.9203     0.0000
  7 H      0.8563     1.0000     0.1437     0.9456     0.9456    -0.0000
  8 C      5.7797     6.0000     0.2203     4.2954     4.2954     0.0000
  9 O      8.1950     8.0000    -0.1950     2.3172     2.3172    -0.0000
 10 O      8.2215     8.0000    -0.2215     2.2920     2.2920    -0.0000
 11 C      6.0294     6.0000    -0.0294     3.9934     3.9934    -0.0000
 12 C      6.2772     6.0000    -0.2772     3.9990     3.9990     0.0000
 13 S     16.1152    16.0000    -0.1152     2.2677     2.2677    -0.0000
 14 P     14.3625    15.0000     0.6375     4.9565     4.9565     0.0000
 15 S     16.3261    16.0000    -0.3261     2.0127     2.0127    -0.0000
 16 O      8.3661     8.0000    -0.3661     2.1638     2.1638    -0.0000
 17 C      6.0963     6.0000    -0.0963     3.8433     3.8433     0.0000
 18 O      8.4095     8.0000    -0.4095     2.1301     2.1301    -0.0000
 19 C      6.1091     6.0000    -0.1091     3.8225     3.8225     0.0000
 20 H      0.8631     1.0000     0.1369     0.9894     0.9894    -0.0000
 21 H      0.8937     1.0000     0.1063     0.9585     0.9585    -0.0000
 22 H      0.8927     1.0000     0.1073     0.9553     0.9553    -0.0000
 23 H      0.9009     1.0000     0.0991     0.9490     0.9490     0.0000
 24 H      0.8683     1.0000     0.1317     0.9853     0.9853     0.0000
 25 H      0.8845     1.0000     0.1155     0.9857     0.9857     0.0000
 26 H      0.8762     1.0000     0.1238     0.9592     0.9592    -0.0000
 27 H      0.8857     1.0000     0.1143     0.9653     0.9653    -0.0000
 28 H      0.8721     1.0000     0.1279     0.9661     0.9661    -0.0000
 29 H      0.8848     1.0000     0.1152     0.9555     0.9555     0.0000
 30 H      0.8822     1.0000     0.1178     0.9574     0.9574     0.0000
 31 H      0.8872     1.0000     0.1128     0.9582     0.9582    -0.0000
 32 H      0.8931     1.0000     0.1069     0.9814     0.9814    -0.0000
 33 H      0.8769     1.0000     0.1231     0.9540     0.9540     0.0000
 34 H      0.8790     1.0000     0.1210     0.9649     0.9649     0.0000
 35 H      0.8754     1.0000     0.1246     1.0019     1.0019    -0.0000
 36 H      0.8934     1.0000     0.1066     0.9664     0.9664    -0.0000
 37 H      0.8847     1.0000     0.1153     0.9552     0.9552    -0.0000

  Mayer bond orders larger than 0.100000
B(  0-C ,  1-C ) :   1.1693 B(  0-C , 20-H ) :   0.9355 B(  0-C , 21-H ) :   0.9478 
B(  0-C , 22-H ) :   0.9421 B(  1-C ,  2-O ) :   0.8959 B(  1-C , 23-H ) :   0.9350 
B(  1-C , 24-H ) :   0.9071 B(  2-O ,  3-C ) :   1.2675 B(  2-O ,  4-O ) :   0.1029 
B(  3-C ,  4-O ) :   1.9685 B(  3-C ,  5-C ) :   0.9995 B(  4-O ,  8-C ) :   0.1111 
B(  5-C ,  6-C ) :   1.0250 B(  5-C , 25-H ) :   0.9048 B(  5-C , 26-H ) :   0.8778 
B(  6-C ,  7-H ) :   0.8773 B(  6-C ,  8-C ) :   0.9128 B(  6-C , 13-S ) :   1.0285 
B(  8-C ,  9-O ) :   1.9060 B(  8-C , 10-O ) :   1.2688 B(  9-O , 14-P ) :   0.1646 
B( 10-O , 11-C ) :   0.8906 B( 11-C , 12-C ) :   1.1546 B( 11-C , 27-H ) :   0.9285 
B( 11-C , 28-H ) :   0.9264 B( 12-C , 29-H ) :   0.9432 B( 12-C , 30-H ) :   0.9488 
B( 12-C , 31-H ) :   0.9513 B( 13-S , 14-P ) :   0.9331 B( 13-S , 15-S ) :   0.1099 
B( 14-P , 15-S ) :   1.6116 B( 14-P , 16-O ) :   1.1040 B( 14-P , 18-O ) :   0.9997 
B( 16-O , 17-C ) :   0.9305 B( 17-C , 32-H ) :   0.9385 B( 17-C , 33-H ) :   0.9587 
B( 17-C , 34-H ) :   0.9487 B( 18-O , 19-C ) :   0.9471 B( 19-C , 35-H ) :   0.9259 
B( 19-C , 36-H ) :   0.9475 B( 19-C , 37-H ) :   0.9575 

-------
TIMINGS
-------

Total SCF time: 0 days 0 hours 0 min 13 sec 

Total time                  ....      13.800 sec
Sum of individual times     ....      13.769 sec  ( 99.8%)

SCF preparation             ....       1.950 sec  ( 14.1%)
Fock matrix formation       ....       4.726 sec  ( 34.2%)
  Startup                   ....       0.009 sec  (  0.2% of F)
  Split-RI-J                ....       2.965 sec  ( 62.7% of F)
  XC integration            ....       1.714 sec  ( 36.3% of F)
    Basis function eval.    ....       0.692 sec  ( 40.4% of XC)
    Density eval.           ....       0.429 sec  ( 25.1% of XC)
    XC-Functional eval.     ....       0.093 sec  (  5.4% of XC)
    XC-Potential eval.      ....       0.419 sec  ( 24.5% of XC)
Diagonalization             ....       0.000 sec  (  0.0%)
Density matrix formation    ....       0.013 sec  (  0.1%)
Total Energy calculation    ....       0.001 sec  (  0.0%)
Population analysis         ....       6.988 sec  ( 50.6%)
Orbital Transformation      ....       0.020 sec  (  0.1%)
Orbital Orthonormalization  ....       0.000 sec  (  0.0%)
DIIS solution               ....       0.025 sec  (  0.2%)
  MO trafo                  ....       0.000 sec  (  0.0 % of DIIS)
  Orb grad                  ....       0.000 sec  (  0.0 % of DIIS)
  Energy W gradient         ....       0.000 sec  (  0.0 % of DIIS)
  DIIS error                ....       0.004 sec  ( 14.0 % of DIIS)
  DIIS work                 ....       0.021 sec  ( 85.0 % of DIIS)
  Form Q                    ....       0.000 sec  (  0.0 % of DIIS)
  Form QpQm                 ....       0.000 sec  (  0.0 % of DIIS)
  Exp/Cayley                ....       0.000 sec  (  0.0 % of DIIS)
  Orb update                ....       0.000 sec  (  0.0 % of DIIS)
  Wake-sleep                ....       0.000 sec  (  1.0 % of DIIS)
SOSCF solution              ....       0.047 sec  (  0.3%)
  MO trafo                  ....       0.030 sec  ( 63.6 % of SOSCF)
  Orb grad                  ....       0.000 sec  (  0.7 % of SOSCF)
  Rot update                ....       0.002 sec  (  3.9 % of SOSCF)
  Step                      ....       0.015 sec  ( 31.3 % of SOSCF)
Finished LeanSCF after  21.5 sec

Maximum memory used throughout the entire LEANSCF-calculation: 34.3 MB


-------------------------------------------------------------------------------
                          DFT DISPERSION CORRECTION                            
                                                                               
                                DFTD4 V3.4.0                                   
-------------------------------------------------------------------------------
The PBE functional is recognized
Active option DFTDOPT                   ...         5   

-------------------------   ----------------
Dispersion correction           -0.053461608
-------------------------   ----------------

------------------   -----------------
gCP correction             0.182898098
------------------   -----------------

-------------------------   --------------------
FINAL SINGLE POINT ENERGY     -1979.006812383639
-------------------------   --------------------


------------------------------------------------------------------------------
                              ORCA PROPERTY CALCULATIONS
------------------------------------------------------------------------------

GBWName                                 ... sp.gbw
Number of atoms                         ...     38
Number of basis functions               ...    316
Max core memory                         ...   1024 MB

Electric properties:
Dipole moment                           ... YES
Quadrupole moment                       ...  NO
Static polarizability (Dipole/Dipole)   ...  NO
Static polarizability (Dipole/Quad.)    ...  NO
Static polarizability (Quad./Quad.)     ...  NO
Static polarizability (Velocity)        ...  NO

Atomic electric properties:
Dipole moment                           ...  NO
Quadrupole moment                       ...  NO
Static polarizability                   ...  NO

Choice of electric origin               ... Center of mass
Position of electric origin             ...     0.000001    -0.000005    -0.000002

General magnetic properties:
Magnetizability                         ...  NO

EPR properties:
g-Tensor (aka g-matrix)                 ...  NO
Zero-Field splitting spin-orbit         ...  NO
Zero-field splitting spin-spin          ...  NO
Hyperfine couplings                     ...  NO (   0 nuclei)
Quadrupole couplings                    ...  NO (   0 nuclei)
Contact density                         ...  NO (   0 nuclei)

NMR properties:
Chemical shifts                         ...  NO (   0 nuclei)
Spin-rotation constants                 ...  NO (   0 nuclei)
Spin-spin couplings                     ...  NO (   0 nuclei,    0 pairs)

Choice of magnetic origin               ... GIAO
Position of magnetic origin             ...     0.000000     0.000000     0.000000

Properties with geometric perturbations:
SCF Hessian                             ...  NO
IR spectrum                             ...  NO
VCD spectrum                            ...  NO
X-ray spectroscopy properties:
SCF XES/XAS/RIXS spectra                ...  NO


-------------
DIPOLE MOMENT
-------------

Method             : SCF
Type of density    : Electron Density
Multiplicity       :   1
Irrep              :   0
Energy             : -1979.1362488729314464 Eh
Relativity type    : 
Basis              : AO
                                X                 Y                 Z
Electronic contribution:     -8.404147842       0.456356052       0.422403784
Nuclear contribution   :      8.820664018       0.107327355      -1.760761179
                        -----------------------------------------
Total Dipole Moment    :      0.416516176       0.563683407      -1.338357396
                        -----------------------------------------
Magnitude (a.u.)       :      1.510769747
Magnitude (Debye)      :      3.840071521



--------------------
Rotational spectrum 
--------------------
 
Rotational constants in cm-1:             0.011234             0.009302             0.006414 
Rotational constants in MHz :           336.790134           278.876869           192.292805 

Dipole components along the rotational axes: 
x,y,z [a.u.] :     0.772952    -0.040489    -1.297432 
x,y,z [Debye]:     1.964688    -0.102914    -3.297811 

 

Dipole moment calculation done in   2.4 sec 

Maximum memory used throughout the entire PROP-calculation: 23.9 MB

--------------------------------
SUGGESTED CITATIONS FOR THIS RUN
--------------------------------

Below you find a list of papers that are relevant to this ORCA run
We neither can nor want to force you to cite these papers, but we appreciate if you do
You receive ORCA, which is the product of decades of hard work by many enthusiastic individuals, for free
The only thing we kindly ask in return is that you cite our papers,
We deeply appreciate it, if you show your appreciation for ORCA by not just citing the generic ORCA reference.

Please note that relegating all ORCA citations to the supporting information does *not* help us.
SI sections are not indexed - citations you put there will not count into any citation statistics
But we need these citations in order to attract the funding resources that allow us to do what we are doing

Therefore, if you are a happy ORCA user, please consider citing a few of the papers listed below in the main body of your paper

In addition to the list printed below, the program has created the file sp.bibtex that contains the list in bibtex format
You can import this file easily into all common literature databanks and citation aid programs


List of essential papers. We consider these as the minimum necessary citations

  1. Neese,F.
     Software update: the ORCA program system, version 5.0
     WIRES Comput. Molec. Sci., 2022 12(1)e1606
     doi.org/10.1002/wcms.1606

List of papers to cite with high priority. The work reported in these papers was absolutely
necessary for this run to complete.
Our perspective: the developers of density functionals and basis sets usually get cited in chemistry papers
Good! But without the algorithms to do something with them, the functionals or basis sets would not do anything.
Hence, in our opinion, the algorithm design and method developments papers are equally worthy of getting cited

  1. Neese,F.
     An improvement of the resolution of the identity approximation for the formation of the Coulomb matrix
     J. Comp. Chem., 2003 24(14)1740-1747
     doi.org/10.1002/jcc.10318
  2. Neese,F.
     The SHARK Integral Generation and Digestion System
     J. Comp. Chem., 2022  1-16
     doi.org/10.1002/jcc.26942
  3. Caldeweyher,E.; Bannwarth,C.; Grimme,S.
     Extension of the D3 dispersion coefficient model
     J. Chem. Phys., 2017 147 034112
     doi.org/10.1063/1.4993215
  4. Caldeweyher,E.; Ehlert,S.; Hansen,A.; Neugebauer,H.; Spicher,S.; Bannwarth,C.; Grimme,S.
     A generally applicable atomic-charge dependent London dispersion correction
     J. Chem. Phys., 2019 150 154122
     doi.org/10.1063/1.5090222
  5. Caldeweyher,E.; Mewes,J.; Ehlert,S.; Grimme,S.
     Extension and evaluation of the D4 London-dispersion model for periodic systems
     Phys. Chem. Chem. Phys., 2020 22(16)8499-8512
     doi.org/10.1039/D0CP00502A
  6. Wittmann,L.; Gordiy,I.; Friede,M.; Helmich-Paris,B.; Grimme,S.; Hansen,A.; Bursch,M.
     Extension of the D3 and D4 London Dispersion Corrections to the full Actinides Series
     Phys. Chem. Chem. Phys., 2024 26(32)21379-21394
     doi.org/https://doi.org/10.1039/D4CP01514B 

List of suggested additional citations. These are papers that are important in the 'surrounding' of 
of this run, or papers that preceded the highly important papers. If you like your results we are grateful for a citation.

  1. Neese,F.
     The ORCA program system
     WIRES Comput. Molec. Sci., 2012 2(1)73-78
     doi.org/10.1002/wcms.81
  2. Neese,F.
     Software update: the ORCA program system, version 4.0
     WIRES Comput. Molec. Sci., 2018 8(1)1-6
     doi.org/10.1002/wcms.1327
  3. Neese,F.; Wennmohs,F.; Becker,U.; Riplinger,C.
     The ORCA quantum chemistry program package
     J. Chem. Phys., 2020 152 Art. No. L224108
     doi.org/10.1063/5.0004608

List of optional additional citations

  1. Neese,F.
     Approximate second-order SCF convergence for spin unrestricted wavefunctions
     Chem. Phys. Lett., 2000 325(1-3)93-98
     doi.org/10.1016/s0009-2614(00)00662-x

Timings for individual modules:

Sum of individual times          ...       25.315 sec (=   0.422 min)
Startup calculation              ...        1.212 sec (=   0.020 min)   4.8 %
SCF iterations                   ...       21.612 sec (=   0.360 min)  85.4 %
Property calculations            ...        2.491 sec (=   0.042 min)   9.8 %
                             ****ORCA TERMINATED NORMALLY****
TOTAL RUN TIME: 0 days 0 hours 0 minutes 35 seconds 435 msec
