41
 energy: -2932.485137483137 gnorm: 0.001853525224 xtb: 6.7.1 (edcfbbe)
C            5.00802723487885       -1.47187908563640       -1.09615124441592
C            4.89901843549538       -0.16773042744796       -0.34696870415024
O            3.61005390234208       -0.03378297004890        0.34724046255392
P            2.24641928090552        0.38060797261376       -0.40261291613958
S            2.41413642408562        1.50006118319402       -1.98804735270009
O            1.39397872604829        0.97831463623597        0.82131793415151
C            1.60781700509635        2.37029629869144        1.24938182565468
C            0.81773197375915        2.56903330313677        2.51693764052402
S            1.33567037872616       -1.51137041584057       -0.66455840684343
C           -0.05589556532327       -1.10287938738057       -1.81533398861566
S           -1.69451592711517       -1.64744858267025       -1.20709935411724
P           -2.29918883362554        0.03799680465800       -0.05287527486954
S           -2.04103564283696        1.76841276354605       -0.89721825632405
O           -1.56340825016357       -0.02784343151216        1.36605833313736
C           -1.65678854468993       -1.20161320569656        2.24980352608341
C           -0.53182949261767       -1.09905597116958        3.24703917796522
O           -3.79289739514746       -0.41773790528720        0.32981753302683
C           -4.89485424856282       -0.34247557890032       -0.64331769165795
C           -6.18255587885633       -0.29995830333116        0.13663656083337
H            4.82720334273932       -2.32270367768605       -0.43283905198669
H            4.30671828779193       -1.51603639437890       -1.93418680901302
H            6.02317915260755       -1.55782355188772       -1.49761744028138
H            5.02474315165136        0.69589372477443       -1.00663609938840
H            5.62981653630514       -0.10751852741016        0.46190471376692
H            2.67987134607791        2.52646393618721        1.41146207797089
H            1.26343968841115        3.02736452471220        0.44488259063019
H            1.16516828412337        1.89637164761569        3.30607650791427
H            0.95365431787831        3.60057900892681        2.85604322498432
H           -0.24894715999710        2.40029176982491        2.34409120954090
H            0.11234644024856       -1.64768504171915       -2.74662455523148
H           -0.06926102109849       -0.02867054565706       -2.02814824587651
H           -2.63724952647380       -1.17478096837315        2.73314612110891
H           -1.57607435175729       -2.10838380781991        1.64171112382073
H           -0.60404756594466       -0.17244924690540        3.82370349214543
H           -0.59762918522182       -1.94262403314705        3.94085801357719
H            0.43977378300259       -1.13448195884854        2.74574143047717
H           -4.75979676917153        0.55642677548026       -1.25267156114428
H           -4.83602895082970       -1.22800026006500       -1.28292757611795
H           -6.22139030177760        0.58439892040489        0.77805182587059
H           -7.01866770661190       -0.25339313604542       -0.56762308230472
H           -6.30022008064857       -1.19589319601937        0.75163131542015
41
 energy: -2932.485147311756 gnorm: 0.001471080430 xtb: 6.7.1 (edcfbbe)
C            5.00730771428138       -1.47194828415222       -1.09566703775581
C            4.89878745030646       -0.16772230819821       -0.34636930022554
O            3.60897047443870       -0.03512315848026        0.34653254132675
P            2.24649638999012        0.38047611215722       -0.40501519081036
S            2.41381833311496        1.50388933311747       -1.98717877304054
O            1.39337628629212        0.97804434159706        0.81872915653870
C            1.60695205594898        2.37045211748473        1.24860309820089
C            0.81790955251008        2.57013987580195        2.51638827341099
S            1.33457828268709       -1.50923785672575       -0.66501509569217
C           -0.05943590839487       -1.10571020578519       -1.81455901931865
S           -1.70036969223094       -1.64602442337272       -1.20769875912497
P           -2.29715080537131        0.04004027408143       -0.05114108417751
S           -2.03624058271948        1.76789697693311       -0.90123201573464
O           -1.56283068494806       -0.02695069585387        1.36848580656725
C           -1.65578696067738       -1.20349596158004        2.24979731143136
C           -0.53241122600975       -1.09956511102238        3.24800496589977
O           -3.79168343880495       -0.41428829569267        0.33050748670691
C           -4.89332192703489       -0.34015829739141       -0.64369757123085
C           -6.18052041595970       -0.30054796757945        0.13693385641112
H            4.82632248153428       -2.32317446571537       -0.43290643476196
H            4.30665870574117       -1.51609882191577       -1.93429293261646
H            6.02278148340150       -1.55733543954346       -1.49625418716415
H            5.02339354526519        0.69647206677846       -1.00543038466271
H            5.62850085500593       -0.10706468180088        0.46358256793890
H            2.67874683931350        2.52619989915385        1.41059417632260
H            1.26215833527063        3.02765534337928        0.44475405601806
H            1.16504393136257        1.89620708925129        3.30458769248780
H            0.95430510613747        3.60120810711791        2.85723672090871
H           -0.24886120245765        2.40217989193466        2.34359045873449
H            0.10932838341354       -1.65256149609153       -2.74500738688144
H           -0.07016692187143       -0.03180562253433       -2.02981050460606
H           -2.63760285919191       -1.17836995770932        2.73056389883305
H           -1.57197276573038       -2.10877836757824        1.63958620869374
H           -0.60853188762806       -0.17483004419435        3.82672876216654
H           -0.59684471274390       -1.94543359811321        3.93943284244426
H            0.44036933338315       -1.13200652187505        2.74915982827484
H           -4.76006795467154        0.55991924719720       -1.25174413627520
H           -4.83241786455538       -1.22505703785521       -1.28441818381381
H           -6.22128645491839        0.58467316634310        0.77779239550013
H           -7.01717514369812       -0.25717272536237       -0.56731023755215
H           -6.29464716226649       -1.19671788557813        0.75330197605729
41
 energy: -2932.485160969722 gnorm: 0.001103813881 xtb: 6.7.1 (edcfbbe)
C            5.00652542968575       -1.47198556785760       -1.09526582584578
C            4.89623860104579       -0.16803414121602       -0.34579869350033
O            3.60539694516873       -0.03679113880913        0.34610967209322
P            2.24337700667289        0.38015162133960       -0.40591163681542
S            2.41237134988999        1.50318749737731       -1.98809604775441
O            1.39112585169656        0.97920466806093        0.81801540825563
C            1.60603120878795        2.37207080594899        1.24781468575683
C            0.81793654022703        2.57134751635436        2.51606380748444
S            1.33561274610984       -1.51160534885172       -0.66723308387328
C           -0.05855538116771       -1.10818669264040       -1.81661709612498
S           -1.69751229451294       -1.64629584954948       -1.20312075322053
P           -2.29561790539788        0.04202622368505       -0.05066716144188
S           -2.03173753006317        1.76994546280714       -0.89970423716276
O           -1.56209224053087       -0.02577228922605        1.36919238328989
C           -1.65396416911549       -1.20521125705135        2.24859142656909
C           -0.53356156061349       -1.10021049065709        3.24937745598206
O           -3.79107275265298       -0.40882215039171        0.33183598782539
C           -4.89215150663209       -0.33636558246900       -0.64347026942992
C           -6.17909917015517       -0.30122782982451        0.13738405674462
H            4.82526657837525       -2.32348323952173       -0.43295038914080
H            4.30682520564169       -1.51622345499692       -1.93467510299022
H            6.02249789296894       -1.55673302427953       -1.49469227376033
H            5.02052283541740        0.69654436415677       -1.00436310511216
H            5.62507936242382       -0.10684377326814        0.46499006520319
H            2.67789373403534        2.52665686470794        1.40892655048471
H            1.26063271048139        3.02887741054721        0.44415288852037
H            1.16461412664228        1.89602531682055        3.30332505820975
H            0.95560566043589        3.60183840754598        2.85834229939891
H           -0.24913141181138        2.40480673187852        2.34368062694317
H            0.10742264346929       -1.65871131867395       -2.74562375636809
H           -0.06941328133728       -0.03470386762462       -2.03470795529137
H           -2.63723507819156       -1.18309862826242        2.72648959596668
H           -1.56627591024119       -2.10868688081220        1.63613277499294
H           -0.61473492862253       -0.17798245842960        3.83114495481941
H           -0.59627692873136       -1.94901372200414        3.93766995627382
H            0.44065016231475       -1.12808774448102        2.75326421793127
H           -4.76071717711273        0.56496849444236       -1.25006297178901
H           -4.82827035679335       -1.22035219806300       -1.28542646638216
H           -6.22283143572564        0.58479742457238        0.77733012643132
H           -7.01642824050636       -0.26243541139535       -0.56652749671881
H           -6.28847724280515       -1.19733651585812        0.75531907023205
41
 energy: -2932.485170211806 gnorm: 0.001500156440 xtb: 6.7.1 (edcfbbe)
C            5.00654042148079       -1.47169825217249       -1.09427746316784
C            4.89394061292459       -0.16823854724965       -0.34450908229072
O            3.60291201927812       -0.03746153578941        0.34750010693715
P            2.24118348692627        0.38055187751220       -0.40479236463987
S            2.41019962735005        1.49844222962267       -1.99114692476372
O            1.38892347249243        0.98036491877912        0.81885925622370
C            1.60466694863583        2.37406329681060        1.24660235881221
C            0.81760980062820        2.57202027429304        2.51566344564783
S            1.33304615656984       -1.51135630400303       -0.66973100287964
C           -0.06189842455570       -1.11157024837840       -1.81919944041181
S           -1.70042598175824       -1.64731448297299       -1.20306544997433
P           -2.29180263083709        0.04430781213969       -0.05086178671538
S           -2.02655394306194        1.77207844693562       -0.89841417296696
O           -1.55942904472019       -0.02411012375795        1.36945485703762
C           -1.65016508315888       -1.20705487417852        2.24620397402829
C           -0.53541681959099       -1.10115154689452        3.25276286471878
O           -3.78861569130630       -0.40087891291852        0.33327790805293
C           -4.88952046175457       -0.33007628980031       -0.64249025426445
C           -6.17690543240519       -0.30274866002475        0.13785921194072
H            4.82444778032098       -2.32322284390785       -0.43225922865957
H            4.30772946325869       -1.51582344203836       -1.93441422444693
H            6.02296490341653       -1.55642604057954       -1.49265961955068
H            5.01827622136971        0.69623301635819       -1.00317051658969
H            5.62250491568299       -0.10662577035671        0.46637488361071
H            2.67693185717135        2.52794474465380        1.40590051702142
H            1.25823074006486        3.02990893621717        0.44254725119535
H            1.16378621638635        1.89544838632256        3.30209051901624
H            0.95780964746666        3.60188418817393        2.85862745228930
H           -0.25003116562452        2.40791041811432        2.34433039121723
H            0.10264153896139       -1.66740217299936       -2.74516352086134
H           -0.07226454201599       -0.03931962292129       -2.04316592014099
H           -2.63555024873268       -1.19096290072333        2.71980368106607
H           -1.55608833121119       -2.10761729492040        1.63066384774411
H           -0.62448200560198       -0.18290945352520        3.83983123941334
H           -0.59585399051341       -1.95442366577313        3.93588318319655
H            0.44092791734961       -1.12041668007822        2.76017507520801
H           -4.76090480927369        0.57347642968652       -1.24639274424483
H           -4.82165348959086       -1.21181788269984       -1.28694355168535
H           -6.22648426883821        0.58359968918376        0.77660592306385
H           -7.01513196390827       -0.27099097410666       -0.56509679530838
H           -6.27964525406340       -1.19842303529148        0.75716540610971
41
 energy: -2932.485177678423 gnorm: 0.001512270186 xtb: 6.7.1 (edcfbbe)
C            5.00599605197711       -1.47155222839160       -1.09346377960899
C            4.89153101237491       -0.16811203132887       -0.34409194450948
O            3.59964515593359       -0.03826276306366        0.34643629881693
P            2.23838253781635        0.37998843701064       -0.40681001634204
S            2.41097653349054        1.49978215236269       -1.99165824806205
O            1.38657742172658        0.97962584492517        0.81706662652153
C            1.60325232482976        2.37343373068673        1.24459752292886
C            0.81773205123754        2.57205692672299        2.51460583753781
S            1.32972120633533       -1.51338154558013       -0.66637706579131
C           -0.06163225941642       -1.11427453569597       -1.82028614020904
S           -1.70266504530819       -1.64241680191343       -1.20462414719777
P           -2.29061701318041        0.04761298244604       -0.04921409589838
S           -2.02163656913629        1.77246430211565       -0.90120444646562
O           -1.55737831045856       -0.02317243387966        1.37060531725581
C           -1.64664660726470       -1.20918145056288        2.24386947371221
C           -0.53713508856727       -1.10153574228941        3.25620812679640
O           -3.78828591000722       -0.39363892773640        0.33605503679640
C           -4.88794886387984       -0.32413012559081       -0.64071832223143
C           -6.17614248785012       -0.30463908543984        0.13862979721928
H            4.82320700708094       -2.32302630892765       -0.43154023468575
H            4.30844366757275       -1.51603943338629       -1.93462502688898
H            6.02307849406645       -1.55597123751228       -1.49030453566926
H            5.01631513389376        0.69622373587504       -1.00283599697924
H            5.61928925367774       -0.10607519631160        0.46739345600542
H            2.67588764759198        2.52761156185773        1.40257135774606
H            1.25621098780136        3.02956391201762        0.44081064854113
H            1.16348686662579        1.89450090400023        3.30031389188339
H            0.96052865324629        3.60143256278390        2.85786467106660
H           -0.25045438854161        2.41037298316094        2.34441080906199
H            0.10220430634603       -1.67483807506729       -2.74332291951487
H           -0.06953124895407       -0.04328545858522       -2.04973771957220
H           -2.63413983526197       -1.19936193512736        2.71316392112369
H           -1.54562760457863       -2.10695668609776        1.62569016724020
H           -0.63440254519719       -0.18722317321429        3.84850986947145
H           -0.59544572798701       -1.95895160185258        3.93417250165962
H            0.44148282474135       -1.11134427314360        2.76736698245337
H           -4.76192461238694        0.58198663308961       -1.24138193244334
H           -4.81622979038912       -1.20314625216585       -1.28819944420592
H           -6.23216270521957        0.58142662810398        0.77676077189624
H           -7.01434256120935       -0.27909789254970       -0.56424287098084
H           -6.27316566333957       -1.20031631189038        0.75810830045250
41
 energy: -2932.485184692460 gnorm: 0.000908753499 xtb: 6.7.1 (edcfbbe)
C            5.00536664630342       -1.47162943238159       -1.09270893264664
C            4.89154838860953       -0.16768918327249       -0.34391944775303
O            3.59966612457573       -0.03830953958424        0.34588554314419
P            2.23812466949976        0.37865914669066       -0.40753003922544
S            2.41007425841906        1.49854568521367       -1.99157085448578
O            1.38659941442527        0.97864231253813        0.81604810906355
C            1.60307564594169        2.37210927706866        1.24371978769083
C            0.81847670710837        2.57256190765380        2.51406077524258
S            1.32829395851168       -1.51367493470224       -0.66589405827382
C           -0.06350826568707       -1.11621521647556       -1.81943349311090
S           -1.70505289545646       -1.64264516002389       -1.20284417316680
P           -2.29011388056209        0.04994988063248       -0.04973241713116
S           -2.02082574079142        1.77652188970692       -0.89926439283501
O           -1.55569173646081       -0.02368481405635        1.36956011007123
C           -1.64457832437839       -1.21047492854751        2.24088230110621
C           -0.53837861358010       -1.10042167371058        3.25712976533328
O           -3.78770863070314       -0.39072478238385        0.33641960384986
C           -4.88724877248585       -0.32067410089505       -0.63990385438862
C           -6.17574970424153       -0.30641059444064        0.13930571327596
H            4.82249734089220       -2.32308303141753       -0.43074369137505
H            4.30845144185509       -1.51662369487115       -1.93441002380721
H            6.02271585966081       -1.55581955392141       -1.48882064226619
H            5.01593216482561        0.69664075469720       -1.00279280911702
H            5.61900724620589       -0.10523838707334        0.46784379224696
H            2.67569041955545        2.52711886099784        1.40140342795260
H            1.25584205192449        3.02851662503148        0.44018399433045
H            1.16410031507934        1.89455644452443        3.29939420811782
H            0.96214472754655        3.60181653011312        2.85736244756817
H           -0.24980580964798        2.41147393653790        2.34415803666740
H            0.10040826324507       -1.67805884541426       -2.74169888302442
H           -0.06937904393331       -0.04559394515848       -2.05041926033057
H           -2.63372747914954       -1.20430693576885        2.70685434931023
H           -1.53812048558632       -2.10741075729843        1.62247534063451
H           -0.64179575100844       -0.18850654353244        3.85207145059449
H           -0.59546239841787       -1.96008023694229        3.93209249902298
H            0.44212690434725       -1.10415988585942        2.77209033729710
H           -4.76351821687088        0.58771207733511       -1.23766878289564
H           -4.81396177749103       -1.19741309892349       -1.29030181755943
H           -6.23593660787431        0.57883419580845        0.77825162949430
H           -7.01326425515489       -0.28343387039593       -0.56447418952812
H           -6.26988708146838       -1.20324032832965        0.75756146121977
41
 energy: -2932.485189268878 gnorm: 0.000746076399 xtb: 6.7.1 (edcfbbe)
C            5.00521005132063       -1.47218673400265       -1.09212955276292
C            4.89127857226031       -0.16797173245487       -0.34373117032784
O            3.59974979398510       -0.03844971890927        0.34598661782628
P            2.23774911750348        0.37752831029970       -0.40698686076610
S            2.40735202371822        1.49407742792321       -1.99336795453793
O            1.38701477771394        0.97890384489802        0.81620670523658
C            1.60385764644423        2.37173060046745        1.24320781408552
C            0.81965578269666        2.57297961954981        2.51374647941742
S            1.32875848798898       -1.51448580250059       -0.66670307882227
C           -0.06361512993237       -1.11688822209242       -1.81954547819288
S           -1.70736484661544       -1.64029762030198       -1.20563733926619
P           -2.29039489659984        0.05103223919802       -0.04935165046185
S           -2.02067184332372        1.77745312947230       -0.89870407683711
O           -1.55455819080893       -0.02417654649046        1.36935141914712
C           -1.64223129034543       -1.21146045812908        2.23844744870855
C           -0.54006064166171       -1.09803183218023        3.25894979261870
O           -3.78817680886960       -0.38875917840158        0.33722150869898
C           -4.88757821349513       -0.31706473714230       -0.63873810764576
C           -6.17645384841132       -0.30890663312056        0.14003233560944
H            4.82223358249022       -2.32335874535764       -0.42984690121961
H            4.30850146470679       -1.51752107839347       -1.93399034344066
H            6.02265847879145       -1.55645928739483       -1.48791362568889
H            5.01542600386663        0.69626665565010       -1.00284204498818
H            5.61887673204717       -0.10502859630644        0.46797637749653
H            2.67646124370344        2.52652053217540        1.40066327497612
H            1.25662832623610        3.02798706106959        0.43963532620109
H            1.16514103706802        1.89487484154936        3.29909651445317
H            0.96383019394658        3.60224108706684        2.85677877881729
H           -0.24869673538708        2.41206024974326        2.34413317369371
H            0.09999142528761       -1.67916151047311       -2.74171072744988
H           -0.06782018865616       -0.04632703442976       -2.05069451174508
H           -2.63329079635208       -1.21015710598731        2.70050950394331
H           -1.52900417023239       -2.10763838235100        1.61987408956652
H           -0.65098487803596       -0.18851091824159        3.85592187069445
H           -0.59483304568033       -1.96020347709240        3.93083549848661
H            0.44214172963545       -1.09514101677302        2.77775337927084
H           -4.76634104002934        0.59409443350742       -1.23285353936337
H           -4.81275290982198       -1.19105677012450       -1.29291129147341
H           -6.24031337176831        0.57475083154459        0.78110081942378
H           -7.01306973528684       -0.28720299456615       -0.56506932221943
H           -6.26788883162089       -1.20794229025385        0.75599226049951
41
 energy: -2932.485189268878 gnorm: 0.000746076399 xtb: 6.7.1 (edcfbbe)
C            5.00521005132063       -1.47218673400265       -1.09212955276292
C            4.89127857226031       -0.16797173245487       -0.34373117032784
O            3.59974979398510       -0.03844971890927        0.34598661782628
P            2.23774911750348        0.37752831029970       -0.40698686076610
S            2.40735202371822        1.49407742792321       -1.99336795453793
O            1.38701477771394        0.97890384489802        0.81620670523658
C            1.60385764644423        2.37173060046745        1.24320781408552
C            0.81965578269666        2.57297961954981        2.51374647941742
S            1.32875848798898       -1.51448580250059       -0.66670307882227
C           -0.06361512993237       -1.11688822209242       -1.81954547819288
S           -1.70736484661544       -1.64029762030198       -1.20563733926619
P           -2.29039489659984        0.05103223919802       -0.04935165046185
S           -2.02067184332372        1.77745312947230       -0.89870407683711
O           -1.55455819080893       -0.02417654649046        1.36935141914712
C           -1.64223129034543       -1.21146045812908        2.23844744870855
C           -0.54006064166171       -1.09803183218023        3.25894979261870
O           -3.78817680886960       -0.38875917840158        0.33722150869898
C           -4.88757821349513       -0.31706473714230       -0.63873810764576
C           -6.17645384841132       -0.30890663312056        0.14003233560944
H            4.82223358249022       -2.32335874535764       -0.42984690121961
H            4.30850146470679       -1.51752107839347       -1.93399034344066
H            6.02265847879145       -1.55645928739483       -1.48791362568889
H            5.01542600386663        0.69626665565010       -1.00284204498818
H            5.61887673204717       -0.10502859630644        0.46797637749653
H            2.67646124370344        2.52652053217540        1.40066327497612
H            1.25662832623610        3.02798706106959        0.43963532620109
H            1.16514103706802        1.89487484154936        3.29909651445317
H            0.96383019394658        3.60224108706684        2.85677877881729
H           -0.24869673538708        2.41206024974326        2.34413317369371
H            0.09999142528761       -1.67916151047311       -2.74171072744988
H           -0.06782018865616       -0.04632703442976       -2.05069451174508
H           -2.63329079635208       -1.21015710598731        2.70050950394331
H           -1.52900417023239       -2.10763838235100        1.61987408956652
H           -0.65098487803596       -0.18851091824159        3.85592187069445
H           -0.59483304568033       -1.96020347709240        3.93083549848661
H            0.44214172963545       -1.09514101677302        2.77775337927084
H           -4.76634104002934        0.59409443350742       -1.23285353936337
H           -4.81275290982198       -1.19105677012450       -1.29291129147341
H           -6.24031337176831        0.57475083154459        0.78110081942378
H           -7.01306973528684       -0.28720299456615       -0.56506932221943
H           -6.26788883162089       -1.20794229025385        0.75599226049951
