
                                 *****************
                                 * O   R   C   A *
                                 *****************

                                            #,                                       
                                            ###                                      
                                            ####                                     
                                            #####                                    
                                            ######                                   
                                           ########,                                 
                                     ,,################,,,,,                         
                               ,,#################################,,                 
                          ,,##########################################,,             
                       ,#########################################, ''#####,          
                    ,#############################################,,   '####,        
                  ,##################################################,,,,####,       
                ,###########''''           ''''###############################       
              ,#####''   ,,,,##########,,,,          '''####'''          '####       
            ,##' ,,,,###########################,,,                        '##       
           ' ,,###''''                  '''############,,,                           
         ,,##''                                '''############,,,,        ,,,,,,###''
      ,#''                                            '''#######################'''  
     '                                                          ''''####''''         
             ,#######,   #######,   ,#######,      ##                                
            ,#'     '#,  ##    ##  ,#'     '#,    #''#        ,####,   ,####,        
            ##       ##  ##   ,#'  ##            #'  '#       #'       #'  '#        
            ##       ##  #######   ##           ,######,      #####,   #    #        
            '#,     ,#'  ##    ##  '#,     ,#' ,#      #,     #,   #   #,  ,#        
             '#######'   ##     ##  '#######'  #'      '#     '####' # '####'        



                #########################################################
                #                        -***-                          #
                #          Department of theory and spectroscopy        #
                #                                                       #
                #                      Frank Neese                      #
                #                                                       #
                #     Directorship, Architecture, Infrastructure        #
                #                    SHARK, DRIVERS                     #
                #        Core code/Algorithms in most modules           #
                #                                                       #
                #        Max Planck Institute fuer Kohlenforschung      #
                #                Kaiser Wilhelm Platz 1                 #
                #                 D-45470 Muelheim/Ruhr                 #
                #                      Germany                          #
                #                                                       #
                #                  All rights reserved                  #
                #                        -***-                          #
                #########################################################


                         Program Version 6.0.1  -  RELEASE   -


 With contributions from (in alphabetic order):
[Max-Planck-Institut fuer Kohlenforschung]                               
  Daniel Aravena         : Magnetic Suceptibility                        
  Michael Atanasov       : Ab Initio Ligand Field Theory (pilot matlab implementation)
  Alexander A. Auer      : GIAO ZORA, VPT2 properties, NMR spectrum      
  Ute Becker             : All parallelization in ORCA, NUMFREQ, NUMCALC 
  Giovanni Bistoni       : ED, misc. LED, open-shell LED, HFLD           
  Martin Brehm           : Molecular dynamics                            
  Dmytro Bykov           : pre 5.0 version of the SCF Hessian            
  Marcos Casanova-Páez   : Triplet and SCS-CIS(D). UHF-(DLPNO)-IP/EA/STEOM-CCSD. UHF-CVS-IP/STEOM-CCSD   
  Vijay G. Chilkuri      : MRCI spin determinant printing, contributions to CSF-ICE 
  Pauline Colinet        : FMM embedding                                 
  Dipayan Datta          : RHF DLPNO-CCSD density                        
  Achintya Kumar Dutta   : EOM-CC, STEOM-CC                              
  Nicolas Foglia         : Exact transition moments, OPA infrastructure, MCD improvements    
  Dmitry Ganyushin       : Spin-Orbit,Spin-Spin,Magnetic field MRCI      
  Miquel Garcia-Rates    : C-PCM and meta-GGA Hessian, CCSD/C-PCM, Gaussian charge scheme 
  Tiago L. C. Gouveia    : GS-ROHF, GS-ROCIS                             
  Yang Guo               : DLPNO-NEVPT2, F12-NEVPT2, CIM, IAO-localization        
  Andreas Hansen         : Spin unrestricted coupled pair/coupled cluster methods 
  Ingolf Harden          : AUTO-CI MPn and infrastructure                
  Benjamin Helmich-Paris : MC-RPA, TRAH-(SCF,CASSCF), AVAS, COSX integrals, SCF dyn. polar. 
  Lee Huntington         : MR-EOM, pCC                                   
  Robert Izsak           : Overlap fitted RIJCOSX, COSX-SCS-MP3, EOM     
  Riya Kayal             : Wick's Theorem for AUTO-CI, AUTO-CI UHF-CCSDT 
  Emily Kempfer          : AUTO-CI, RHF CISDT and CCSDT                  
  Christian Kollmar      : KDIIS, OOCD, Brueckner-CCSD(T), CCSD density, CASPT2, CASPT2-K, improved NEVPT2 
  Axel Koslowski         : Symmetry handling                             
  Simone Kossmann        : meta-GGA functionals, TD-DFT gradient, OOMP2, (MP2 Hessian; deprecated post 5.0) 
  Lucas Lang             : DCDCAS                                        
  Marvin Lechner         : AUTO-CI (C++ implementation), FIC-MRCC        
  Spencer Leger          : CASSCF response                               
  Dagmar Lenk            : GEPOL surface, SMD, ORCA-2-JSON               
  Dimitrios Liakos       : Extrapolation schemes; Compound Job, initial MDCI parallelization 
  Dimitrios Manganas     : Further ROCIS development; embedding schemes. LFT, Crystal Embedding 
  Dimitrios Pantazis     : SARC Basis sets                               
  Anastasios Papadopoulos: AUTO-CI, single reference methods and gradients 
  Taras Petrenko         : pre 6.0 DFT Hessian and TD-DFT gradient, (ASA, deprecated), ECA, 1-Electron XAS/XES, NRVS 
  Peter Pinski           : DLPNO-MP2, DLPNO-MP2 Gradient                 
  Christoph Reimann      : Effective Core Potentials                     
  Marius Retegan         : Local ZFS, SOC                                
  Christoph Riplinger    : Optimizer, TS searches, QM/MM, DLPNO-CCSD(T), (RO)-DLPNO pert. Triples 
  Michael Roemelt        : Original ROCIS implementation                 
  Masaaki Saitow         : Open-shell DLPNO-CCSD energy and density      
  Barbara Sandhoefer     : DKH picture change effects                    
  Kantharuban Sivalingam : CASSCF convergence/infrastructure, NEVPT2 and variants, FIC-MRCI 
  Bernardo de Souza      : ESD, SOC TD-DFT                               
  Georgi L. Stoychev     : AutoAux, RI-MP2 NMR, DLPNO-MP2 response, X2C  
  Van Anh Tran           : RI-MP2 g-tensors                              
  Willem Van den Heuvel  : Paramagnetic NMR                              
  Zikuan Wang            : NOTCH, Electric field optimization            
  Frank Wennmohs         : Technical directorship and infrastructure     
  Hang Xu                : AUTO-CI-Response properties                   
                                                                         
[FACCTs GmbH]                                                            
  Markus Bursch, Miquel Garcia-Rates, Christoph Riplinger, Bernardo de Souza, Georgi L. Stoychev 
                                                                 
  APM, Basis sets (HGBS, AHGBS, def-TZVP (Ac-Lr), def2-XVPD (La-Lu)), CI-OPT, improved COSX, DLPNO-Multilevel,           
  DOCKER, DRACO, updates on ESD, GOAT, IRC, LR-CPCM, MBIS, meta-GGA TD-DFT gradient, ML-optimized integration grids, 
  MM, NACMEs, nearIR, NEB, NEB-TS, NL-DFT gradient (VV10), 2- and 3-layer-ONIOM, interface openCOSMO-RS, QMMM,   
  Crystal-QMMM, SF, symmetry and pop. for TD-DFT, r2SCAN hybrids, SOLVATOR                                   
                                                                         
[Other institutions]                                                     
  V. Asgeirsson          : NEB                                           
  Christoph Bannwarth    : sTDA-DFT, sTD-DFT, PBEh-3c, B97-3c, D3        
  Sebastian Ehlert       : rSCAN, r2SCAN, r2SCAN-3c, D4, dhf basis sets  
  Marvin Friede          : D4 for Fr, Ra, Ac-Lr                          
  Lars Goerigk           : TD-DFT with DH, B97 family of functionals     
  Stefan Grimme          : VdW corrections, initial TS optimization, DFT functionals, gCP, sTDA/sTD-DF 
  Waldemar Hujo          : DFT-NL                                        
  H. Jonsson             : NEB                                           
  Holger Kruse           : gCP                                           
  Marcel Mueller         : wB97X-3c, vDZP basis set                      
  Hagen Neugebauer       : wr2SCAN                                       
  Tobias Risthaus        : range-separated hybrid DFT                    
  Lukas Wittmann         : regularized MP2, r2SCAN double-hybrids, wr2SCAN        
                                                                         
We gratefully acknowledge several colleagues who have allowed us to      
interface, adapt or use parts of their codes:                            
  Ed Valeev, F. Pavosevic, A. Kumar             : LibInt (2-el integral package), F12 methods 
  Garnet Chan, S. Sharma, J. Yang, R. Olivares  : DMRG                   
  Ulf Ekstrom                                   : XCFun DFT Library      
  Mihaly Kallay                                 : mrcc  (arbitrary order and MRCC methods)
  Frank Weinhold                                : gennbo (NPA and NBO analysis)           
  Simon Mueller                                 : openCOSMO-RS                            
  Christopher J. Cramer and Donald G. Truhlar   : smd solvation model                     
  S Lehtola, MJT Oliveira, MAL Marques          : LibXC Library                           
  Liviu Ungur et al                             : ANISO software                          


 Your calculation uses the libint2 library for the computation of 2-el integrals
 For citations please refer to: http://libint.valeyev.net

 Your ORCA version has been built with support for libXC version: 6.2.2
 For citations please refer to: https://libxc.gitlab.io

 This ORCA versions uses:
   CBLAS   interface :  Fast vector & matrix operations
   LAPACKE interface :  Fast linear algebra routines
   SCALAPACK package :  Parallel linear algebra routines
   Shared memory     :  Shared parallel matrices
   BLAS/LAPACK       :  OpenBLAS 0.3.27  USE64BITINT DYNAMIC_ARCH NO_AFFINITY Zen SINGLE_THREADED
        Core in use  :  Zen
   Copyright (c) 2011-2014, The OpenBLAS Project


Your calculation utilizes the geometrical counterpoise correction gCP
Please cite in your paper:
H.Kruse, S. Grimme J.Chem.Phys., 136, (2012), 154101 
   

Your calculation utilizes the atom-pairwise dispersion correction
based on EEQ partial charges (D4)


================================================================================

----- Orbital basis set information -----
Your calculation utilizes the basis: def2-SV(P)
   F. Weigend and R. Ahlrichs, Phys. Chem. Chem. Phys. 7, 3297 (2005).

----- AuxJ basis set information -----
Your calculation utilizes the auxiliary basis: def2/J
   F. Weigend, Phys. Chem. Chem. Phys. 8, 1057 (2006).

================================================================================
                                        WARNINGS
                       Please study these warnings very carefully!
================================================================================

WARNING: Old DensityContainer found on disk!
         Will remove this file - 
         If you want to keep old densities, please start your calculation with a different basename. 


================================================================================
                                       INPUT FILE
================================================================================
NAME = sp.inp
|  1> ! pbe def2-sv(p) def2/J RI DEFGRID1 loosescf d4 GCP(DFT/SV(P)) printgap
|  2> %output
|  3>     printlevel normal
|  4> end
|  5> * xyz 0 1
|  6> C 3.9121017267 -3.7342382837 0.5520161405
|  7> C 2.8830325815 -2.6645847868 0.8581613267
|  8> O 2.8749938398 -1.7300354884 -0.2415049455
|  9> C 1.8706431816 -0.9021592167 -0.3507625253
| 10> O 0.9449819669 -0.8556898183 0.4464560033
| 11> C 1.9605524749 -0.0157984636 -1.5640350207
| 12> C 0.7858665539 0.9458208179 -1.6117724936
| 13> H 0.8010144585 1.5373460518 -2.5307179268
| 14> C 0.7394799176 1.8973903367 -0.4268333187
| 15> O 1.5823281603 1.9197174364 0.442670526
| 16> O -0.3017029756 2.6949327683 -0.5026755145
| 17> C -0.488761002 3.6914163571 0.5194910117
| 18> C 0.1985971869 4.9902690647 0.1305498446
| 19> S -0.821996058 0.0709878551 -1.7481044829
| 20> P -1.4467080204 -0.5304977073 0.201892601
| 21> S -1.4087380779 -2.4259805395 0.7336532223
| 22> O -1.0978942714 0.5952162213 1.2712745218
| 23> C -0.4391177732 0.3390389914 2.5118517564
| 24> O -2.9880045732 -0.0727074967 0.0572851908
| 25> C -3.8799588289 -0.7468481965 -0.8289201569
| 26> H 3.9494268089 -4.4383706083 1.3763170485
| 27> H 3.642251447 -4.2633403829 -0.3568838295
| 28> H 4.8897958281 -3.2810706724 0.4201927375
| 29> H 3.1321702313 -2.1119677254 1.7689736133
| 30> H 1.8762805554 -3.0809145947 0.968938261
| 31> H 1.973611593 -0.6419010023 -2.4574395917
| 32> H 2.9013569006 0.535884137 -1.5119395674
| 33> H -1.5703118076 3.8119006168 0.5872445652
| 34> H -0.093890964 3.3036691322 1.4623166644
| 35> H -0.16378464 5.3294163153 -0.8357398156
| 36> H -0.0173245182 5.7449657035 0.8794295577
| 37> H 1.2748765604 4.8434490992 0.076703921
| 38> H -1.0105976964 0.8585594415 3.2782826027
| 39> H 0.5791803114 0.7255823779 2.4536321265
| 40> H -0.4134446272 -0.7325562936 2.7167660731
| 41> H -4.8695550123 -0.3595109134 -0.6003207127
| 42> H -3.841251755 -1.8237751989 -0.6510110297
| 43> H -3.6137704766 -0.534521742 -1.8655800479
| 44> *
| 45> 
| 46>                          ****END OF INPUT****
================================================================================

                       ****************************
                       * Single Point Calculation *
                       ****************************

---------------------------------
CARTESIAN COORDINATES (ANGSTROEM)
---------------------------------
  C      3.912102   -3.734238    0.552016
  C      2.883033   -2.664585    0.858161
  O      2.874994   -1.730035   -0.241505
  C      1.870643   -0.902159   -0.350763
  O      0.944982   -0.855690    0.446456
  C      1.960552   -0.015798   -1.564035
  C      0.785867    0.945821   -1.611772
  H      0.801014    1.537346   -2.530718
  C      0.739480    1.897390   -0.426833
  O      1.582328    1.919717    0.442671
  O     -0.301703    2.694933   -0.502676
  C     -0.488761    3.691416    0.519491
  C      0.198597    4.990269    0.130550
  S     -0.821996    0.070988   -1.748104
  P     -1.446708   -0.530498    0.201893
  S     -1.408738   -2.425981    0.733653
  O     -1.097894    0.595216    1.271275
  C     -0.439118    0.339039    2.511852
  O     -2.988005   -0.072707    0.057285
  C     -3.879959   -0.746848   -0.828920
  H      3.949427   -4.438371    1.376317
  H      3.642251   -4.263340   -0.356884
  H      4.889796   -3.281071    0.420193
  H      3.132170   -2.111968    1.768974
  H      1.876281   -3.080915    0.968938
  H      1.973612   -0.641901   -2.457440
  H      2.901357    0.535884   -1.511940
  H     -1.570312    3.811901    0.587245
  H     -0.093891    3.303669    1.462317
  H     -0.163785    5.329416   -0.835740
  H     -0.017325    5.744966    0.879430
  H      1.274877    4.843449    0.076704
  H     -1.010598    0.858559    3.278283
  H      0.579180    0.725582    2.453632
  H     -0.413445   -0.732556    2.716766
  H     -4.869555   -0.359511   -0.600321
  H     -3.841252   -1.823775   -0.651011
  H     -3.613770   -0.534522   -1.865580

----------------------------
CARTESIAN COORDINATES (A.U.)
----------------------------
  NO LB      ZA    FRAG     MASS         X           Y           Z
   0 C     6.0000    0    12.011    7.392801   -7.056688    1.043159
   1 C     6.0000    0    12.011    5.448142   -5.035336    1.621690
   2 O     8.0000    0    15.999    5.432951   -3.269293   -0.456378
   3 C     6.0000    0    12.011    3.535003   -1.704834   -0.662845
   4 O     8.0000    0    15.999    1.785757   -1.617019    0.843680
   5 C     6.0000    0    12.011    3.704907   -0.029855   -2.955598
   6 C     6.0000    0    12.011    1.485073    1.787342   -3.045809
   7 H     1.0000    0     1.008    1.513698    2.905163   -4.782364
   8 C     6.0000    0    12.011    1.397415    3.585548   -0.806598
   9 O     8.0000    0    15.999    2.990167    3.627740    0.836526
  10 O     8.0000    0    15.999   -0.570136    5.092685   -0.949919
  11 C     6.0000    0    12.011   -0.923624    6.975766    0.981696
  12 C     6.0000    0    12.011    0.375294    9.430242    0.246703
  13 S    16.0000    0    32.060   -1.553347    0.134148   -3.303439
  14 P    15.0000    0    30.974   -2.733882   -1.002495    0.381522
  15 S    16.0000    0    32.060   -2.662129   -4.584439    1.386404
  16 O     8.0000    0    15.999   -2.074719    1.124796    2.402361
  17 C     6.0000    0    12.011   -0.829812    0.640691    4.746712
  18 O     8.0000    0    15.999   -5.646510   -0.137397    0.108253
  19 C     6.0000    0    12.011   -7.332060   -1.411339   -1.566432
  20 H     1.0000    0     1.008    7.463335   -8.387305    2.600862
  21 H     1.0000    0     1.008    6.882858   -8.056546   -0.674413
  22 H     1.0000    0     1.008    9.240375   -6.200325    0.794049
  23 H     1.0000    0     1.008    5.918944   -3.991041    3.342876
  24 H     1.0000    0     1.008    3.545656   -5.822085    1.831028
  25 H     1.0000    0     1.008    3.729585   -1.213017   -4.643888
  26 H     1.0000    0     1.008    5.482770    1.012674   -2.857152
  27 H     1.0000    0     1.008   -2.967459    7.203448    1.109731
  28 H     1.0000    0     1.008   -0.177428    6.243030    2.763378
  29 H     1.0000    0     1.008   -0.309508   10.071137   -1.579319
  30 H     1.0000    0     1.008   -0.032739   10.856412    1.661881
  31 H     1.0000    0     1.008    2.409168    9.152792    0.144949
  32 H     1.0000    0     1.008   -1.909753    1.622442    6.195056
  33 H     1.0000    0     1.008    1.094492    1.371152    4.636693
  34 H     1.0000    0     1.008   -0.781297   -1.384331    5.133944
  35 H     1.0000    0     1.008   -9.202125   -0.679377   -1.134442
  36 H     1.0000    0     1.008   -7.258914   -3.446436   -1.230233
  37 H     1.0000    0     1.008   -6.829037   -1.010100   -3.525435

--------------------------------
INTERNAL COORDINATES (ANGSTROEM)
--------------------------------
 C      0   0   0     0.000000000000     0.00000000     0.00000000
 C      1   0   0     1.515541746065     0.00000000     0.00000000
 O      2   1   0     1.443160740431   107.87295578     0.00000000
 C      3   2   1     1.306153354172   118.58555673   164.60082596
 O      4   3   2     1.222524221327   123.48803643     1.56407598
 C      4   3   2     1.505240583346   113.24872343   181.99987347
 C      6   4   3     1.518840848103   110.60688752   181.54039891
 H      7   6   4     1.092974048435   110.99948823   184.56083488
 C      7   6   4     1.520433200555   113.28756485    62.22816583
 O      9   7   6     1.211168277141   123.35333449     2.58176390
 O      9   7   6     1.313730484521   111.04693650   180.89006333
 C     11   9   7     1.439720339258   118.82714479   181.65051409
 C     12  11   9     1.520116728200   110.54760595    90.41122231
 S      7   6   4     1.835522079097   112.21367473   297.95132189
 P     14   7   6     2.134136486957   108.83718857    83.26009294
 S     15  14   7     1.969026724568   120.82579596   251.60981581
 O     15  14   7     1.591376942484   110.51626594    38.65421860
 C     17  15  14     1.427811305008   123.92303964   228.61261742
 O     15  14   7     1.614335232744    96.75982944   135.45417205
 C     19  15  14     1.426677257014   121.23538840    68.41101526
 H      1   2   3     1.084743047564   109.14774847   178.88021521
 H      1   2   3     1.085756584276   110.13787564   298.71733803
 H      1   2   3     1.085644531798   109.96295844    58.86030425
 H      2   1   3     1.094090584239   111.71777148   241.48558865
 H      2   1   3     1.095057843301   112.10814704   119.46025438
 H      6   4   3     1.091030089876   108.83389700    60.22328500
 H      6   4   3     1.091870228313   108.09140575   302.46905571
 H     12  11   9     1.090348176475   104.44659052   210.71706071
 H     12  11   9     1.093247670346   108.65550091   328.21884623
 H     13  12  11     1.086304355817   110.09104214    55.92751274
 H     13  12  11     1.084900928215   109.13361309   175.88290472
 H     13  12  11     1.087581158158   110.16937041   295.48412533
 H     18  17  15     1.088074925202   106.50051217   227.50459604
 H     18  17  15     1.090750339928   108.71022336   107.81291963
 H     18  17  15     1.091313631569   110.49817829   347.45587691
 H     20  19  15     1.087008961770   105.67384787   170.23091453
 H     20  19  15     1.092209532832   110.03385639    50.98671127
 H     20  19  15     1.091147328177   110.22341037   289.80793654

---------------------------
INTERNAL COORDINATES (A.U.)
---------------------------
 C      0   0   0     0.000000000000     0.00000000     0.00000000
 C      1   0   0     2.863958844588     0.00000000     0.00000000
 O      2   1   0     2.727178566642   107.87295578     0.00000000
 C      3   2   1     2.468272128287   118.58555673   164.60082596
 O      4   3   2     2.310235970393   123.48803643     1.56407598
 C      4   3   2     2.844492468188   113.24872343   181.99987347
 C      6   4   3     2.870193243928   110.60688752   181.54039891
 H      7   6   4     2.065421623026   110.99948823   184.56083488
 C      7   6   4     2.873202353970   113.28756485    62.22816583
 O      9   7   6     2.288776345889   123.35333449     2.58176390
 O      9   7   6     2.482590829527   111.04693650   180.89006333
 C     11   9   7     2.720677150633   118.82714479   181.65051409
 C     12  11   9     2.872604307890   110.54760595    90.41122231
 S      7   6   4     3.468634042260   112.21367473   297.95132189
 P     14   7   6     4.032933492757   108.83718857    83.26009294
 S     15  14   7     3.720921259806   120.82579596   251.60981581
 O     15  14   7     3.007266597132   110.51626594    38.65421860
 C     17  15  14     2.698172337381   123.92303964   228.61261742
 O     15  14   7     3.050651478226    96.75982944   135.45417205
 C     19  15  14     2.696029297250   121.23538840    68.41101526
 H      1   2   3     2.049867285570   109.14774847   178.88021521
 H      1   2   3     2.051782592383   110.13787564   298.71733803
 H      1   2   3     2.051570843887   109.96295844    58.86030425
 H      2   1   3     2.067531569913   111.71777148   241.48558865
 H      2   1   3     2.069359424642   112.10814704   119.46025438
 H      6   4   3     2.061748073734   108.83389700    60.22328500
 H      6   4   3     2.063335705293   108.09140575   302.46905571
 H     12  11   9     2.060459444157   104.44659052   210.71706071
 H     12  11   9     2.065938693501   108.65550091   328.21884623
 H     13  12  11     2.052817730579   110.09104214    55.92751274
 H     13  12  11     2.050165636764   109.13361309   175.88290472
 H     13  12  11     2.055230537331   110.16937041   295.48412533
 H     18  17  15     2.056163621818   106.50051217   227.50459604
 H     18  17  15     2.061219422945   108.71022336   107.81291963
 H     18  17  15     2.062283889881   110.49817829   347.45587691
 H     20  19  15     2.054149242863   105.67384787   170.23091453
 H     20  19  15     2.063976897911   110.03385639    50.98671127
 H     20  19  15     2.061969622015   110.22341037   289.80793654

---------------------
BASIS SET INFORMATION
---------------------
There are 5 groups of distinct atoms

 Group   1 Type C   : 7s4p1d contracted to 3s2p1d pattern {511/31/1}
 Group   2 Type O   : 7s4p1d contracted to 3s2p1d pattern {511/31/1}
 Group   3 Type H   : 4s contracted to 2s pattern {31}
 Group   4 Type S   : 10s7p1d contracted to 4s3p1d pattern {5311/511/1}
 Group   5 Type P   : 10s7p1d contracted to 4s3p1d pattern {5311/511/1}

Atom   0C    basis set group =>   1
Atom   1C    basis set group =>   1
Atom   2O    basis set group =>   2
Atom   3C    basis set group =>   1
Atom   4O    basis set group =>   2
Atom   5C    basis set group =>   1
Atom   6C    basis set group =>   1
Atom   7H    basis set group =>   3
Atom   8C    basis set group =>   1
Atom   9O    basis set group =>   2
Atom  10O    basis set group =>   2
Atom  11C    basis set group =>   1
Atom  12C    basis set group =>   1
Atom  13S    basis set group =>   4
Atom  14P    basis set group =>   5
Atom  15S    basis set group =>   4
Atom  16O    basis set group =>   2
Atom  17C    basis set group =>   1
Atom  18O    basis set group =>   2
Atom  19C    basis set group =>   1
Atom  20H    basis set group =>   3
Atom  21H    basis set group =>   3
Atom  22H    basis set group =>   3
Atom  23H    basis set group =>   3
Atom  24H    basis set group =>   3
Atom  25H    basis set group =>   3
Atom  26H    basis set group =>   3
Atom  27H    basis set group =>   3
Atom  28H    basis set group =>   3
Atom  29H    basis set group =>   3
Atom  30H    basis set group =>   3
Atom  31H    basis set group =>   3
Atom  32H    basis set group =>   3
Atom  33H    basis set group =>   3
Atom  34H    basis set group =>   3
Atom  35H    basis set group =>   3
Atom  36H    basis set group =>   3
Atom  37H    basis set group =>   3
---------------------------------
AUXILIARY/J BASIS SET INFORMATION
---------------------------------
There are 5 groups of distinct atoms

 Group   1 Type C   : 12s5p4d2f1g contracted to 6s4p3d1f1g pattern {711111/2111/211/2/1}
 Group   2 Type O   : 12s5p4d2f1g contracted to 6s4p3d1f1g pattern {711111/2111/211/2/1}
 Group   3 Type H   : 5s2p1d contracted to 3s1p1d pattern {311/2/1}
 Group   4 Type S   : 14s5p5d2f1g contracted to 8s4p3d1f1g pattern {71111111/2111/311/2/1}
 Group   5 Type P   : 14s5p5d2f1g contracted to 8s4p3d1f1g pattern {71111111/2111/311/2/1}

Atom   0C    basis set group =>   1
Atom   1C    basis set group =>   1
Atom   2O    basis set group =>   2
Atom   3C    basis set group =>   1
Atom   4O    basis set group =>   2
Atom   5C    basis set group =>   1
Atom   6C    basis set group =>   1
Atom   7H    basis set group =>   3
Atom   8C    basis set group =>   1
Atom   9O    basis set group =>   2
Atom  10O    basis set group =>   2
Atom  11C    basis set group =>   1
Atom  12C    basis set group =>   1
Atom  13S    basis set group =>   4
Atom  14P    basis set group =>   5
Atom  15S    basis set group =>   4
Atom  16O    basis set group =>   2
Atom  17C    basis set group =>   1
Atom  18O    basis set group =>   2
Atom  19C    basis set group =>   1
Atom  20H    basis set group =>   3
Atom  21H    basis set group =>   3
Atom  22H    basis set group =>   3
Atom  23H    basis set group =>   3
Atom  24H    basis set group =>   3
Atom  25H    basis set group =>   3
Atom  26H    basis set group =>   3
Atom  27H    basis set group =>   3
Atom  28H    basis set group =>   3
Atom  29H    basis set group =>   3
Atom  30H    basis set group =>   3
Atom  31H    basis set group =>   3
Atom  32H    basis set group =>   3
Atom  33H    basis set group =>   3
Atom  34H    basis set group =>   3
Atom  35H    basis set group =>   3
Atom  36H    basis set group =>   3
Atom  37H    basis set group =>   3

Checking for AutoStart:
The File: sp.gbw exists
Trying to determine its content:
     ... Fine, the file contains calculation information
     ... Fine, the calculation information was read
     ... Fine, the file contains a basis set
     ... Fine, the basis set was read
     ... Fine, the file contains a geometry
     ... Fine, the geometry was read
     ... Fine, the file contains a set of orbitals
     ... Fine, the orbitals can be read
     => possible old guess file was deleted
     => GBW file was renamed to GES file
     => GES file is set as startup file
     => Guess is set to MORead
     ... now leaving AutoStart

------------------------------------------------------------------------------
                             ORCA STARTUP CALCULATIONS
                           -- RI-GTO INTEGRALS CHOSEN --
------------------------------------------------------------------------------
------------------------------------------------------------------------------
                   ___                                                        
                  /   \      - P O W E R E D   B Y -                         
                 /     \                                                     
                 |  |  |   _    _      __       _____    __    __             
                 |  |  |  | |  | |    /  \     |  _  \  |  |  /  |          
                  \  \/   | |  | |   /    \    | | | |  |  | /  /          
                 / \  \   | |__| |  /  /\  \   | |_| |  |  |/  /          
                |  |  |   |  __  | /  /__\  \  |    /   |      \           
                |  |  |   | |  | | |   __   |  |    \   |  |\   \          
                \     /   | |  | | |  |  |  |  | |\  \  |  | \   \       
                 \___/    |_|  |_| |__|  |__|  |_| \__\ |__|  \__/        
                                                                              
                      - O R C A' S   B I G   F R I E N D -                    
                                      &                                       
                       - I N T E G R A L  F E E D E R -                       
                                                                              
 v1 FN, 2020, v2 2021, v3 2022-2024                                           
------------------------------------------------------------------------------


----------------------
SHARK INTEGRAL PACKAGE
----------------------

Number of atoms                             ...     38
Number of basis functions                   ...    316
Number of shells                            ...    158
Maximum angular momentum                    ...      2
Integral batch strategy                     ... SHARK/LIBINT Hybrid
RI-J (if used) integral strategy            ... SPLIT-RIJ (Revised 2003 algorithm where possible)
Printlevel                                  ...      1
Contraction scheme used                     ... SEGMENTED contraction
Prescreening option                         ... SCHWARTZ
   Thresh                                   ... 1.000e-09
   Tcut                                     ... 1.000e-10
   Tpresel                                  ... 1.000e-10 
Coulomb Range Separation                    ... NOT USED
Exchange Range Separation                   ... NOT USED
Multipole approximations                    ... NOT USED
Finite Nucleus Model                        ... NOT USED
CABS basis                                  ... NOT available
Auxiliary Coulomb fitting basis             ... AVAILABLE
   # of basis functions in Aux-J            ...   1146
   # of shells in Aux-J                     ...    386
   Maximum angular momentum in Aux-J        ...      4
Auxiliary J/K fitting basis                 ... NOT available
Auxiliary Correlation fitting basis         ... NOT available
Auxiliary 'external' fitting basis          ... NOT available

Checking pre-screening integrals            ... done (  0.0 sec) Dimension = 158
Check shell pair data                       ... done (  0.0 sec)
Shell pair information
Shell pair cut-off parameter TPreSel        ...   1.0e-10
Total number of shell pairs                 ...     12561
Shell pairs after pre-screening             ...      9498
Total number of primitive shell pairs       ...     52337
Primitive shell pairs kept                  ...     23528
          la=0 lb=0:   3552 shell pairs
          la=1 lb=0:   3214 shell pairs
          la=1 lb=1:    751 shell pairs
          la=2 lb=0:   1267 shell pairs
          la=2 lb=1:    595 shell pairs
          la=2 lb=2:    119 shell pairs

Calculating one electron integrals          ... done (  0.1 sec)
Calculating RI/J V-Matrix + Cholesky decomp.... done (  0.1 sec)
Calculating Nuclear repulsion               ... done (  0.0 sec) ENN=   2227.872381006347 Eh

Diagonalization of the overlap matrix:
Smallest eigenvalue                        ... 1.240e-03
Time for diagonalization                   ...    0.009 sec
Threshold for overlap eigenvalues          ... 1.000e-07
Number of eigenvalues below threshold      ... 0
Time for construction of square roots      ...    0.006 sec
Total time needed                          ...    0.017 sec

-------------------
DFT GRID GENERATION
-------------------

General Integration Accuracy     IntAcc      ... 4.159
Radial Grid Type                 RadialGrid  ... OptM3 with GC (2021)
Angular Grid (max. ang.)         AngularGrid ... 3 (Lebedev-194)
Angular grid pruning method      GridPruning ... 4 (adaptive)
Weight generation scheme         WeightScheme... mBecke (2022)
Basis function cutoff            BFCut       ... 1.0000e-10
Integration weight cutoff        WCut        ... 1.0000e-14
Partially contracted basis set               ... off
Rotationally invariant grid construction     ... off
Angular grids for H and He will be reduced by one unit

Total number of grid points                  ...    90851
Total number of batches                      ...     1438
Average number of points per batch           ...       63
Average number of grid points per atom       ...     2391
Initializing property integral containers    ... done (  0.0 sec)

SHARK setup successfully completed in   1.2 seconds

Maximum memory used throughout the entire STARTUP-calculation: 49.9 MB
-------------------------------------------------------------------------------
                                 ORCA GUESS
                   Start orbitals & Density for SCF / CASSCF
-------------------------------------------------------------------------------

------------
SCF SETTINGS
------------
Hamiltonian:
 Density Functional     Method          .... DFT(GTOs)
 Exchange Functional    Exchange        .... PBE
   PBE kappa parameter   XKappa         ....  0.804000
   PBE mue parameter    XMuePBE         ....  0.219520
 Correlation Functional Correlation     .... PBE
   PBE beta parameter  CBetaPBE         ....  0.066725
 LDA part of GGA corr.  LDAOpt          .... PW91-LDA
 Gradients option       PostSCFGGA      .... off
   NL short-range parameter             ....  6.400000
 RI-approximation to the Coulomb term is turned on
   Number of AuxJ basis functions       .... 1146


General Settings:
 Integral files         IntName         .... sp
 Hartree-Fock type      HFTyp           .... RHF
 Total Charge           Charge          ....    0
 Multiplicity           Mult            ....    1
 Number of Electrons    NEL             ....  174
 Basis Dimension        Dim             ....  316
 Nuclear Repulsion      ENuc            ....   2227.8723810063 Eh

Convergence Acceleration:
 AO-DIIS                CNVDIIS         .... on
   Start iteration      DIISMaxIt       ....    12
   Startup error        DIISStart       ....  0.200000
   # of expansion vecs  DIISMaxEq       ....     5
   Bias factor          DIISBfac        ....   1.050
   Max. coefficient     DIISMaxC        ....  10.000
 MO-DIIS                CNVKDIIS        .... off
 Trust-Rad. Augm. Hess. CNVTRAH         .... auto
   Auto Start mean grad. ratio tolernc. ....  1.125000
   Auto Start start iteration           ....     1
   Auto Start num. interpolation iter.  ....    10
   Max. Number of Micro iterations      ....    24
   Max. Number of Macro iterations      .... Maxiter - #DIIS iter
   Number of Davidson start vectors     ....     2
   Converg. threshold    (grad. norm)   ....   1.000e-04
   Grad. Scal. Fac. for Micro threshold ....   0.100
   Minimum threshold for Micro iter.    ....   1.000e-02
   NR start threshold (gradient norm)   ....   1.000e-04
   Initial trust radius                 ....   0.400
   Minimum AH scaling param. (alpha)    ....   1.000
   Maximum AH scaling param. (alpha)    .... 1000.000
   Quad. conv. algorithm                .... NR
   White noise on init. David. guess    .... on
   Maximum white noise                  ....   0.010
   Pseudo random numbers                .... off
   Inactive MOs                         .... canonical
   Orbital update algorithm             .... Taylor
   Preconditioner                       .... Diag
   Full preconditioner red. dimension   ....   250
 SOSCF                  CNVSOSCF        .... on
   Start iteration      SOSCFMaxIt      ....   150
   Startup grad/error   SOSCFStart      ....  0.003300
   Hessian update       SOSCFHessUp     .... L-BFGS
 Level Shifting         CNVShift        .... on
   Level shift para.    LevelShift      ....    0.2500
   Turn off err/grad.   ShiftErr        ....    0.0010
 Zerner damping         CNVZerner       .... off
 Static damping         CNVDamp         .... on
   Fraction old density DampFac         ....    0.7000
   Max. Damping (<1)    DampMax         ....    0.9800
   Min. Damping (>=0)   DampMin         ....    0.0000
   Turn off err/grad.   DampErr         ....    0.1000

SCF Procedure:
 Maximum # iterations   MaxIter         ....   125
 SCF integral mode      SCFMode         .... Direct
   Integral package                     .... SHARK and LIBINT hybrid scheme
 Reset frequency        DirectResetFreq ....    20
 Integral Threshold     Thresh          ....  1.000e-09 Eh
 Primitive CutOff       TCut            ....  1.000e-10 Eh

Convergence Tolerance:
 Convergence Check Mode ConvCheckMode   .... Total+1el-Energy
 Convergence forced     ConvForced      .... 0
 Energy Change          TolE            ....  1.000e-05 Eh
 1-El. energy change                    ....  1.000e-02 Eh
 Orbital Gradient       TolG            ....  1.000e-04
 Orbital Rotation angle TolX            ....  1.000e-04
 DIIS Error             TolErr          ....  5.000e-04

---------------------
INITIAL GUESS: MOREAD
---------------------
Guess MOs are being read from file: sp.ges
Input Geometry matches current geometry (good)
Input basis set matches current basis set (good)
Occupation numbers will be reassigned to an Aufbau configuration
MOs were renormalized
MOs were reorthogonalized (Cholesky)
                      ------------------
                      INITIAL GUESS DONE (   0.0 sec)
                      ------------------
             **** ENERGY FILE WAS UPDATED (sp.en.tmp) ****
Finished Guess after   0.1 sec
Maximum memory used throughout the entire GUESS-calculation: 25.5 MB

-------------------------------------------------------------------------------------------
                                      ORCA LEAN-SCF
                              memory conserving SCF solver
-------------------------------------------------------------------------------------------

----------------------------------------D-I-I-S--------------------------------------------
Iteration    Energy (Eh)           Delta-E    RMSDP     MaxDP     DIISErr   Damp  Time(sec)
-------------------------------------------------------------------------------------------
               ***  Starting incremental Fock matrix formation  ***
                              *** Initializing SOSCF ***
---------------------------------------S-O-S-C-F--------------------------------------
Iteration    Energy (Eh)           Delta-E    RMSDP     MaxDP     MaxGrad    Time(sec)
--------------------------------------------------------------------------------------
    1    -1979.1351621097105635     0.00e+00  1.29e-05  5.15e-04  6.86e-05     2.0
               *** Restarting incremental Fock matrix formation ***
    2    -1979.1351619959073105     1.14e-07  2.41e-05  1.16e-03  1.63e-04     1.9
    3    -1979.1351564387628059     5.56e-06  1.82e-05  8.55e-04  6.03e-04     1.4
                 **** Energy Check signals convergence ****

               *****************************************************
               *                     SUCCESS                       *
               *           SCF CONVERGED AFTER   3 CYCLES          *
               *****************************************************

             **** ENERGY FILE WAS UPDATED (sp.en.tmp) ****

----------------
TOTAL SCF ENERGY
----------------

Total Energy       :      -1979.13515643876281 Eh          -53855.00554 eV

Components:
Nuclear Repulsion  :       2227.87238100634704 Eh           60623.48953 eV
Electronic Energy  :      -4207.00753744510985 Eh         -114478.49507 eV
One Electron Energy:      -7160.40010833661654 Eh         -194844.39265 eV
Two Electron Energy:       2953.39257089150669 Eh           80365.89758 eV

Virial components:
Potential Energy   :      -3949.29765125435324 Eh         -107465.85255 eV
Kinetic Energy     :       1970.16249481559043 Eh           53610.84701 eV
Virial Ratio       :          2.00455427491224

DFT components:
N(Alpha)           :       87.000349473231 electrons
N(Beta)            :       87.000349473231 electrons
N(Total)           :      174.000698946461 electrons
E(X)               :     -180.017660440179 Eh       
E(C)               :       -6.131219058545 Eh       
E(XC)              :     -186.148879498724 Eh       

---------------
SCF CONVERGENCE
---------------

  Last Energy change         ...   -5.5571e-06  Tolerance :   1.0000e-05
  Last MAX-Density change    ...    8.5470e-04  Tolerance :   1.0000e-03
  Last RMS-Density change    ...    1.8216e-05  Tolerance :   1.0000e-04
  Last DIIS Error            ...    3.2248e-04  Tolerance :   5.0000e-04
  Last Orbital Gradient      ...    6.0290e-04  Tolerance :   1.0000e-04
  Last Orbital Rotation      ...    6.8610e-04  Tolerance :   1.0000e-04


----------------
ORBITAL ENERGIES
----------------

  NO   OCC          E(Eh)            E(eV) 
   0   2.0000     -88.030695     -2395.4370 
   1   2.0000     -87.962957     -2393.5937 
   2   2.0000     -76.415164     -2079.3623 
   3   2.0000     -18.813600      -511.9441 
   4   2.0000     -18.806287      -511.7451 
   5   2.0000     -18.781310      -511.0654 
   6   2.0000     -18.762999      -510.5672 
   7   2.0000     -18.755362      -510.3594 
   8   2.0000     -18.744464      -510.0628 
   9   2.0000     -10.022846      -272.7355 
  10   2.0000     -10.021114      -272.6884 
  11   2.0000      -9.954084      -270.8644 
  12   2.0000      -9.950935      -270.7787 
  13   2.0000      -9.948484      -270.7120 
  14   2.0000      -9.927928      -270.1526 
  15   2.0000      -9.925838      -270.0958 
  16   2.0000      -9.919643      -269.9272 
  17   2.0000      -9.891287      -269.1556 
  18   2.0000      -9.889885      -269.1175 
  19   2.0000      -7.675608      -208.8639 
  20   2.0000      -7.608310      -207.0326 
  21   2.0000      -6.410593      -174.4411 
  22   2.0000      -5.704222      -155.2198 
  23   2.0000      -5.699983      -155.1044 
  24   2.0000      -5.691958      -154.8860 
  25   2.0000      -5.637503      -153.4043 
  26   2.0000      -5.629270      -153.1802 
  27   2.0000      -5.627795      -153.1401 
  28   2.0000      -4.633292      -126.0783 
  29   2.0000      -4.632871      -126.0668 
  30   2.0000      -4.630884      -126.0128 
  31   2.0000      -1.024603       -27.8809 
  32   2.0000      -1.016046       -27.6480 
  33   2.0000      -0.968230       -26.3469 
  34   2.0000      -0.931312       -25.3423 
  35   2.0000      -0.922202       -25.0944 
  36   2.0000      -0.920833       -25.0571 
  37   2.0000      -0.765526       -20.8310 
  38   2.0000      -0.720932       -19.6176 
  39   2.0000      -0.703148       -19.1336 
  40   2.0000      -0.686860       -18.6904 
  41   2.0000      -0.655244       -17.8301 
  42   2.0000      -0.621850       -16.9214 
  43   2.0000      -0.613128       -16.6841 
  44   2.0000      -0.605048       -16.4642 
  45   2.0000      -0.597669       -16.2634 
  46   2.0000      -0.562485       -15.3060 
  47   2.0000      -0.516660       -14.0590 
  48   2.0000      -0.507541       -13.8109 
  49   2.0000      -0.497550       -13.5390 
  50   2.0000      -0.485567       -13.2129 
  51   2.0000      -0.466284       -12.6882 
  52   2.0000      -0.460076       -12.5193 
  53   2.0000      -0.452606       -12.3160 
  54   2.0000      -0.438118       -11.9218 
  55   2.0000      -0.430932       -11.7263 
  56   2.0000      -0.427921       -11.6443 
  57   2.0000      -0.414208       -11.2712 
  58   2.0000      -0.407745       -11.0953 
  59   2.0000      -0.406171       -11.0525 
  60   2.0000      -0.394353       -10.7309 
  61   2.0000      -0.391717       -10.6591 
  62   2.0000      -0.388268       -10.5653 
  63   2.0000      -0.382936       -10.4202 
  64   2.0000      -0.377105       -10.2615 
  65   2.0000      -0.363826        -9.9002 
  66   2.0000      -0.361257        -9.8303 
  67   2.0000      -0.358458        -9.7541 
  68   2.0000      -0.353152        -9.6097 
  69   2.0000      -0.344187        -9.3658 
  70   2.0000      -0.331373        -9.0171 
  71   2.0000      -0.329211        -8.9583 
  72   2.0000      -0.322293        -8.7701 
  73   2.0000      -0.311132        -8.4663 
  74   2.0000      -0.306026        -8.3274 
  75   2.0000      -0.295474        -8.0403 
  76   2.0000      -0.288089        -7.8393 
  77   2.0000      -0.279449        -7.6042 
  78   2.0000      -0.268517        -7.3067 
  79   2.0000      -0.264307        -7.1922 
  80   2.0000      -0.256531        -6.9806 
  81   2.0000      -0.243671        -6.6306 
  82   2.0000      -0.239688        -6.5222 
  83   2.0000      -0.228754        -6.2247 
  84   2.0000      -0.211021        -5.7422 
  85   2.0000      -0.184011        -5.0072 
  86   2.0000      -0.171786        -4.6745 
  87   0.0000      -0.047430        -1.2906 
  88   0.0000      -0.042923        -1.1680 
  89   0.0000      -0.019793        -0.5386 
  90   0.0000      -0.006320        -0.1720 
  91   0.0000       0.036581         0.9954 
  92   0.0000       0.046570         1.2672 
  93   0.0000       0.052033         1.4159 
  94   0.0000       0.054773         1.4904 
  95   0.0000       0.060300         1.6409 
  96   0.0000       0.069548         1.8925 
  97   0.0000       0.073800         2.0082 
*Only the first 10 virtual orbitals were printed.

                    ********************************
                    * MULLIKEN POPULATION ANALYSIS *
                    ********************************

-----------------------
MULLIKEN ATOMIC CHARGES
-----------------------
   0 C :   -0.276456
   1 C :   -0.041699
   2 O :   -0.221975
   3 C :    0.155035
   4 O :   -0.217027
   5 C :   -0.046234
   6 C :   -0.305118
   7 H :    0.148738
   8 C :    0.197781
   9 O :   -0.198160
  10 O :   -0.217031
  11 C :   -0.012907
  12 C :   -0.300674
  13 S :   -0.105401
  14 P :    0.628814
  15 S :   -0.336527
  16 O :   -0.380023
  17 C :   -0.101789
  18 O :   -0.378826
  19 C :   -0.107084
  20 H :    0.115510
  21 H :    0.118648
  22 H :    0.114576
  23 H :    0.107741
  24 H :    0.132518
  25 H :    0.125299
  26 H :    0.128193
  27 H :    0.112061
  28 H :    0.112998
  29 H :    0.115076
  30 H :    0.114124
  31 H :    0.120144
  32 H :    0.113764
  33 H :    0.128633
  34 H :    0.120109
  35 H :    0.117983
  36 H :    0.110461
  37 H :    0.108727
Sum of atomic charges:    0.0000000

--------------------------------
MULLIKEN REDUCED ORBITAL CHARGES
--------------------------------
  0 C s       :     3.085426  s :     3.085426
      pz      :     1.069076  p :     3.163233
      px      :     1.051138
      py      :     1.043019
      dz2     :     0.005246  d :     0.027797
      dxz     :     0.001851
      dyz     :     0.008899
      dx2y2   :     0.005773
      dxy     :     0.006028

  1 C s       :     3.095744  s :     3.095744
      pz      :     0.865144  p :     2.887677
      px      :     1.095664
      py      :     0.926869
      dz2     :     0.012669  d :     0.058278
      dxz     :     0.006014
      dyz     :     0.019456
      dx2y2   :     0.010622
      dxy     :     0.009516

  2 O s       :     3.728630  s :     3.728630
      pz      :     1.532898  p :     4.476727
      px      :     1.534741
      py      :     1.409088
      dz2     :     0.003360  d :     0.016619
      dxz     :     0.002583
      dyz     :     0.002986
      dx2y2   :     0.003352
      dxy     :     0.004337

  3 C s       :     3.057102  s :     3.057102
      pz      :     0.955368  p :     2.656156
      px      :     0.821592
      py      :     0.879196
      dz2     :     0.028156  d :     0.131708
      dxz     :     0.024932
      dyz     :     0.019239
      dx2y2   :     0.026698
      dxy     :     0.032683

  4 O s       :     3.766910  s :     3.766910
      pz      :     1.468750  p :     4.433508
      px      :     1.372151
      py      :     1.592607
      dz2     :     0.003613  d :     0.016609
      dxz     :     0.005428
      dyz     :     0.002176
      dx2y2   :     0.002837
      dxy     :     0.002555

  5 C s       :     2.930100  s :     2.930100
      pz      :     1.053936  p :     3.083653
      px      :     1.008179
      py      :     1.021537
      dz2     :     0.006651  d :     0.032482
      dxz     :     0.002619
      dyz     :     0.009955
      dx2y2   :     0.005751
      dxy     :     0.007505

  6 C s       :     3.179015  s :     3.179015
      pz      :     1.102474  p :     3.084462
      px      :     0.956820
      py      :     1.025168
      dz2     :     0.007067  d :     0.041641
      dxz     :     0.004552
      dyz     :     0.010809
      dx2y2   :     0.009938
      dxy     :     0.009276

  7 H s       :     0.851262  s :     0.851262

  8 C s       :     3.011371  s :     3.011371
      pz      :     0.946566  p :     2.657369
      px      :     0.850140
      py      :     0.860663
      dz2     :     0.029602  d :     0.133479
      dxz     :     0.023190
      dyz     :     0.023275
      dx2y2   :     0.026644
      dxy     :     0.030768

  9 O s       :     3.754051  s :     3.754051
      pz      :     1.400652  p :     4.426526
      px      :     1.433577
      py      :     1.592297
      dz2     :     0.004242  d :     0.017584
      dxz     :     0.005914
      dyz     :     0.002477
      dx2y2   :     0.002675
      dxy     :     0.002276

 10 O s       :     3.729391  s :     3.729391
      pz      :     1.566744  p :     4.470892
      px      :     1.496258
      py      :     1.407891
      dz2     :     0.003161  d :     0.016748
      dxz     :     0.002590
      dyz     :     0.003440
      dx2y2   :     0.003668
      dxy     :     0.003888

 11 C s       :     3.081555  s :     3.081555
      pz      :     0.924114  p :     2.872661
      px      :     1.073675
      py      :     0.874872
      dz2     :     0.012297  d :     0.058691
      dxz     :     0.006118
      dyz     :     0.017917
      dx2y2   :     0.014563
      dxy     :     0.007796

 12 C s       :     3.097921  s :     3.097921
      pz      :     1.071290  p :     3.174818
      px      :     1.079418
      py      :     1.024109
      dz2     :     0.005825  d :     0.027936
      dxz     :     0.002432
      dyz     :     0.007885
      dx2y2   :     0.007870
      dxy     :     0.003924

 13 S s       :     5.865979  s :     5.865979
      pz      :     3.301451  p :    10.168986
      px      :     3.239307
      py      :     3.628229
      dz2     :     0.020538  d :     0.070436
      dxz     :     0.013961
      dyz     :     0.010668
      dx2y2   :     0.010825
      dxy     :     0.014445

 14 P s       :     5.244783  s :     5.244783
      pz      :     2.884104  p :     8.556992
      px      :     2.807356
      py      :     2.865532
      dz2     :     0.104984  d :     0.569411
      dxz     :     0.089254
      dyz     :     0.131363
      dx2y2   :     0.131525
      dxy     :     0.112285

 15 S s       :     5.916253  s :     5.916253
      pz      :     3.592817  p :    10.378875
      px      :     3.713677
      py      :     3.072381
      dz2     :     0.005524  d :     0.041399
      dxz     :     0.000911
      dyz     :     0.011138
      dx2y2   :     0.016501
      dxy     :     0.007325

 16 O s       :     3.755797  s :     3.755797
      pz      :     1.319415  p :     4.611175
      px      :     1.703077
      py      :     1.588683
      dz2     :     0.002401  d :     0.013052
      dxz     :     0.002131
      dyz     :     0.004242
      dx2y2   :     0.002233
      dxy     :     0.002045

 17 C s       :     3.123482  s :     3.123482
      pz      :     0.786591  p :     2.925625
      px      :     1.027060
      py      :     1.111974
      dz2     :     0.014670  d :     0.052682
      dxz     :     0.014056
      dyz     :     0.009635
      dx2y2   :     0.009353
      dxy     :     0.004968

 18 O s       :     3.764969  s :     3.764969
      pz      :     1.625808  p :     4.600713
      px      :     1.299223
      py      :     1.675682
      dz2     :     0.002342  d :     0.013143
      dxz     :     0.002254
      dyz     :     0.002552
      dx2y2   :     0.002818
      dxy     :     0.003177

 19 C s       :     3.118057  s :     3.118057
      pz      :     0.949990  p :     2.935744
      px      :     0.948628
      py      :     1.037127
      dz2     :     0.015420  d :     0.053283
      dxz     :     0.009944
      dyz     :     0.006855
      dx2y2   :     0.012498
      dxy     :     0.008566

 20 H s       :     0.884490  s :     0.884490

 21 H s       :     0.881352  s :     0.881352

 22 H s       :     0.885424  s :     0.885424

 23 H s       :     0.892259  s :     0.892259

 24 H s       :     0.867482  s :     0.867482

 25 H s       :     0.874701  s :     0.874701

 26 H s       :     0.871807  s :     0.871807

 27 H s       :     0.887939  s :     0.887939

 28 H s       :     0.887002  s :     0.887002

 29 H s       :     0.884924  s :     0.884924

 30 H s       :     0.885876  s :     0.885876

 31 H s       :     0.879856  s :     0.879856

 32 H s       :     0.886236  s :     0.886236

 33 H s       :     0.871367  s :     0.871367

 34 H s       :     0.879891  s :     0.879891

 35 H s       :     0.882017  s :     0.882017

 36 H s       :     0.889539  s :     0.889539

 37 H s       :     0.891273  s :     0.891273


------------------------
MULLIKEN OVERLAP CHARGES
------------------------
B(  0-C ,  1-C ) :   0.8715 B(  0-C ,  2-O ) :  -0.1054 B(  0-C , 20-H ) :   0.7205 
B(  0-C , 21-H ) :   0.7481 B(  0-C , 22-H ) :   0.7314 B(  0-C , 23-H ) :  -0.0524 
B(  0-C , 24-H ) :  -0.0507 B(  1-C ,  2-O ) :   0.5190 B(  1-C ,  3-C ) :  -0.0765 
B(  1-C , 23-H ) :   0.7343 B(  1-C , 24-H ) :   0.7258 B(  2-O ,  3-C ) :   0.8097 
B(  2-O ,  4-O ) :  -0.1470 B(  2-O ,  5-C ) :  -0.2376 B(  2-O , 23-H ) :  -0.0589 
B(  2-O , 24-H ) :  -0.0532 B(  3-C ,  4-O ) :   1.1992 B(  3-C ,  5-C ) :   0.4960 
B(  4-O ,  5-C ) :  -0.2531 B(  4-O ,  6-C ) :   0.0755 B(  4-O , 14-P ) :   0.0615 
B(  4-O , 15-S ) :  -0.0519 B(  5-C ,  6-C ) :   0.1832 B(  5-C ,  9-O ) :   0.0559 
B(  5-C , 13-S ) :  -0.1409 B(  5-C , 25-H ) :   0.5815 B(  5-C , 26-H ) :   0.5522 
B(  6-C ,  7-H ) :   0.5990 B(  6-C ,  8-C ) :   0.0939 B(  6-C ,  9-O ) :  -0.2687 
B(  6-C , 10-O ) :  -0.3078 B(  6-C , 13-S ) :   0.5096 B(  8-C ,  9-O ) :   1.3628 
B(  8-C , 10-O ) :   0.7978 B(  8-C , 11-C ) :  -0.0706 B(  8-C , 13-S ) :  -0.1172 
B(  8-C , 16-O ) :   0.0585 B(  9-O , 10-O ) :  -0.1531 B( 10-O , 11-C ) :   0.5302 
B( 10-O , 12-C ) :  -0.0754 B( 10-O , 27-H ) :  -0.0542 B( 10-O , 28-H ) :  -0.0608 
B( 11-C , 12-C ) :   0.9258 B( 11-C , 27-H ) :   0.7405 B( 11-C , 28-H ) :   0.7168 
B( 12-C , 27-H ) :  -0.0538 B( 12-C , 28-H ) :  -0.0610 B( 12-C , 29-H ) :   0.7367 
B( 12-C , 30-H ) :   0.7188 B( 12-C , 31-H ) :   0.7417 B( 13-S , 14-P ) :   0.5125 
B( 13-S , 15-S ) :  -0.0688 B( 13-S , 18-O ) :  -0.0849 B( 14-P , 15-S ) :   0.9332 
B( 14-P , 16-O ) :   0.6025 B( 14-P , 17-C ) :  -0.1023 B( 14-P , 18-O ) :   0.6193 
B( 14-P , 19-C ) :  -0.0881 B( 15-S , 16-O ) :  -0.0515 B( 15-S , 18-O ) :  -0.0858 
B( 15-S , 34-H ) :   0.0826 B( 15-S , 36-H ) :   0.0782 B( 16-O , 17-C ) :   0.5808 
B( 16-O , 18-O ) :  -0.0773 B( 16-O , 32-H ) :  -0.0584 B( 16-O , 33-H ) :  -0.0682 
B( 16-O , 34-H ) :  -0.0596 B( 17-C , 32-H ) :   0.7498 B( 17-C , 33-H ) :   0.7401 
B( 17-C , 34-H ) :   0.7154 B( 18-O , 19-C ) :   0.6015 B( 18-O , 35-H ) :  -0.0569 
B( 18-O , 36-H ) :  -0.0756 B( 18-O , 37-H ) :  -0.0712 B( 19-C , 35-H ) :   0.7602 
B( 19-C , 36-H ) :   0.7133 B( 19-C , 37-H ) :   0.7408 B( 21-H , 22-H ) :  -0.0526 
B( 23-H , 24-H ) :  -0.0661 B( 27-H , 28-H ) :  -0.0610 B( 29-H , 31-H ) :  -0.0535 
B( 32-H , 33-H ) :  -0.0629 B( 35-H , 37-H ) :  -0.0552 B( 36-H , 37-H ) :  -0.0665 



                     *******************************
                     * LOEWDIN POPULATION ANALYSIS *
                     *******************************

----------------------
LOEWDIN ATOMIC CHARGES
----------------------
   0 C :   -0.350104
   1 C :   -0.106567
   2 O :   -0.045116
   3 C :    0.054220
   4 O :   -0.158122
   5 C :   -0.251220
   6 C :   -0.260252
   7 H :    0.151655
   8 C :    0.011298
   9 O :   -0.160194
  10 O :   -0.045326
  11 C :   -0.107342
  12 C :   -0.355428
  13 S :    0.092846
  14 P :    0.591936
  15 S :   -0.338175
  16 O :   -0.235115
  17 C :   -0.218872
  18 O :   -0.267032
  19 C :   -0.224770
  20 H :    0.133050
  21 H :    0.128484
  22 H :    0.126166
  23 H :    0.118591
  24 H :    0.125244
  25 H :    0.148104
  26 H :    0.151785
  27 H :    0.122992
  28 H :    0.120282
  29 H :    0.125229
  30 H :    0.131235
  31 H :    0.127802
  32 H :    0.114704
  33 H :    0.112977
  34 H :    0.109734
  35 H :    0.118753
  36 H :    0.104864
  37 H :    0.101684

-------------------------------
LOEWDIN REDUCED ORBITAL CHARGES
-------------------------------
  0 C s       :     2.948366  s :     2.948366
      pz      :     1.127937  p :     3.332732
      px      :     1.105482
      py      :     1.099312
      dz2     :     0.013235  d :     0.069006
      dxz     :     0.004470
      dyz     :     0.021644
      dx2y2   :     0.012809
      dxy     :     0.016848

  1 C s       :     2.927808  s :     2.927808
      pz      :     0.936139  p :     3.049519
      px      :     1.134754
      py      :     0.978626
      dz2     :     0.029898  d :     0.129240
      dxz     :     0.011722
      dyz     :     0.042534
      dx2y2   :     0.020907
      dxy     :     0.024179

  2 O s       :     3.439355  s :     3.439355
      pz      :     1.553804  p :     4.572241
      px      :     1.578683
      py      :     1.439754
      dz2     :     0.006619  d :     0.033520
      dxz     :     0.004214
      dyz     :     0.006648
      dx2y2   :     0.005940
      dxy     :     0.010098

  3 C s       :     2.837725  s :     2.837725
      pz      :     0.985915  p :     2.809101
      px      :     0.923253
      py      :     0.899933
      dz2     :     0.062619  d :     0.298954
      dxz     :     0.059396
      dyz     :     0.042939
      dx2y2   :     0.059471
      dxy     :     0.074529

  4 O s       :     3.544254  s :     3.544254
      pz      :     1.532459  p :     4.583298
      px      :     1.463025
      py      :     1.587814
      dz2     :     0.005349  d :     0.030570
      dxz     :     0.012483
      dyz     :     0.002981
      dx2y2   :     0.005825
      dxy     :     0.003932

  5 C s       :     2.915944  s :     2.915944
      pz      :     1.088637  p :     3.250078
      px      :     1.086631
      py      :     1.074810
      dz2     :     0.018895  d :     0.085198
      dxz     :     0.005933
      dyz     :     0.025787
      dx2y2   :     0.013131
      dxy     :     0.021452

  6 C s       :     2.949422  s :     2.949422
      pz      :     1.108518  p :     3.210086
      px      :     1.033925
      py      :     1.067643
      dz2     :     0.018594  d :     0.100744
      dxz     :     0.009072
      dyz     :     0.027964
      dx2y2   :     0.020564
      dxy     :     0.024549

  7 H s       :     0.848345  s :     0.848345

  8 C s       :     2.845968  s :     2.845968
      pz      :     0.994492  p :     2.837480
      px      :     0.937062
      py      :     0.905926
      dz2     :     0.065358  d :     0.305254
      dxz     :     0.057271
      dyz     :     0.053962
      dx2y2   :     0.059889
      dxy     :     0.068774

  9 O s       :     3.546303  s :     3.546303
      pz      :     1.485564  p :     4.582604
      px      :     1.502777
      py      :     1.594263
      dz2     :     0.006412  d :     0.031287
      dxz     :     0.013206
      dyz     :     0.003531
      dx2y2   :     0.004858
      dxy     :     0.003280

 10 O s       :     3.438982  s :     3.438982
      pz      :     1.591211  p :     4.572523
      px      :     1.548363
      py      :     1.432949
      dz2     :     0.006218  d :     0.033822
      dxz     :     0.004313
      dyz     :     0.006996
      dx2y2   :     0.006676
      dxy     :     0.009619

 11 C s       :     2.925089  s :     2.925089
      pz      :     0.981514  p :     3.051808
      px      :     1.120053
      py      :     0.950241
      dz2     :     0.028958  d :     0.130445
      dxz     :     0.012626
      dyz     :     0.039017
      dx2y2   :     0.032491
      dxy     :     0.017353

 12 C s       :     2.951455  s :     2.951455
      pz      :     1.126511  p :     3.335146
      px      :     1.125993
      py      :     1.082642
      dz2     :     0.014665  d :     0.068827
      dxz     :     0.005836
      dyz     :     0.019050
      dx2y2   :     0.019065
      dxy     :     0.010211

 13 S s       :     5.630112  s :     5.630112
      pz      :     3.319770  p :    10.187827
      px      :     3.247985
      py      :     3.620072
      dz2     :     0.025171  d :     0.089214
      dxz     :     0.017596
      dyz     :     0.013067
      dx2y2   :     0.013782
      dxy     :     0.019599

 14 P s       :     5.089011  s :     5.089011
      pz      :     2.865274  p :     8.532884
      px      :     2.778374
      py      :     2.889236
      dz2     :     0.145543  d :     0.786169
      dxz     :     0.117154
      dyz     :     0.190841
      dx2y2   :     0.186473
      dxy     :     0.146159

 15 S s       :     5.769612  s :     5.769612
      pz      :     3.620188  p :    10.512263
      px      :     3.713693
      py      :     3.178382
      dz2     :     0.007524  d :     0.056299
      dxz     :     0.000919
      dyz     :     0.014874
      dx2y2   :     0.024950
      dxy     :     0.008032

 16 O s       :     3.488571  s :     3.488571
      pz      :     1.384942  p :     4.722814
      px      :     1.700219
      py      :     1.637654
      dz2     :     0.004644  d :     0.023730
      dxz     :     0.004127
      dyz     :     0.008773
      dx2y2   :     0.003452
      dxy     :     0.002735

 17 C s       :     2.972130  s :     2.972130
      pz      :     0.878605  p :     3.130918
      px      :     1.087352
      py      :     1.164961
      dz2     :     0.032341  d :     0.115825
      dxz     :     0.030006
      dyz     :     0.020445
      dx2y2   :     0.022364
      dxy     :     0.010669

 18 O s       :     3.510553  s :     3.510553
      pz      :     1.649963  p :     4.732425
      px      :     1.378199
      py      :     1.704263
      dz2     :     0.004156  d :     0.024054
      dxz     :     0.004417
      dyz     :     0.003834
      dx2y2   :     0.005421
      dxy     :     0.006226

 19 C s       :     2.969528  s :     2.969528
      pz      :     1.024521  p :     3.137500
      px      :     1.015814
      py      :     1.097165
      dz2     :     0.036074  d :     0.117742
      dxz     :     0.021006
      dyz     :     0.013908
      dx2y2   :     0.028707
      dxy     :     0.018046

 20 H s       :     0.866950  s :     0.866950

 21 H s       :     0.871516  s :     0.871516

 22 H s       :     0.873834  s :     0.873834

 23 H s       :     0.881409  s :     0.881409

 24 H s       :     0.874756  s :     0.874756

 25 H s       :     0.851896  s :     0.851896

 26 H s       :     0.848215  s :     0.848215

 27 H s       :     0.877008  s :     0.877008

 28 H s       :     0.879718  s :     0.879718

 29 H s       :     0.874771  s :     0.874771

 30 H s       :     0.868765  s :     0.868765

 31 H s       :     0.872198  s :     0.872198

 32 H s       :     0.885296  s :     0.885296

 33 H s       :     0.887023  s :     0.887023

 34 H s       :     0.890266  s :     0.890266

 35 H s       :     0.881247  s :     0.881247

 36 H s       :     0.895136  s :     0.895136

 37 H s       :     0.898316  s :     0.898316


---------------------------------
LOEWDIN BOND ORDERS (THRESH 0.050000)
---------------------------------
B(  0-C ,  1-C ) :   1.1586 B(  0-C ,  2-O ) :   0.0552 B(  0-C , 20-H ) :   0.9292 
B(  0-C , 21-H ) :   0.9372 B(  0-C , 22-H ) :   0.9370 B(  1-C ,  2-O ) :   1.0448 
B(  1-C ,  3-C ) :   0.0774 B(  1-C , 23-H ) :   0.9152 B(  1-C , 24-H ) :   0.9052 
B(  2-O ,  3-C ) :   1.4640 B(  2-O ,  4-O ) :   0.1946 B(  2-O ,  5-C ) :   0.0720 
B(  3-C ,  4-O ) :   2.0666 B(  3-C ,  5-C ) :   1.0558 B(  3-C ,  6-C ) :   0.0604 
B(  4-O ,  5-C ) :   0.0884 B(  4-O , 14-P ) :   0.1444 B(  5-C ,  6-C ) :   1.0698 
B(  5-C ,  8-C ) :   0.0563 B(  5-C , 13-S ) :   0.0686 B(  5-C , 25-H ) :   0.8782 
B(  5-C , 26-H ) :   0.8712 B(  6-C ,  7-H ) :   0.8648 B(  6-C ,  8-C ) :   1.0220 
B(  6-C ,  9-O ) :   0.0941 B(  6-C , 10-O ) :   0.0719 B(  6-C , 13-S ) :   1.1025 
B(  8-C ,  9-O ) :   2.1699 B(  8-C , 10-O ) :   1.4393 B(  8-C , 11-C ) :   0.0767 
B(  8-C , 13-S ) :   0.0700 B(  9-O , 10-O ) :   0.2022 B( 10-O , 11-C ) :   1.0590 
B( 10-O , 12-C ) :   0.0534 B( 11-C , 12-C ) :   1.1508 B( 11-C , 27-H ) :   0.9183 
B( 11-C , 28-H ) :   0.9069 B( 12-C , 29-H ) :   0.9380 B( 12-C , 30-H ) :   0.9297 
B( 12-C , 31-H ) :   0.9362 B( 13-S , 14-P ) :   1.0317 B( 13-S , 15-S ) :   0.1100 
B( 13-S , 16-O ) :   0.0518 B( 13-S , 18-O ) :   0.0690 B( 14-P , 15-S ) :   1.6795 
B( 14-P , 16-O ) :   1.2577 B( 14-P , 17-C ) :   0.0656 B( 14-P , 18-O ) :   1.2074 
B( 14-P , 19-C ) :   0.0650 B( 15-S , 16-O ) :   0.0845 B( 15-S , 18-O ) :   0.0902 
B( 16-O , 17-C ) :   1.1209 B( 17-C , 32-H ) :   0.9481 B( 17-C , 33-H ) :   0.9431 
B( 17-C , 34-H ) :   0.9336 B( 18-O , 19-C ) :   1.1489 B( 19-C , 35-H ) :   0.9501 
B( 19-C , 36-H ) :   0.9371 B( 19-C , 37-H ) :   0.9458 

------------------------------------------
LOEWDIN REDUCED ORBITAL POPULATIONS PER MO
-------------------------------------------
THRESHOLD FOR PRINTING IS 0.1%%
                      0         1         2         3         4         5   
                 -88.03070 -87.96296 -76.41516 -18.81360 -18.80629 -18.78131
                   2.00000   2.00000   2.00000   2.00000   2.00000   2.00000
                  --------  --------  --------  --------  --------  --------
 2 O  s               0.0       0.0       0.0      99.9       0.0       0.0
10 O  s               0.0       0.0       0.0       0.0      99.9       0.0
13 S  s             100.0       0.0       0.0       0.0       0.0       0.0
14 P  s               0.0       0.0     100.0       0.0       0.0       0.0
15 S  s               0.0     100.0       0.0       0.0       0.0       0.0
16 O  s               0.0       0.0       0.0       0.0       0.0      99.9

                      6         7         8         9        10        11   
                 -18.76300 -18.75536 -18.74446 -10.02285 -10.02111  -9.95408
                   2.00000   2.00000   2.00000   2.00000   2.00000   2.00000
                  --------  --------  --------  --------  --------  --------
 2 O  px              0.0       0.0       0.0       0.1       0.0       0.0
 3 C  s               0.0       0.0       0.0      99.3       0.0       0.0
 4 O  s               0.0      99.9       0.0       0.0       0.0       0.0
 4 O  pz              0.0       0.0       0.0       0.1       0.0       0.0
 4 O  px              0.0       0.0       0.0       0.2       0.0       0.0
 6 C  s               0.0       0.0       0.0       0.0       0.0      99.6
 8 C  s               0.0       0.0       0.0       0.0      99.3       0.0
 9 O  s               0.0       0.0      99.9       0.0       0.0       0.0
 9 O  pz              0.0       0.0       0.0       0.0       0.1       0.0
 9 O  px              0.0       0.0       0.0       0.0       0.1       0.0
10 O  px              0.0       0.0       0.0       0.0       0.1       0.0
18 O  s              99.9       0.0       0.0       0.0       0.0       0.0

                     12        13        14        15        16        17   
                  -9.95093  -9.94848  -9.92793  -9.92584  -9.91964  -9.89129
                   2.00000   2.00000   2.00000   2.00000   2.00000   2.00000
                  --------  --------  --------  --------  --------  --------
 0 C  s               0.0       0.0       0.0       0.0       0.0      99.7
 1 C  s              99.7       0.0       0.0       0.0       0.0       0.0
 5 C  s               0.0       0.0       0.0       0.0      99.6       0.0
11 C  s               0.0      99.7       0.0       0.0       0.0       0.0
17 C  s               0.0       0.0      99.7       0.0       0.0       0.0
19 C  s               0.0       0.0       0.0      99.7       0.0       0.0

                     18        19        20        21        22        23   
                  -9.88989  -7.67561  -7.60831  -6.41059  -5.70422  -5.69998
                   2.00000   2.00000   2.00000   2.00000   2.00000   2.00000
                  --------  --------  --------  --------  --------  --------
 6 C  px              0.0       0.1       0.0       0.0       0.0       0.0
12 C  s              99.7       0.0       0.0       0.0       0.0       0.0
13 S  s               0.0      99.8       0.0       0.0       0.0       0.0
13 S  pz              0.0       0.0       0.0       0.0      22.3      75.8
13 S  px              0.0       0.0       0.0       0.0      52.7      22.4
13 S  py              0.0       0.0       0.0       0.0      25.0       1.8
14 P  s               0.0       0.0       0.0      99.4       0.0       0.0
15 S  s               0.0       0.0      99.9       0.0       0.0       0.0
16 O  pz              0.0       0.0       0.0       0.1       0.0       0.0
16 O  py              0.0       0.0       0.0       0.1       0.0       0.0
18 O  px              0.0       0.0       0.0       0.2       0.0       0.0

                     24        25        26        27        28        29   
                  -5.69196  -5.63750  -5.62927  -5.62779  -4.63329  -4.63287
                   2.00000   2.00000   2.00000   2.00000   2.00000   2.00000
                  --------  --------  --------  --------  --------  --------
13 S  pz              1.9       0.0       0.0       0.0       0.0       0.0
13 S  px             24.8       0.0       0.0       0.0       0.0       0.0
13 S  py             73.2       0.0       0.0       0.0       0.0       0.0
14 P  pz              0.0       0.0       0.0       0.0      37.1      25.7
14 P  px              0.0       0.0       0.0       0.0      47.7      51.3
14 P  py              0.0       0.0       0.0       0.0      15.0      23.0
15 S  pz              0.0       9.7      87.4       2.9       0.0       0.0
15 S  px              0.0       0.6       4.2      95.2       0.0       0.0
15 S  py              0.0      89.6       8.5       1.9       0.0       0.0

                     30        31        32        33        34        35   
                  -4.63088  -1.02460  -1.01605  -0.96823  -0.93131  -0.92220
                   2.00000   2.00000   2.00000   2.00000   2.00000   2.00000
                  --------  --------  --------  --------  --------  --------
 0 C  s               0.0       0.2       0.0       0.0       0.2       0.0
 0 C  px              0.0       0.2       0.0       0.0       0.1       0.0
 0 C  py              0.0       0.3       0.0       0.0       0.2       0.0
 1 C  s               0.0       4.0       0.1       0.0       1.6       0.1
 1 C  pz              0.0       2.6       0.1       0.0       0.9       0.0
 1 C  py              0.0       2.4       0.1       0.0       0.4       0.0
 1 C  dyz             0.0       0.3       0.0       0.0       0.1       0.0
 2 O  s               0.0      39.2       1.4       0.4      12.5       0.6
 2 O  pz              0.0       0.5       0.0       0.0       0.1       0.0
 2 O  px              0.0       2.5       0.1       0.0       0.1       0.0
 2 O  py              0.0       0.3       0.0       0.0       0.1       0.0
 3 C  s               0.0      18.8       0.4       0.0       3.2       0.2
 3 C  pz              0.0       1.6       0.0       0.0       3.1       0.3
 3 C  px              0.0       0.8       0.1       0.3      14.0       0.8
 3 C  py              0.0       2.6       0.2       0.1       2.1       0.0
 3 C  dz2             0.0       0.1       0.0       0.0       0.2       0.0
 3 C  dxz             0.0       0.1       0.0       0.0       0.9       0.1
 3 C  dx2y2           0.0       0.2       0.0       0.0       0.2       0.0
 3 C  dxy             0.0       0.7       0.0       0.0       0.2       0.0
 4 O  s               0.0      11.6       0.2       0.5      31.4       2.2
 4 O  pz              0.0       0.9       0.0       0.0       1.6       0.1
 4 O  px              0.0       1.7       0.0       0.0       1.4       0.1
 5 C  s               0.0       1.1       0.0       0.0       0.3       0.0
 5 C  pz              0.0       1.1       0.0       0.0       0.4       0.0
 5 C  px              0.0       0.0       0.1       0.0       0.3       0.0
 5 C  py              0.0       0.6       0.2       0.0       0.0       0.1
 6 C  s               0.0       0.2       1.1       0.0       0.3       0.1
 6 C  pz              0.0       0.1       1.0       0.0       0.2       0.2
 6 C  px              0.0       0.0       0.1       0.0       0.1       0.1
 6 C  py              0.0       0.0       0.9       0.0       0.1       0.0
 7 H  s               0.0       0.0       0.2       0.0       0.0       0.0
 8 C  s               0.0       0.7      18.9       0.0       0.7       3.2
 8 C  pz              0.0       0.0       0.9       0.0       0.9       4.4
 8 C  px              0.0       0.0       1.2       0.0       2.7      11.2
 8 C  py              0.0       0.0       2.7       0.1       0.6       0.8
 8 C  dz2             0.0       0.0       0.1       0.0       0.1       0.3
 8 C  dxz             0.0       0.0       0.3       0.0       0.1       0.7
 8 C  dx2y2           0.0       0.0       0.2       0.0       0.0       0.1
 8 C  dxy             0.0       0.0       0.6       0.0       0.1       0.2
 9 O  s               0.0       0.4      11.0       0.0       5.7      27.4
 9 O  pz              0.0       0.0       1.2       0.0       0.3       1.7
 9 O  px              0.0       0.1       1.5       0.0       0.3       1.3
10 O  s               0.0       1.0      39.2       0.2       3.0       9.4
10 O  pz              0.0       0.0       0.8       0.0       0.0       0.1
10 O  px              0.0       0.1       2.2       0.0       0.0       0.1
10 O  py              0.0       0.0       0.2       0.0       0.0       0.1
11 C  s               0.0       0.1       4.2       0.0       0.4       1.3
11 C  pz              0.0       0.1       2.3       0.0       0.2       0.6
11 C  px              0.0       0.0       0.3       0.0       0.0       0.0
11 C  py              0.0       0.1       2.6       0.0       0.1       0.4
11 C  dyz             0.0       0.0       0.3       0.0       0.0       0.1
12 C  s               0.0       0.0       0.2       0.0       0.0       0.1
12 C  py              0.0       0.0       0.5       0.0       0.0       0.1
13 S  s               0.0       0.0       0.1       0.3       0.0       0.0
13 S  pz              0.0       0.0       0.0       0.3       0.0       0.0
14 P  s               0.0       0.1       0.0      13.3       0.1       0.1
14 P  pz             37.2       0.0       0.0       1.5       0.0       0.7
14 P  px              0.9       0.1       0.0       0.5       1.6       2.5
14 P  py             61.9       0.0       0.0       3.3       0.0       0.1
14 P  dz2             0.0       0.0       0.0       0.0       0.0       0.2
14 P  dxz             0.0       0.0       0.0       0.2       0.0       0.0
14 P  dyz             0.0       0.0       0.0       0.8       0.0       0.2
14 P  dx2y2           0.0       0.0       0.0       0.0       0.0       0.4
14 P  dxy             0.0       0.0       0.0       0.0       0.0       0.2
15 S  s               0.0       0.0       0.0       0.3       0.0       0.0
15 S  py              0.0       0.0       0.0       0.4       0.0       0.0
16 O  s               0.0       0.1       0.1      38.7       0.1       5.6
16 O  px              0.0       0.0       0.0       0.0       0.0       0.1
16 O  py              0.0       0.0       0.0       1.7       0.0       0.1
17 C  s               0.0       0.0       0.0       4.6       0.0       0.9
17 C  pz              0.0       0.0       0.0       4.0       0.1       0.6
17 C  px              0.0       0.0       0.0       1.0       0.0       0.2
17 C  dz2             0.0       0.0       0.0       0.2       0.0       0.0
17 C  dxz             0.0       0.0       0.0       0.2       0.0       0.0
18 O  s               0.0       0.0       0.0      18.0       4.0      12.8
18 O  pz              0.0       0.0       0.0       0.1       0.1       0.3
18 O  px              0.0       0.0       0.0       0.7       0.0       0.0
18 O  py              0.0       0.0       0.0       0.4       0.1       0.3
19 C  s               0.0       0.0       0.0       2.1       0.6       2.1
19 C  pz              0.0       0.0       0.0       0.8       0.2       0.7
19 C  px              0.0       0.0       0.0       1.1       0.2       0.8
19 C  py              0.0       0.0       0.0       0.4       0.1       0.4
23 H  s               0.0       0.5       0.0       0.0       0.2       0.0
24 H  s               0.0       0.6       0.0       0.0       0.1       0.0
25 H  s               0.0       0.2       0.0       0.0       0.0       0.0
26 H  s               0.0       0.2       0.0       0.0       0.0       0.0
27 H  s               0.0       0.0       0.5       0.0       0.1       0.2
28 H  s               0.0       0.0       0.7       0.0       0.0       0.1
[...]
                  --------  --------  --------  --------
 1 C  s               0.1       0.1       0.0       0.0
 1 C  py              0.1       0.1       0.0       0.0
 1 C  dz2             0.0       0.0       0.2       0.1
 1 C  dxz             0.2       0.4       0.1       0.1
 1 C  dyz             0.2       0.2       0.3       0.1
 1 C  dx2y2           0.1       0.2       0.0       0.0
 2 O  s               0.6       0.9       0.1       0.1
 2 O  pz              0.3       0.5       0.0       0.1
 2 O  px              0.6       0.7       0.1       0.0
 2 O  py              1.0       1.2       0.0       0.0
 2 O  dz2             5.5       6.8       0.0       0.1
 2 O  dxz             1.2       2.2       1.8       1.3
 2 O  dyz             0.1       0.0       3.5       1.3
 2 O  dx2y2           0.2       0.2       1.7       0.6
 2 O  dxy            10.4      14.0       0.4       1.0
 3 C  s               0.2       0.5       3.9       2.2
 3 C  pz              0.1       0.1       1.5       0.6
 3 C  px              1.5       1.4       2.0       0.6
 3 C  py              0.4       0.5       0.0       0.0
 3 C  dz2             2.9       4.4       0.1       0.2
 3 C  dxz             0.6       0.5       4.2       1.6
 3 C  dyz             0.5       1.1       0.8       0.5
 3 C  dx2y2           0.2       0.6       2.6       1.4
 3 C  dxy             3.8       5.4       0.3       0.4
 4 O  s               0.5       0.3       3.8       1.3
 4 O  pz              0.0       0.0       1.6       0.6
 4 O  px              0.5       0.4       1.5       0.6
 4 O  py              0.2       0.3       0.0       0.0
 4 O  dz2             1.8       2.9       2.4       1.5
 4 O  dxz             1.6       0.3      28.1      11.2
 4 O  dyz             1.8       2.9       0.1       0.1
 4 O  dx2y2           2.7       2.6       6.6       2.6
 4 O  dxy             2.3       3.2       0.2       0.3
 5 C  s               0.0       0.1       0.0       0.1
 5 C  py              0.0       0.2       0.0       0.1
 5 C  dz2             0.0       0.1       0.1       0.2
 5 C  dxz             0.0       0.5       0.1       0.0
 5 C  dyz             0.1       0.7       0.0       0.0
 5 C  dx2y2           0.3       0.1       0.0       0.0
 5 C  dxy             0.0       0.0       0.1       0.2
 6 C  s               0.0       0.1       0.0       0.1
 6 C  py              0.1       0.1       0.0       0.1
 6 C  dz2             0.0       0.0       0.0       0.2
 6 C  dxz             0.2       0.6       0.0       0.0
 6 C  dyz             0.2       0.3       0.2       0.1
 6 C  dx2y2           0.3       0.0       0.0       0.0
 6 C  dxy             0.2       0.1       0.0       0.2
 8 C  s               0.1       0.0       2.2       5.2
 8 C  pz              0.5       0.6       0.5       1.3
 8 C  px              2.1       1.8       0.2       0.7
 8 C  py              0.3       0.2       0.1       0.1
 8 C  dz2             3.7       2.5       0.3       0.2
 8 C  dxz             0.3       0.9       1.8       4.6
 8 C  dyz             1.2       0.6       0.7       1.1
 8 C  dx2y2           0.3       0.0       1.5       2.9
 8 C  dxy             4.6       2.8       1.0       1.1
 9 O  s               0.7       1.2       1.1       2.7
 9 O  pz              0.1       0.2       0.6       1.3
 9 O  px              0.6       0.5       0.2       0.7
 9 O  py              0.2       0.1       0.1       0.1
 9 O  dz2             0.7       0.0       3.0       6.2
 9 O  dxz             6.2       6.9       7.5      20.2
 9 O  dyz             2.9       1.5       1.3       1.5
 9 O  dx2y2           4.5       4.2       0.5       2.6
 9 O  dxy             1.9       0.8       0.9       1.6
10 O  s               0.4       0.3       0.4       0.7
10 O  pz              0.2       0.1       0.1       0.1
10 O  px              0.9       0.7       0.1       0.1
10 O  py              1.3       0.9       0.2       0.2
10 O  dz2             6.5       3.9       1.3       1.6
10 O  dxz             0.0       0.1       0.8       2.0
10 O  dyz             2.1       2.4       0.3       1.3
10 O  dx2y2           1.6       1.7       0.1       0.6
10 O  dxy            10.6       5.9       4.2       6.0
11 C  s               0.2       0.2       0.0       0.0
11 C  pz              0.1       0.1       0.0       0.0
11 C  py              0.1       0.1       0.0       0.0
11 C  dz2             0.0       0.0       0.1       0.2
11 C  dxz             0.2       0.1       0.1       0.1
11 C  dyz             0.3       0.3       0.1       0.2
11 C  dx2y2           0.1       0.1       0.0       0.0


                      *****************************
                      * MAYER POPULATION ANALYSIS *
                      *****************************

  NA   - Mulliken gross atomic population
  ZA   - Total nuclear charge
  QA   - Mulliken gross atomic charge
  VA   - Mayer's total valence
  BVA  - Mayer's bonded valence
  FA   - Mayer's free valence

  ATOM       NA         ZA         QA         VA         BVA        FA
  0 C      6.2765     6.0000    -0.2765     4.0014     4.0014     0.0000
  1 C      6.0417     6.0000    -0.0417     3.9914     3.9914     0.0000
  2 O      8.2220     8.0000    -0.2220     2.2904     2.2904     0.0000
  3 C      5.8450     6.0000     0.1550     4.3512     4.3512     0.0000
  4 O      8.2170     8.0000    -0.2170     2.2735     2.2735    -0.0000
  5 C      6.0462     6.0000    -0.0462     3.8177     3.8177     0.0000
  6 C      6.3051     6.0000    -0.3051     3.9180     3.9180     0.0000
  7 H      0.8513     1.0000     0.1487     0.9472     0.9472     0.0000
  8 C      5.8022     6.0000     0.1978     4.2831     4.2831     0.0000
  9 O      8.1982     8.0000    -0.1982     2.3077     2.3077     0.0000
 10 O      8.2170     8.0000    -0.2170     2.2921     2.2921    -0.0000
 11 C      6.0129     6.0000    -0.0129     4.0380     4.0380    -0.0000
 12 C      6.3007     6.0000    -0.3007     4.0161     4.0161     0.0000
 13 S     16.1054    16.0000    -0.1054     2.2348     2.2348     0.0000
 14 P     14.3712    15.0000     0.6288     4.9413     4.9413    -0.0000
 15 S     16.3365    16.0000    -0.3365     2.0226     2.0226    -0.0000
 16 O      8.3800     8.0000    -0.3800     2.1858     2.1858     0.0000
 17 C      6.1018     6.0000    -0.1018     3.7941     3.7941    -0.0000
 18 O      8.3788     8.0000    -0.3788     2.1454     2.1454    -0.0000
 19 C      6.1071     6.0000    -0.1071     3.8288     3.8288     0.0000
 20 H      0.8845     1.0000     0.1155     0.9552     0.9552    -0.0000
 21 H      0.8814     1.0000     0.1186     0.9585     0.9585     0.0000
 22 H      0.8854     1.0000     0.1146     0.9570     0.9570     0.0000
 23 H      0.8923     1.0000     0.1077     0.9523     0.9523     0.0000
 24 H      0.8675     1.0000     0.1325     0.9843     0.9843     0.0000
 25 H      0.8747     1.0000     0.1253     0.9679     0.9679    -0.0000
 26 H      0.8718     1.0000     0.1282     0.9689     0.9689     0.0000
 27 H      0.8879     1.0000     0.1121     0.9527     0.9527     0.0000
 28 H      0.8870     1.0000     0.1130     0.9786     0.9786    -0.0000
 29 H      0.8849     1.0000     0.1151     0.9565     0.9565    -0.0000
 30 H      0.8859     1.0000     0.1141     0.9553     0.9553     0.0000
 31 H      0.8799     1.0000     0.1201     0.9635     0.9635    -0.0000
 32 H      0.8862     1.0000     0.1138     0.9507     0.9507    -0.0000
 33 H      0.8714     1.0000     0.1286     0.9757     0.9757     0.0000
 34 H      0.8799     1.0000     0.1201     1.0060     1.0060    -0.0000
 35 H      0.8820     1.0000     0.1180     0.9561     0.9561     0.0000
 36 H      0.8895     1.0000     0.1105     0.9992     0.9992    -0.0000
 37 H      0.8913     1.0000     0.1087     0.9589     0.9589    -0.0000

  Mayer bond orders larger than 0.100000
B(  0-C ,  1-C ) :   1.1567 B(  0-C , 20-H ) :   0.9434 B(  0-C , 21-H ) :   0.9511 
B(  0-C , 22-H ) :   0.9486 B(  1-C ,  2-O ) :   0.8896 B(  1-C , 23-H ) :   0.9337 
B(  1-C , 24-H ) :   0.9189 B(  2-O ,  3-C ) :   1.2741 B(  3-C ,  4-O ) :   1.8666 
B(  3-C ,  5-C ) :   1.0214 B(  4-O , 14-P ) :   0.1367 B(  5-C ,  6-C ) :   1.0264 
B(  5-C , 25-H ) :   0.8840 B(  5-C , 26-H ) :   0.8741 B(  6-C ,  7-H ) :   0.8748 
B(  6-C ,  8-C ) :   0.8963 B(  6-C , 13-S ) :   1.0306 B(  8-C ,  9-O ) :   2.0275 
B(  8-C , 10-O ) :   1.2570 B( 10-O , 11-C ) :   0.9072 B( 11-C , 12-C ) :   1.1706 
B( 11-C , 27-H ) :   0.9368 B( 11-C , 28-H ) :   0.9139 B( 12-C , 29-H ) :   0.9485 
B( 12-C , 30-H ) :   0.9449 B( 12-C , 31-H ) :   0.9472 B( 13-S , 14-P ) :   0.9324 
B( 14-P , 15-S ) :   1.5893 B( 14-P , 16-O ) :   1.0905 B( 14-P , 18-O ) :   1.0578 
B( 16-O , 17-C ) :   0.9200 B( 17-C , 32-H ) :   0.9532 B( 17-C , 33-H ) :   0.9392 
B( 17-C , 34-H ) :   0.9275 B( 18-O , 19-C ) :   0.9549 B( 19-C , 35-H ) :   0.9604 
B( 19-C , 36-H ) :   0.9298 B( 19-C , 37-H ) :   0.9424 

-------
TIMINGS
-------

Total SCF time: 0 days 0 hours 0 min 16 sec 

Total time                  ....      16.765 sec
Sum of individual times     ....      16.735 sec  ( 99.8%)

SCF preparation             ....       2.442 sec  ( 14.6%)
Fock matrix formation       ....       5.189 sec  ( 30.9%)
  Startup                   ....       0.009 sec  (  0.2% of F)
  Split-RI-J                ....       3.230 sec  ( 62.3% of F)
  XC integration            ....       1.915 sec  ( 36.9% of F)
    Basis function eval.    ....       0.761 sec  ( 39.7% of XC)
    Density eval.           ....       0.494 sec  ( 25.8% of XC)
    XC-Functional eval.     ....       0.099 sec  (  5.2% of XC)
    XC-Potential eval.      ....       0.472 sec  ( 24.7% of XC)
Diagonalization             ....       0.000 sec  (  0.0%)
Density matrix formation    ....       0.013 sec  (  0.1%)
Total Energy calculation    ....       0.001 sec  (  0.0%)
Population analysis         ....       9.000 sec  ( 53.7%)
Orbital Transformation      ....       0.019 sec  (  0.1%)
Orbital Orthonormalization  ....       0.000 sec  (  0.0%)
DIIS solution               ....       0.024 sec  (  0.1%)
  MO trafo                  ....       0.000 sec  (  0.0 % of DIIS)
  Orb grad                  ....       0.000 sec  (  0.0 % of DIIS)
  Energy W gradient         ....       0.000 sec  (  0.0 % of DIIS)
  DIIS error                ....       0.003 sec  ( 14.3 % of DIIS)
  DIIS work                 ....       0.021 sec  ( 84.5 % of DIIS)
  Form Q                    ....       0.000 sec  (  0.0 % of DIIS)
  Form QpQm                 ....       0.000 sec  (  0.0 % of DIIS)
  Exp/Cayley                ....       0.000 sec  (  0.0 % of DIIS)
  Orb update                ....       0.000 sec  (  0.0 % of DIIS)
  Wake-sleep                ....       0.000 sec  (  1.2 % of DIIS)
SOSCF solution              ....       0.047 sec  (  0.3%)
  MO trafo                  ....       0.030 sec  ( 63.7 % of SOSCF)
  Orb grad                  ....       0.000 sec  (  0.7 % of SOSCF)
  Rot update                ....       0.002 sec  (  4.3 % of SOSCF)
  Step                      ....       0.014 sec  ( 30.7 % of SOSCF)
Finished LeanSCF after  25.3 sec

Maximum memory used throughout the entire LEANSCF-calculation: 34.4 MB


-------------------------------------------------------------------------------
                          DFT DISPERSION CORRECTION                            
                                                                               
                                DFTD4 V3.4.0                                   
-------------------------------------------------------------------------------
The PBE functional is recognized
Active option DFTDOPT                   ...         5   

-------------------------   ----------------
Dispersion correction           -0.054343582
-------------------------   ----------------

------------------   -----------------
gCP correction             0.186041508
------------------   -----------------

-------------------------   --------------------
FINAL SINGLE POINT ENERGY     -1979.003458513153
-------------------------   --------------------


------------------------------------------------------------------------------
                              ORCA PROPERTY CALCULATIONS
------------------------------------------------------------------------------

GBWName                                 ... sp.gbw
Number of atoms                         ...     38
Number of basis functions               ...    316
Max core memory                         ...   1024 MB

Electric properties:
Dipole moment                           ... YES
Quadrupole moment                       ...  NO
Static polarizability (Dipole/Dipole)   ...  NO
Static polarizability (Dipole/Quad.)    ...  NO
Static polarizability (Quad./Quad.)     ...  NO
Static polarizability (Velocity)        ...  NO

Atomic electric properties:
Dipole moment                           ...  NO
Quadrupole moment                       ...  NO
Static polarizability                   ...  NO

Choice of electric origin               ... Center of mass
Position of electric origin             ...     0.000001    -0.000003    -0.000000

General magnetic properties:
Magnetizability                         ...  NO

EPR properties:
g-Tensor (aka g-matrix)                 ...  NO
Zero-Field splitting spin-orbit         ...  NO
Zero-field splitting spin-spin          ...  NO
Hyperfine couplings                     ...  NO (   0 nuclei)
Quadrupole couplings                    ...  NO (   0 nuclei)
Contact density                         ...  NO (   0 nuclei)

NMR properties:
Chemical shifts                         ...  NO (   0 nuclei)
Spin-rotation constants                 ...  NO (   0 nuclei)
Spin-spin couplings                     ...  NO (   0 nuclei,    0 pairs)

Choice of magnetic origin               ... GIAO
Position of magnetic origin             ...     0.000000     0.000000     0.000000

Properties with geometric perturbations:
SCF Hessian                             ...  NO
IR spectrum                             ...  NO
VCD spectrum                            ...  NO
X-ray spectroscopy properties:
SCF XES/XAS/RIXS spectra                ...  NO


-------------
DIPOLE MOMENT
-------------

Method             : SCF
Type of density    : Electron Density
Multiplicity       :   1
Irrep              :   0
Energy             : -1979.1351564387628059 Eh
Relativity type    : 
Basis              : AO
                                X                 Y                 Z
Electronic contribution:     -9.172971778      -4.811049634      -5.059595570
Nuclear contribution   :     10.215481887       5.667520863       4.729741248
                        -----------------------------------------
Total Dipole Moment    :      1.042510109       0.856471229      -0.329854322
                        -----------------------------------------
Magnitude (a.u.)       :      1.388947143
Magnitude (Debye)      :      3.530423071



--------------------
Rotational spectrum 
--------------------
 
Rotational constants in cm-1:             0.011778             0.008768             0.006419 
Rotational constants in MHz :           353.099405           262.848470           192.438320 

Dipole components along the rotational axes: 
x,y,z [a.u.] :     0.180615     1.355029    -0.245860 
x,y,z [Debye]:     0.459088     3.444211    -0.624928 

 

Dipole moment calculation done in   2.7 sec 

Maximum memory used throughout the entire PROP-calculation: 24.0 MB

--------------------------------
SUGGESTED CITATIONS FOR THIS RUN
--------------------------------

Below you find a list of papers that are relevant to this ORCA run
We neither can nor want to force you to cite these papers, but we appreciate if you do
You receive ORCA, which is the product of decades of hard work by many enthusiastic individuals, for free
The only thing we kindly ask in return is that you cite our papers,
We deeply appreciate it, if you show your appreciation for ORCA by not just citing the generic ORCA reference.

Please note that relegating all ORCA citations to the supporting information does *not* help us.
SI sections are not indexed - citations you put there will not count into any citation statistics
But we need these citations in order to attract the funding resources that allow us to do what we are doing

Therefore, if you are a happy ORCA user, please consider citing a few of the papers listed below in the main body of your paper

In addition to the list printed below, the program has created the file sp.bibtex that contains the list in bibtex format
You can import this file easily into all common literature databanks and citation aid programs


List of essential papers. We consider these as the minimum necessary citations

  1. Neese,F.
     Software update: the ORCA program system, version 5.0
     WIRES Comput. Molec. Sci., 2022 12(1)e1606
     doi.org/10.1002/wcms.1606

List of papers to cite with high priority. The work reported in these papers was absolutely
necessary for this run to complete.
Our perspective: the developers of density functionals and basis sets usually get cited in chemistry papers
Good! But without the algorithms to do something with them, the functionals or basis sets would not do anything.
Hence, in our opinion, the algorithm design and method developments papers are equally worthy of getting cited

  1. Neese,F.
     An improvement of the resolution of the identity approximation for the formation of the Coulomb matrix
     J. Comp. Chem., 2003 24(14)1740-1747
     doi.org/10.1002/jcc.10318
  2. Neese,F.
     The SHARK Integral Generation and Digestion System
     J. Comp. Chem., 2022  1-16
     doi.org/10.1002/jcc.26942
  3. Caldeweyher,E.; Bannwarth,C.; Grimme,S.
     Extension of the D3 dispersion coefficient model
     J. Chem. Phys., 2017 147 034112
     doi.org/10.1063/1.4993215
  4. Caldeweyher,E.; Ehlert,S.; Hansen,A.; Neugebauer,H.; Spicher,S.; Bannwarth,C.; Grimme,S.
     A generally applicable atomic-charge dependent London dispersion correction
     J. Chem. Phys., 2019 150 154122
     doi.org/10.1063/1.5090222
  5. Caldeweyher,E.; Mewes,J.; Ehlert,S.; Grimme,S.
     Extension and evaluation of the D4 London-dispersion model for periodic systems
     Phys. Chem. Chem. Phys., 2020 22(16)8499-8512
     doi.org/10.1039/D0CP00502A
  6. Wittmann,L.; Gordiy,I.; Friede,M.; Helmich-Paris,B.; Grimme,S.; Hansen,A.; Bursch,M.
     Extension of the D3 and D4 London Dispersion Corrections to the full Actinides Series
     Phys. Chem. Chem. Phys., 2024 26(32)21379-21394
     doi.org/https://doi.org/10.1039/D4CP01514B 

List of suggested additional citations. These are papers that are important in the 'surrounding' of 
of this run, or papers that preceded the highly important papers. If you like your results we are grateful for a citation.

  1. Neese,F.
     The ORCA program system
     WIRES Comput. Molec. Sci., 2012 2(1)73-78
     doi.org/10.1002/wcms.81
  2. Neese,F.
     Software update: the ORCA program system, version 4.0
     WIRES Comput. Molec. Sci., 2018 8(1)1-6
     doi.org/10.1002/wcms.1327
  3. Neese,F.; Wennmohs,F.; Becker,U.; Riplinger,C.
     The ORCA quantum chemistry program package
     J. Chem. Phys., 2020 152 Art. No. L224108
     doi.org/10.1063/5.0004608

List of optional additional citations

  1. Neese,F.
     Approximate second-order SCF convergence for spin unrestricted wavefunctions
     Chem. Phys. Lett., 2000 325(1-3)93-98
     doi.org/10.1016/s0009-2614(00)00662-x

Timings for individual modules:

Sum of individual times          ...       29.455 sec (=   0.491 min)
Startup calculation              ...        1.209 sec (=   0.020 min)   4.1 %
SCF iterations                   ...       25.497 sec (=   0.425 min)  86.6 %
Property calculations            ...        2.749 sec (=   0.046 min)   9.3 %
                             ****ORCA TERMINATED NORMALLY****
TOTAL RUN TIME: 0 days 0 hours 0 minutes 44 seconds 533 msec
