 Entering Gaussian System
 *********************************************
 Gaussian 98:
 frequency output generated by the xtb code
 *********************************************
                         Standard orientation:
 --------------------------------------------------------------------
  Center     Atomic     Atomic              Coordinates (Angstroms)
  Number     Number      Type              X           Y           Z
 --------------------------------------------------------------------
    1          6             0        5.228556   -2.419594   -1.042754
    2          6             0        3.911831   -3.110832   -1.359320
    3          8             0        2.980164   -2.188985   -1.959968
    4          6             0        2.258157   -1.414248   -1.178605
    5          8             0        2.270509   -1.443889    0.034564
    6          6             0        1.404764   -0.458590   -1.986589
    7          6             0        0.412368    0.259364   -1.082157
    8          1             0       -0.085193    1.070044   -1.627494
    9          6             0        1.144632    0.894142    0.088563
   10          8             0        2.165444    1.525302   -0.070360
   11          8             0        0.528080    0.732877    1.240498
   12          6             0        1.120937    1.340786    2.407144
   13          6             0        0.618436    2.762575    2.591489
   14         16             0       -0.888338   -0.896220   -0.537686
   15         15             0       -2.250615    0.517279    0.276084
   16         16             0       -2.110565    2.350496   -0.391318
   17          8             0       -3.664374   -0.190024    0.008079
   18          6             0       -4.235313   -0.280319   -1.302652
   19          8             0       -2.201675    0.437471    1.852567
   20          6             0       -2.214618   -0.819970    2.553860
   21          1             0        5.927222   -3.142674   -0.635199
   22          1             0        5.648908   -1.982911   -1.944541
   23          1             0        5.069234   -1.630478   -0.310645
   24          1             0        3.461440   -3.524633   -0.452919
   25          1             0        4.042406   -3.889831   -2.110542
   26          1             0        0.896640   -1.002767   -2.781534
   27          1             0        2.076459    0.276748   -2.435507
   28          1             0        0.822808    0.699487    3.236555
   29          1             0        2.207449    1.321594    2.282006
   30          1             0        0.915241    3.378219    1.744758
   31          1             0       -0.466928    2.769397    2.661911
   32          1             0        1.042412    3.179826    3.498802
   33          1             0       -3.654166   -0.966842   -1.917733
   34          1             0       -4.264148    0.705910   -1.768059
   35          1             0       -5.244040   -0.659055   -1.155401
   36          1             0       -3.114005   -1.379754    2.304486
   37          1             0       -2.202264   -0.558561    3.608608
   38          1             0       -1.328129   -1.396443    2.288446
 --------------------------------------------------------------------
     1 basis functions        1 primitive gaussians
     1 alpha electrons        1 beta electrons
 
 Harmonic frequencies (cm**-1), IR intensities (km*mol⁻¹),
 Raman scattering activities (A**4/amu), Raman depolarization ratios,
 reduced masses (AMU), force constants (mDyne/A) and normal coordinates:
                      1                      2                      3
                        a                      a                      a 
 Frequencies --    51.6361                55.2369                61.7676
 Red. masses --    18.2812                17.5086                19.0887
 Frc consts  --     0.0000                 0.0000                 0.0000
 IR Inten    --     7.2208                 2.1872                 2.4161
 Raman Activ --     0.0000                 0.0000                 0.0000
 Depolar     --     0.0000                 0.0000                 0.0000
 Atom AN      X      Y      Z        X      Y      Z        X      Y      Z
   1   6     0.08   0.11  -0.11    -0.11  -0.19  -0.13     0.13   0.24  -0.10
   2   6     0.10   0.10  -0.18    -0.16  -0.12  -0.06     0.17   0.12  -0.04
   3   8     0.11   0.16  -0.14    -0.19  -0.09  -0.01     0.07   0.03  -0.02
   4   6    -0.04  -0.06  -0.05     0.08   0.11   0.02     0.05  -0.01   0.01
   5   8    -0.20  -0.33  -0.06     0.35   0.31   0.03     0.18   0.07   0.01
   6   6    -0.03   0.03   0.04     0.04   0.10   0.06    -0.11  -0.13   0.02
   7   6     0.03  -0.00   0.13     0.03   0.06   0.08    -0.11  -0.16   0.03
   8   1     0.01   0.01   0.06    -0.00   0.01   0.03    -0.04  -0.05   0.00
   9   6     0.10  -0.10   0.14     0.01   0.08   0.09    -0.12  -0.10   0.00
  10   8     0.25  -0.32   0.20    -0.12   0.29   0.08    -0.26   0.05  -0.07
  11   8     0.02   0.04   0.13     0.11  -0.11   0.13    -0.02  -0.23   0.05
  12   6     0.03   0.02   0.12     0.11  -0.12   0.12    -0.02  -0.14   0.01
  13   6     0.04   0.02   0.10     0.12  -0.12   0.17    -0.07  -0.16   0.00
  14  16     0.03   0.01   0.20     0.12   0.00   0.12    -0.19  -0.21   0.17
  15  15    -0.09   0.05  -0.06    -0.05  -0.04  -0.10     0.01   0.07   0.01
  16  16    -0.19  -0.06  -0.39    -0.19  -0.12  -0.36     0.45  -0.02  -0.16
  17   8    -0.03  -0.05   0.01     0.01  -0.12  -0.03    -0.09   0.24   0.02
  18   6    -0.05  -0.07   0.02    -0.04  -0.04  -0.01    -0.04   0.10   0.01
  19   8    -0.07   0.19  -0.03    -0.03   0.10  -0.06    -0.05   0.13   0.01
  20   6     0.01   0.21   0.05    -0.00   0.12   0.01    -0.09   0.13   0.05
  21   1     0.02   0.03  -0.04    -0.04  -0.07  -0.05     0.06   0.09  -0.03
  22   1     0.03   0.05  -0.02    -0.04  -0.06  -0.04     0.02   0.08  -0.04
  23   1     0.01   0.02  -0.02    -0.01  -0.05  -0.03     0.03   0.07  -0.03
  24   1     0.03   0.01  -0.06    -0.04  -0.03  -0.01     0.07   0.03  -0.01
  25   1     0.04   0.04  -0.07    -0.07  -0.03  -0.02     0.06   0.04  -0.01
  26   1    -0.02   0.03   0.01     0.01   0.03   0.01    -0.03  -0.06   0.02
  27   1    -0.01   0.01   0.02     0.01   0.04   0.02    -0.06  -0.03  -0.02
  28   1     0.00   0.01   0.03     0.03  -0.04   0.03     0.01  -0.04   0.01
  29   1     0.01   0.00   0.04     0.03  -0.03   0.03    -0.01  -0.03  -0.01
  30   1     0.02   0.00   0.03     0.04  -0.03   0.05    -0.03  -0.05  -0.00
  31   1     0.01   0.01   0.03     0.03  -0.03   0.05    -0.02  -0.06   0.01
  32   1     0.01   0.01   0.03     0.03  -0.04   0.05    -0.02  -0.04  -0.00
  33   1    -0.01  -0.02   0.01    -0.03  -0.01  -0.02    -0.00   0.02   0.02
  34   1    -0.02  -0.02   0.00    -0.01  -0.00   0.01    -0.01   0.02  -0.02
  35   1    -0.01  -0.02   0.01    -0.02  -0.00   0.00    -0.01   0.03   0.00
  36   1     0.01   0.05   0.03    -0.00   0.03   0.02    -0.03   0.04   0.01
  37   1     0.01   0.08   0.01     0.00   0.05   0.00    -0.03   0.05   0.01
  38   1     0.01   0.07   0.02    -0.00   0.03   0.01    -0.03   0.03   0.02
                      4                      5                      6
                        a                      a                      a 
 Frequencies --    63.2979                73.8477                80.2232
 Red. masses --    18.0314                15.7350                14.8944
 Frc consts  --     0.0000                 0.0000                 0.0000
 IR Inten    --     6.0480                 2.6674                 1.8691
 Raman Activ --     0.0000                 0.0000                 0.0000
 Depolar     --     0.0000                 0.0000                 0.0000
 Atom AN      X      Y      Z        X      Y      Z        X      Y      Z
   1   6    -0.08  -0.07  -0.17    -0.13  -0.09   0.06     0.13  -0.04  -0.34
   2   6    -0.08  -0.06  -0.18    -0.12  -0.05  -0.05     0.10  -0.11  -0.05
   3   8    -0.11  -0.03  -0.14    -0.06   0.02  -0.08    -0.03  -0.22   0.03
   4   6    -0.01  -0.01  -0.05    -0.04   0.02  -0.06     0.14  -0.06   0.06
   5   8     0.09  -0.04  -0.06    -0.12  -0.05  -0.08     0.40   0.10   0.07
   6   6    -0.03   0.04   0.03     0.05   0.12  -0.05     0.07  -0.11   0.07
   7   6     0.00  -0.02   0.09     0.03   0.05  -0.04     0.09  -0.05   0.03
   8   1    -0.03  -0.02   0.03    -0.00   0.01  -0.00     0.05   0.00   0.00
   9   6     0.01   0.06   0.04    -0.04   0.04   0.01     0.05  -0.10   0.08
  10   8     0.04   0.02   0.03    -0.04   0.06   0.12     0.13  -0.21   0.19
  11   8    -0.04   0.20   0.05    -0.15   0.02  -0.04    -0.09  -0.02   0.03
  12   6    -0.07   0.26   0.01    -0.26   0.02   0.03    -0.20   0.09   0.04
  13   6    -0.13   0.25  -0.07    -0.46  -0.06   0.10    -0.28   0.08  -0.11
  14  16     0.21  -0.15   0.39     0.12  -0.03  -0.13    -0.13   0.12  -0.15
  15  15     0.04  -0.11   0.05     0.24  -0.01   0.03    -0.06   0.12  -0.01
  16  16     0.26  -0.11   0.10     0.26  -0.10  -0.22    -0.15   0.18   0.13
  17   8     0.04  -0.02  -0.17     0.14   0.00   0.18    -0.03   0.05   0.03
  18   6     0.14   0.07  -0.20     0.01  -0.06   0.21    -0.04  -0.06   0.04
  19   8    -0.19  -0.09   0.04     0.25   0.07   0.03     0.00   0.03  -0.01
  20   6    -0.27  -0.09   0.02     0.14   0.08   0.06     0.08   0.01  -0.04
  21   1    -0.02  -0.02  -0.05    -0.05  -0.04   0.02     0.06   0.01  -0.11
  22   1    -0.02  -0.01  -0.04    -0.02  -0.02   0.03    -0.01  -0.03  -0.13
  23   1    -0.02  -0.03  -0.04    -0.05  -0.03   0.03     0.07   0.01  -0.11
  24   1    -0.02  -0.03  -0.05    -0.06  -0.02  -0.03     0.08  -0.01   0.02
  25   1    -0.03  -0.01  -0.06    -0.03  -0.00  -0.02    -0.00  -0.05  -0.00
  26   1    -0.01   0.02   0.00     0.02   0.06  -0.03     0.02  -0.04   0.03
  27   1    -0.01   0.02   0.01     0.03   0.04   0.02     0.02  -0.04   0.00
  28   1    -0.02   0.08   0.01    -0.06  -0.02  -0.01    -0.07   0.04   0.02
  29   1    -0.02   0.08   0.01    -0.07   0.05   0.02    -0.06   0.04   0.04
  30   1    -0.04   0.06  -0.03    -0.15   0.01   0.04    -0.07   0.01  -0.04
  31   1    -0.04   0.06  -0.03    -0.13  -0.06   0.03    -0.08   0.01  -0.05
  32   1    -0.04   0.09  -0.03    -0.15  -0.01   0.04    -0.10   0.05  -0.04
  33   1     0.05   0.02  -0.05    -0.01  -0.02   0.05    -0.00  -0.02   0.02
  34   1     0.06   0.03  -0.04    -0.01  -0.02   0.05    -0.03  -0.03  -0.01
  35   1     0.03   0.03  -0.08     0.01  -0.02   0.09    -0.01  -0.03   0.02
  36   1    -0.08  -0.01  -0.01     0.03   0.04   0.02     0.03  -0.01  -0.01
  37   1    -0.08  -0.03   0.01     0.04   0.03   0.02     0.02  -0.00  -0.01
  38   1    -0.08  -0.04   0.01     0.03   0.01   0.02     0.03   0.02  -0.02
                      7                      8                      9
                        a                      a                      a 
 Frequencies --    90.0840                86.0626                90.2155
 Red. masses --    12.8011                13.6844                12.6500
 Frc consts  --     0.0000                 0.0000                 0.0000
 IR Inten    --     3.1436                 5.2012                 2.8438
 Raman Activ --     0.0000                 0.0000                 0.0000
 Depolar     --     0.0000                 0.0000                 0.0000
 Atom AN      X      Y      Z        X      Y      Z        X      Y      Z
   1   6    -0.24   0.28   0.25    -0.02   0.01   0.08     0.12  -0.23   0.24
   2   6    -0.08   0.06   0.08    -0.04   0.06   0.03     0.11  -0.06  -0.11
   3   8    -0.20  -0.13  -0.06     0.01   0.10   0.01     0.29   0.10  -0.13
   4   6    -0.03   0.08  -0.12     0.05   0.13  -0.01     0.17  -0.00  -0.08
   5   8     0.17   0.37  -0.13     0.10   0.21  -0.00     0.23  -0.05  -0.10
   6   6    -0.11  -0.01  -0.14     0.01   0.09  -0.00     0.04  -0.09  -0.05
   7   6     0.01  -0.00  -0.03    -0.02  -0.01   0.04     0.04  -0.06  -0.05
   8   1    -0.00   0.02   0.02    -0.01   0.01   0.03     0.01  -0.03  -0.03
   9   6     0.15  -0.15  -0.03    -0.02  -0.09   0.09     0.05   0.01  -0.10
  10   8     0.30  -0.37  -0.02     0.06  -0.23   0.17     0.04   0.04  -0.16
  11   8     0.08  -0.01  -0.06    -0.13   0.02   0.07     0.07   0.03  -0.11
  12   6     0.06  -0.05  -0.03    -0.10   0.05   0.04     0.02   0.02  -0.08
  13   6    -0.08  -0.11   0.06     0.21   0.19  -0.20    -0.21  -0.08   0.07
  14  16     0.03   0.03   0.05    -0.03  -0.13  -0.15     0.03   0.01   0.10
  15  15     0.01   0.02   0.03     0.02  -0.16  -0.02    -0.04   0.02   0.08
  16  16     0.02   0.02   0.02     0.10  -0.22  -0.15    -0.27   0.02   0.03
  17   8     0.02  -0.01   0.01    -0.05  -0.01   0.06    -0.02  -0.02   0.09
  18   6     0.07  -0.12  -0.01    -0.29   0.38   0.13    -0.16   0.26   0.12
  19   8    -0.02   0.03   0.02     0.09  -0.13  -0.02    -0.00   0.03   0.06
  20   6    -0.14   0.03   0.02     0.04  -0.11  -0.01    -0.28   0.03   0.05
  21   1    -0.05   0.11   0.10    -0.02  -0.01   0.03    -0.01  -0.11   0.07
  22   1    -0.06   0.10   0.09     0.00   0.00   0.03     0.09  -0.04   0.11
  23   1    -0.13   0.08   0.06    -0.01   0.00   0.02     0.02  -0.10   0.10
  24   1    -0.04  -0.00   0.01    -0.02   0.02   0.00    -0.02  -0.05  -0.07
  25   1     0.04   0.02   0.03    -0.01   0.02   0.01     0.05   0.01  -0.06
  26   1    -0.05  -0.02  -0.02     0.01   0.02  -0.00     0.00  -0.05   0.01
  27   1    -0.04  -0.01  -0.07    -0.01   0.04   0.01    -0.01  -0.02  -0.04
  28   1     0.04  -0.03  -0.02    -0.09   0.07   0.03     0.05  -0.03  -0.03
  29   1     0.02   0.01  -0.02    -0.03  -0.06   0.04     0.01   0.06  -0.04
  30   1    -0.04  -0.01   0.03     0.12   0.00  -0.07    -0.10   0.01   0.03
  31   1    -0.02  -0.06   0.02     0.06   0.13  -0.08    -0.06  -0.08   0.03
  32   1    -0.03  -0.03   0.02     0.07   0.06  -0.06    -0.07  -0.03   0.03
  33   1     0.04  -0.03   0.01    -0.15   0.12  -0.03    -0.09   0.08  -0.01
  34   1     0.01  -0.04  -0.02    -0.05   0.14   0.10    -0.03   0.10   0.08
  35   1     0.02  -0.05  -0.01    -0.10   0.15   0.06    -0.05   0.10   0.05
  36   1    -0.05   0.03  -0.00     0.00  -0.02   0.00    -0.11   0.06   0.01
  37   1    -0.04   0.01   0.01     0.02  -0.03  -0.00    -0.07   0.01   0.02
  38   1    -0.05  -0.01   0.01     0.01  -0.04  -0.00    -0.11  -0.04   0.02
                     10                     11                     12
                        a                      a                      a 
 Frequencies --    85.1678                88.9030               108.3901
 Red. masses --    11.0710                10.7928                11.9761
 Frc consts  --     0.0000                 0.0000                 0.0000
 IR Inten    --     2.3947                 2.1942                 2.4909
 Raman Activ --     0.0000                 0.0000                 0.0000
 Depolar     --     0.0000                 0.0000                 0.0000
 Atom AN      X      Y      Z        X      Y      Z        X      Y      Z
   1   6     0.02   0.21  -0.19    -0.18   0.11   0.30     0.12  -0.31  -0.02
   2   6     0.04   0.00   0.13     0.01  -0.04  -0.15    -0.07   0.03   0.07
   3   8    -0.14  -0.20   0.15    -0.05  -0.09  -0.15     0.14   0.24   0.04
   4   6    -0.08  -0.10   0.10     0.01  -0.09  -0.06     0.03   0.17  -0.02
   5   8    -0.09  -0.03   0.11     0.13  -0.15  -0.07    -0.01   0.27  -0.02
   6   6    -0.01  -0.09   0.03    -0.02  -0.04   0.03    -0.11   0.01  -0.07
   7   6     0.01  -0.00  -0.02     0.01  -0.06   0.08    -0.11  -0.04  -0.04
   8   1     0.00  -0.01  -0.02     0.00  -0.01   0.02    -0.05  -0.02   0.00
   9   6     0.05   0.07  -0.07     0.00  -0.03   0.07    -0.06  -0.06  -0.06
  10   8     0.10  -0.01  -0.16    -0.10   0.12   0.02     0.05  -0.26  -0.07
  11   8     0.06   0.21  -0.07     0.12  -0.15   0.12    -0.16   0.13  -0.10
  12   6     0.11   0.08  -0.04     0.02   0.07   0.04    -0.06  -0.03  -0.05
  13   6    -0.16  -0.07   0.33    -0.12   0.04  -0.15    -0.04  -0.05   0.16
  14  16     0.08  -0.03   0.08    -0.02  -0.05   0.13    -0.07  -0.10   0.17
  15  15     0.01  -0.05  -0.04    -0.06   0.02  -0.04    -0.05  -0.01   0.04
  16  16    -0.05  -0.09  -0.13    -0.13   0.07   0.07     0.01  -0.01   0.03
  17   8    -0.01  -0.01  -0.05    -0.04   0.03  -0.11    -0.04   0.04  -0.10
  18   6    -0.15   0.36  -0.01     0.01   0.17  -0.13     0.15   0.02  -0.17
  19   8     0.03  -0.10  -0.03    -0.04  -0.01  -0.03    -0.13   0.03   0.03
  20   6     0.14  -0.13  -0.10     0.49  -0.01  -0.03     0.37   0.05   0.08
  21   1     0.05   0.10  -0.06    -0.04   0.04   0.09    -0.02  -0.14  -0.01
  22   1    -0.05   0.04  -0.09    -0.01   0.10   0.14     0.06  -0.13  -0.02
  23   1     0.01   0.09  -0.08    -0.14  -0.02   0.12     0.11  -0.07  -0.01
  24   1     0.06   0.03   0.08    -0.03  -0.09  -0.09    -0.04   0.06   0.03
  25   1     0.00  -0.03   0.07     0.08   0.04  -0.08    -0.09  -0.02   0.03
  26   1    -0.00  -0.02   0.01    -0.01  -0.00   0.01    -0.03  -0.04   0.00
  27   1     0.02  -0.04   0.01    -0.01  -0.01   0.01    -0.07   0.01  -0.05
  28   1     0.11  -0.04  -0.03     0.02   0.04   0.03     0.00  -0.04  -0.03
  29   1     0.03   0.09  -0.06     0.01   0.05   0.02    -0.02  -0.01  -0.04
  30   1    -0.12   0.05   0.12    -0.04  -0.01  -0.06    -0.03   0.01   0.06
  31   1    -0.04  -0.09   0.14    -0.04  -0.01  -0.05    -0.01  -0.02   0.07
  32   1    -0.03  -0.05   0.10    -0.05   0.06  -0.06     0.01  -0.05   0.05
  33   1    -0.09   0.12  -0.06     0.00   0.05  -0.05     0.07   0.00  -0.02
  34   1    -0.02   0.13   0.06     0.02   0.06  -0.01     0.07   0.01  -0.05
  35   1    -0.05   0.13   0.00    -0.00   0.06  -0.06     0.04   0.01  -0.09
  36   1     0.05  -0.05  -0.03     0.20  -0.10   0.00     0.16  -0.08   0.04
  37   1     0.05  -0.06  -0.02     0.12  -0.00  -0.01     0.10   0.03   0.02
  38   1     0.05  -0.02  -0.05     0.20   0.09  -0.02     0.16   0.10   0.02
                     13                     14                     15
                        a                      a                      a 
 Frequencies --   118.8188               121.5004               148.8742
 Red. masses --    13.9483                11.7845                17.0154
 Frc consts  --     0.0000                 0.0000                 0.0000
 IR Inten    --    12.5386                 0.6855                 1.1776
 Raman Activ --     0.0000                 0.0000                 0.0000
 Depolar     --     0.0000                 0.0000                 0.0000
 Atom AN      X      Y      Z        X      Y      Z        X      Y      Z
   1   6    -0.01  -0.15   0.09     0.07  -0.09  -0.14     0.02  -0.04   0.01
   2   6    -0.04  -0.01  -0.06    -0.09   0.07   0.18    -0.02   0.02   0.01
   3   8     0.05   0.12  -0.02     0.03   0.14   0.09     0.01   0.05   0.02
   4   6     0.03   0.05   0.03    -0.08   0.10  -0.01    -0.03   0.02   0.00
   5   8     0.06   0.01   0.03    -0.27   0.11  -0.01    -0.02   0.05   0.01
   6   6    -0.03   0.03   0.06    -0.04   0.09  -0.06    -0.09  -0.04  -0.00
   7   6    -0.02   0.01   0.09     0.02   0.04   0.05    -0.04  -0.01   0.02
   8   1     0.00   0.01   0.03     0.00   0.03   0.05    -0.01  -0.01   0.01
   9   6     0.06   0.01   0.05     0.14  -0.11   0.06    -0.01  -0.02   0.00
  10   8     0.07  -0.02  -0.08     0.07   0.02  -0.00    -0.02  -0.00   0.01
  11   8     0.18   0.09   0.13     0.35  -0.37   0.13    -0.00  -0.07   0.00
  12   6     0.22   0.19   0.03     0.15   0.02   0.00    -0.05  -0.04   0.01
  13   6    -0.06   0.08   0.12    -0.28  -0.09  -0.32     0.00  -0.00  -0.12
  14  16    -0.14   0.04  -0.05     0.09   0.01   0.05    -0.03   0.07   0.26
  15  15    -0.17   0.02  -0.13    -0.01  -0.04  -0.03     0.09   0.20   0.19
  16  16     0.32   0.02  -0.03    -0.03  -0.01   0.07    -0.19   0.05  -0.36
  17   8    -0.21   0.13   0.04     0.01  -0.05  -0.05     0.05   0.18   0.16
  18   6    -0.29  -0.30   0.12    -0.04   0.10  -0.03     0.25   0.01   0.07
  19   8    -0.04  -0.10  -0.10     0.01   0.01  -0.02     0.14  -0.09   0.14
  20   6     0.05  -0.17  -0.23    -0.04   0.04   0.04    -0.02  -0.37  -0.38
  21   1    -0.02  -0.07   0.02     0.00  -0.04  -0.02    -0.00  -0.02  -0.00
  22   1     0.02  -0.02   0.04     0.01  -0.10  -0.08     0.01  -0.02   0.00
  23   1     0.00  -0.06   0.04     0.09   0.02  -0.08     0.02  -0.01   0.00
  24   1    -0.03  -0.02  -0.04    -0.02   0.10   0.09    -0.01   0.01   0.00
  25   1    -0.02   0.02  -0.04    -0.09  -0.03   0.10    -0.01   0.00   0.00
  26   1    -0.01   0.00   0.03    -0.02   0.03  -0.01    -0.04  -0.03   0.02
  27   1    -0.02   0.01   0.01    -0.02   0.03  -0.02    -0.04  -0.02  -0.03
  28   1     0.14   0.03   0.02     0.09   0.03   0.03    -0.04   0.01   0.01
  29   1     0.06   0.12  -0.04     0.04   0.09   0.01    -0.01  -0.03   0.02
  30   1    -0.09   0.05   0.03    -0.12  -0.05  -0.13     0.02  -0.02  -0.04
  31   1    -0.02  -0.05   0.08    -0.08  -0.11  -0.10    -0.00   0.01  -0.06
  32   1    -0.01   0.05   0.02    -0.13   0.07  -0.12    -0.01   0.01  -0.03
  33   1    -0.08  -0.11   0.07    -0.03   0.04  -0.03     0.11  -0.00   0.06
  34   1    -0.13  -0.12  -0.04    -0.00   0.04   0.02     0.08  -0.01  -0.01
  35   1    -0.07  -0.11   0.09    -0.02   0.04  -0.01     0.07  -0.00  -0.02
  36   1     0.02  -0.06  -0.08    -0.02   0.02   0.02    -0.01  -0.06  -0.19
  37   1     0.02  -0.09  -0.06    -0.01   0.03   0.01    -0.02  -0.23  -0.08
  38   1     0.02  -0.03  -0.09    -0.02   0.00   0.02    -0.01  -0.09  -0.16
                     16                     17                     18
                        a                      a                      a 
 Frequencies --   158.9432               189.3087               116.3216
 Red. masses --    18.0028                21.6267                 2.2356
 Frc consts  --     0.0000                 0.0000                 0.0000
 IR Inten    --     9.3548                 3.4309                 0.3117
 Raman Activ --     0.0000                 0.0000                 0.0000
 Depolar     --     0.0000                 0.0000                 0.0000
 Atom AN      X      Y      Z        X      Y      Z        X      Y      Z
   1   6    -0.03  -0.02   0.00    -0.03  -0.00  -0.01    -0.01  -0.01  -0.01
   2   6    -0.01   0.00  -0.09    -0.04   0.03  -0.02    -0.01  -0.00  -0.00
   3   8    -0.03   0.05   0.01    -0.03   0.07   0.01    -0.01   0.00  -0.00
   4   6     0.00   0.01   0.07    -0.01   0.04   0.03     0.00   0.01  -0.00
   5   8     0.07  -0.02   0.08    -0.02   0.05   0.03    -0.01   0.01  -0.00
   6   6    -0.01   0.02   0.09    -0.04   0.02   0.04     0.02   0.02   0.00
   7   6    -0.06  -0.01   0.06    -0.11  -0.14   0.08    -0.02  -0.03   0.01
   8   1     0.01   0.02   0.02    -0.05  -0.05   0.04    -0.01  -0.01   0.01
   9   6    -0.03  -0.05   0.06    -0.11  -0.10   0.06    -0.03  -0.03   0.01
  10   8    -0.05  -0.07  -0.07    -0.14  -0.13  -0.04    -0.04  -0.03  -0.02
  11   8     0.11   0.02   0.16    -0.06   0.03   0.12    -0.00   0.00   0.03
  12   6     0.21   0.18   0.01     0.06   0.09   0.03     0.05   0.03  -0.01
  13   6    -0.05   0.08   0.08     0.02   0.07   0.10     0.02   0.02   0.03
  14  16    -0.34   0.01  -0.43     0.01  -0.43   0.06    -0.02  -0.09  -0.05
  15  15    -0.01  -0.07   0.14     0.25   0.02  -0.27     0.10   0.01  -0.02
  16  16    -0.06  -0.18  -0.15    -0.24   0.25   0.21    -0.04   0.04   0.02
  17   8    -0.02   0.01   0.06     0.15   0.01  -0.05     0.08  -0.04   0.02
  18   6     0.38   0.11  -0.13     0.00  -0.02   0.02    -0.01   0.01   0.06
  19   8     0.13  -0.04   0.10     0.37   0.08  -0.21     0.01   0.04  -0.01
  20   6    -0.08   0.01   0.17    -0.05   0.09  -0.18    -0.09   0.02  -0.03
  21   1    -0.01  -0.02  -0.02    -0.01  -0.01  -0.01    -0.00  -0.00  -0.00
  22   1    -0.00   0.03   0.02    -0.01   0.00  -0.00    -0.00  -0.00  -0.01
  23   1    -0.01  -0.03   0.03    -0.00  -0.01   0.00     0.00   0.00  -0.01
  24   1    -0.00  -0.03  -0.04    -0.01   0.01  -0.01    -0.00   0.00   0.00
  25   1     0.00   0.03  -0.05    -0.02   0.01  -0.01    -0.01  -0.00   0.00
  26   1     0.01   0.01   0.02     0.01   0.01  -0.01     0.01   0.01  -0.01
  27   1    -0.00   0.01   0.04    -0.02   0.03   0.04     0.01   0.02   0.02
  28   1     0.15   0.04   0.03     0.06   0.02   0.02     0.03   0.01   0.01
  29   1     0.05   0.12  -0.06     0.01   0.04  -0.03     0.01   0.02  -0.02
  30   1    -0.10   0.04   0.00    -0.04   0.02   0.02    -0.02   0.01   0.00
  31   1    -0.01  -0.04   0.08     0.01   0.01   0.07     0.01  -0.01   0.03
  32   1     0.01   0.05  -0.00     0.04   0.02   0.01     0.02   0.01  -0.00
  33   1     0.16   0.04   0.00     0.00   0.02  -0.02     0.02   0.05  -0.02
  34   1     0.16   0.04  -0.02    -0.05  -0.00   0.01    -0.06   0.02   0.05
  35   1     0.09   0.04  -0.14     0.02  -0.04   0.03     0.02  -0.06   0.03
  36   1    -0.05   0.04   0.07    -0.09   0.13   0.00     0.23  -0.22  -0.43
  37   1    -0.00   0.03   0.04     0.08   0.02  -0.05    -0.59   0.01  -0.00
  38   1    -0.05  -0.04   0.05    -0.10  -0.08  -0.10     0.25   0.24   0.40
                     19                     20                     21
                        a                      a                      a 
 Frequencies --   122.9062               198.6247               227.0823
 Red. masses --     1.8985                10.0931                11.1076
 Frc consts  --     0.0000                 0.0000                 0.0000
 IR Inten    --     0.4960                 2.2496                 4.7639
 Raman Activ --     0.0000                 0.0000                 0.0000
 Depolar     --     0.0000                 0.0000                 0.0000
 Atom AN      X      Y      Z        X      Y      Z        X      Y      Z
   1   6    -0.01  -0.02   0.01    -0.08   0.01  -0.03     0.06  -0.05   0.02
   2   6    -0.00  -0.01  -0.04    -0.00  -0.00  -0.32     0.04   0.03  -0.07
   3   8    -0.01   0.03   0.03    -0.14   0.20   0.21     0.01   0.06   0.02
   4   6    -0.01   0.01   0.05    -0.02   0.09   0.33    -0.11  -0.05   0.00
   5   8     0.00   0.01   0.05    -0.02   0.04   0.37    -0.05   0.12   0.01
   6   6    -0.02  -0.02   0.02     0.06   0.04   0.16    -0.37  -0.33  -0.05
   7   6    -0.01   0.01  -0.01    -0.06   0.07  -0.06    -0.01   0.02   0.06
   8   1     0.00   0.00  -0.01    -0.02   0.00  -0.04     0.02   0.02   0.02
   9   6    -0.00   0.00  -0.01    -0.00   0.02  -0.10     0.07   0.01   0.05
  10   8     0.01  -0.02  -0.02     0.11  -0.15  -0.13     0.00   0.13   0.02
  11   8    -0.00  -0.01  -0.02    -0.00  -0.04  -0.15     0.08   0.02   0.07
  12   6    -0.00  -0.01  -0.02    -0.00  -0.11  -0.12    -0.07   0.04   0.13
  13   6    -0.00  -0.01  -0.03    -0.05  -0.13  -0.17     0.00   0.08   0.08
  14  16    -0.03   0.06   0.02     0.08   0.02   0.07    -0.13   0.17  -0.07
  15  15    -0.02   0.02   0.03     0.03  -0.01  -0.02     0.05  -0.01  -0.06
  16  16     0.07  -0.01  -0.04     0.02   0.01   0.02     0.14   0.01   0.03
  17   8     0.05  -0.11  -0.02     0.05  -0.05  -0.02     0.22  -0.40  -0.06
  18   6    -0.01   0.04   0.00    -0.03  -0.01   0.01     0.01   0.02  -0.00
  19   8    -0.04   0.01   0.02    -0.01   0.02  -0.01     0.09   0.06  -0.04
  20   6     0.01  -0.00  -0.00    -0.00   0.02  -0.01    -0.00   0.03  -0.09
  21   1     0.00  -0.02  -0.02     0.04  -0.05  -0.20     0.02  -0.05  -0.06
  22   1    -0.01   0.02   0.01    -0.09   0.22   0.06     0.00   0.05   0.03
  23   1    -0.00  -0.03   0.03    -0.03  -0.16   0.17     0.03  -0.07   0.07
  24   1     0.00  -0.02  -0.02     0.03  -0.15  -0.15     0.01  -0.03  -0.04
  25   1     0.00   0.02  -0.03     0.02   0.12  -0.21     0.01   0.03  -0.05
  26   1    -0.00  -0.02   0.01     0.07  -0.01   0.03    -0.22  -0.19   0.12
  27   1    -0.01  -0.01  -0.00     0.04   0.01   0.07    -0.15  -0.17  -0.20
  28   1    -0.00  -0.00  -0.00    -0.00  -0.03  -0.04    -0.07   0.02   0.03
  29   1    -0.00  -0.01  -0.00    -0.00  -0.03  -0.03    -0.02  -0.01   0.09
  30   1     0.00  -0.01  -0.01    -0.01  -0.04  -0.05     0.12   0.04   0.08
  31   1    -0.00  -0.00  -0.01    -0.02  -0.05  -0.07    -0.01   0.05  -0.11
  32   1    -0.00  -0.00  -0.01    -0.03  -0.02  -0.05    -0.10  -0.03   0.09
  33   1     0.29   0.44  -0.20    -0.06  -0.06   0.02    -0.08  -0.02  -0.05
  34   1    -0.49   0.11   0.24     0.06  -0.01  -0.02     0.07   0.03   0.04
  35   1     0.19  -0.51  -0.04    -0.04   0.08   0.02    -0.03   0.09   0.02
  36   1    -0.02   0.02   0.04     0.01  -0.00  -0.01     0.00   0.02  -0.05
  37   1     0.07  -0.01  -0.00    -0.02   0.01  -0.00    -0.02  -0.00  -0.02
  38   1    -0.02  -0.02  -0.05     0.01   0.01   0.01     0.00   0.01  -0.02
                     22                     23                     24
                        a                      a                      a 
 Frequencies --   219.1653               234.3870               242.3323
 Red. masses --     9.6905                 8.0509                 7.5227
 Frc consts  --     0.0000                 0.0000                 0.0000
 IR Inten    --     7.5678                18.8339                15.5239
 Raman Activ --     0.0000                 0.0000                 0.0000
 Depolar     --     0.0000                 0.0000                 0.0000
 Atom AN      X      Y      Z        X      Y      Z        X      Y      Z
   1   6    -0.00  -0.00  -0.02    -0.09   0.04  -0.02    -0.07   0.01  -0.00
   2   6    -0.01   0.01  -0.02    -0.10   0.05   0.01    -0.06   0.06  -0.11
   3   8    -0.01   0.02   0.01    -0.01   0.10  -0.05    -0.03   0.16  -0.01
   4   6    -0.02   0.00   0.02     0.06   0.04   0.08    -0.03  -0.01   0.13
   5   8    -0.02   0.00   0.02     0.17  -0.17   0.08     0.13  -0.10   0.15
   6   6    -0.03  -0.01   0.01     0.11   0.12   0.13    -0.14  -0.15   0.09
   7   6     0.02   0.00   0.03    -0.08  -0.03   0.02    -0.01   0.10   0.00
   8   1    -0.01  -0.00   0.02    -0.02  -0.02  -0.01     0.00   0.02  -0.02
   9   6     0.12   0.06  -0.03    -0.05  -0.00  -0.04     0.03   0.10  -0.02
  10   8     0.13   0.08  -0.14    -0.01  -0.12  -0.21     0.09   0.04   0.07
  11   8     0.17   0.05  -0.04     0.05   0.00  -0.01    -0.04   0.03  -0.09
  12   6    -0.11  -0.03   0.12     0.03  -0.01  -0.00    -0.07  -0.09  -0.02
  13   6    -0.02   0.02   0.04    -0.03  -0.03  -0.03    -0.00  -0.07  -0.06
  14  16     0.04  -0.12   0.01    -0.16  -0.01   0.01     0.08   0.12   0.07
  15  15    -0.10  -0.12  -0.10    -0.02   0.05   0.05    -0.07  -0.08  -0.10
  16  16    -0.09  -0.08   0.04     0.10   0.03   0.02     0.02  -0.05   0.04
  17   8    -0.30   0.34   0.07     0.15  -0.30   0.02    -0.12   0.05   0.00
  18   6     0.04  -0.01  -0.07     0.03   0.02   0.05     0.01   0.01  -0.06
  19   8     0.29  -0.10  -0.09    -0.12   0.14   0.05     0.31  -0.08  -0.10
  20   6    -0.00   0.02   0.11     0.02   0.02  -0.15    -0.00   0.01   0.05
  21   1     0.00  -0.01  -0.02    -0.12   0.07   0.27    -0.15   0.06   0.32
  22   1    -0.01   0.01  -0.00     0.12  -0.24  -0.06     0.17  -0.27  -0.04
  23   1     0.00  -0.01   0.01    -0.08   0.20  -0.22    -0.09   0.21  -0.24
  24   1     0.00  -0.00  -0.01    -0.04   0.05   0.01    -0.03   0.01  -0.04
  25   1    -0.00   0.01  -0.01    -0.04  -0.01   0.03    -0.02   0.03  -0.04
  26   1    -0.01  -0.01   0.01     0.10   0.07  -0.02    -0.09  -0.11   0.10
  27   1    -0.01  -0.01  -0.01     0.05   0.07   0.12    -0.05  -0.10  -0.08
  28   1    -0.13  -0.01   0.00    -0.00  -0.01  -0.01    -0.04  -0.03  -0.01
  29   1    -0.02  -0.05   0.14     0.01  -0.00   0.01    -0.02  -0.04   0.00
  30   1     0.30   0.08   0.17     0.20   0.06   0.12    -0.18  -0.09  -0.14
  31   1    -0.03   0.05  -0.34    -0.03  -0.01  -0.27     0.02  -0.02   0.21
  32   1    -0.28  -0.11   0.19    -0.23  -0.09   0.13     0.19   0.07  -0.15
  33   1     0.11   0.03   0.04    -0.04  -0.00  -0.02     0.03   0.01  -0.00
  34   1    -0.04  -0.02  -0.05     0.05   0.02   0.05     0.00   0.00  -0.02
  35   1     0.03  -0.08  -0.07    -0.01   0.05   0.01     0.01  -0.01  -0.04
  36   1     0.01   0.01  -0.00     0.00   0.01  -0.04    -0.00   0.02  -0.02
  37   1    -0.07   0.06   0.02     0.03  -0.04  -0.03    -0.06   0.04   0.01
  38   1     0.01  -0.02   0.12     0.00   0.02  -0.10    -0.00  -0.03   0.09
                     25                     26                     27
                        a                      a                      a 
 Frequencies --   285.2879               301.8724               310.1481
 Red. masses --    16.2221                11.4152                11.5817
 Frc consts  --     0.0000                 0.0000                 0.0000
 IR Inten    --    21.4811                59.4357                13.3502
 Raman Activ --     0.0000                 0.0000                 0.0000
 Depolar     --     0.0000                 0.0000                 0.0000
 Atom AN      X      Y      Z        X      Y      Z        X      Y      Z
   1   6     0.02   0.01   0.00    -0.13   0.05  -0.03    -0.05   0.02  -0.02
   2   6     0.00  -0.01   0.10    -0.23   0.12   0.28    -0.06   0.02   0.01
   3   8     0.02  -0.07  -0.03     0.08   0.15  -0.14     0.01   0.07  -0.00
   4   6     0.03   0.00  -0.06     0.06   0.02  -0.01     0.01   0.02   0.02
   5   8     0.02  -0.03  -0.08     0.31  -0.33  -0.03     0.01  -0.03   0.03
   6   6     0.09   0.11  -0.01    -0.05   0.00   0.11     0.01   0.01   0.03
   7   6    -0.00   0.01  -0.00    -0.07   0.03   0.04     0.02  -0.07   0.07
   8   1    -0.01  -0.00  -0.00    -0.01   0.00  -0.01     0.00  -0.01   0.03
   9   6     0.01   0.03  -0.02    -0.04   0.05  -0.02     0.19   0.01  -0.03
  10   8     0.04  -0.00  -0.01     0.02  -0.06  -0.09     0.13   0.08  -0.40
  11   8    -0.01   0.02  -0.05    -0.00   0.02  -0.02     0.26  -0.01  -0.02
  12   6    -0.06  -0.03  -0.00    -0.02  -0.05   0.01    -0.30  -0.06   0.29
  13   6    -0.00  -0.01  -0.01    -0.01  -0.04  -0.04    -0.00   0.08   0.09
  14  16    -0.06   0.05   0.14    -0.11   0.13   0.09    -0.07  -0.19  -0.15
  15  15    -0.39  -0.10  -0.07     0.03   0.08  -0.01     0.11  -0.01   0.04
  16  16     0.16  -0.13   0.17     0.02   0.10  -0.09    -0.05  -0.02   0.01
  17   8    -0.24  -0.28   0.23     0.10  -0.07  -0.15     0.05   0.06   0.02
  18   6     0.16   0.08  -0.00    -0.07  -0.04  -0.07     0.02   0.00   0.05
  19   8     0.27   0.26  -0.08     0.19  -0.20  -0.02    -0.25   0.10   0.05
  20   6     0.01   0.13  -0.29     0.00  -0.08   0.18     0.00   0.02  -0.07
  21   1     0.06  -0.02  -0.14     0.05  -0.03  -0.24    -0.01   0.01  -0.02
  22   1    -0.08   0.11   0.01    -0.21   0.16  -0.02    -0.03   0.01  -0.01
  23   1     0.05  -0.08   0.10     0.06  -0.10   0.13    -0.01  -0.00   0.00
  24   1    -0.00   0.03   0.04    -0.11   0.18   0.13    -0.02   0.02   0.01
  25   1    -0.00  -0.03   0.05    -0.11  -0.07   0.18    -0.03  -0.00   0.01
  26   1     0.05   0.07  -0.05    -0.01  -0.02   0.04     0.01   0.00   0.00
  27   1     0.04   0.06   0.06    -0.03   0.00   0.01    -0.00   0.01   0.02
  28   1    -0.04  -0.01  -0.01    -0.02  -0.01  -0.00    -0.26  -0.00   0.04
  29   1    -0.02  -0.02   0.02    -0.00  -0.02   0.01    -0.07  -0.09   0.26
  30   1    -0.07  -0.04  -0.05    -0.01  -0.03  -0.03    -0.12  -0.08  -0.09
  31   1     0.01   0.00   0.09    -0.00  -0.01   0.00     0.01   0.10   0.23
  32   1     0.08   0.03  -0.06     0.01   0.01  -0.03     0.20   0.10  -0.10
  33   1     0.09   0.05   0.01    -0.05  -0.02  -0.04     0.00   0.00   0.01
  34   1     0.12   0.05   0.06    -0.03  -0.01  -0.02    -0.01  -0.00   0.01
  35   1     0.02   0.05  -0.12    -0.02  -0.00   0.02     0.01  -0.01   0.02
  36   1    -0.00   0.07  -0.15    -0.00  -0.02   0.05     0.01  -0.01  -0.00
  37   1    -0.03  -0.02  -0.07    -0.03   0.03   0.04     0.03  -0.03  -0.01
  38   1    -0.00   0.03  -0.08    -0.00  -0.05   0.10     0.01   0.04  -0.07
                     28                     29                     30
                        a                      a                      a 
 Frequencies --   327.1678               385.9457               399.8080
 Red. masses --    15.7502                13.8833                17.2384
 Frc consts  --     0.0000                 0.0000                 0.0000
 IR Inten    --    16.2895                 6.7870                17.1025
 Raman Activ --     0.0000                 0.0000                 0.0000
 Depolar     --     0.0000                 0.0000                 0.0000
 Atom AN      X      Y      Z        X      Y      Z        X      Y      Z
   1   6     0.13  -0.04   0.03     0.30  -0.09   0.12    -0.14   0.04  -0.06
   2   6     0.17  -0.08  -0.10     0.15   0.15   0.03    -0.05  -0.10  -0.01
   3   8    -0.05  -0.17   0.05    -0.25  -0.20  -0.06     0.14   0.07   0.03
   4   6    -0.02  -0.01  -0.05    -0.19  -0.08  -0.05     0.10   0.04   0.01
   5   8    -0.17   0.18  -0.05     0.15  -0.06  -0.07    -0.08   0.04   0.02
   6   6     0.12   0.16  -0.03    -0.17   0.15   0.11     0.10  -0.04  -0.05
   7   6    -0.04  -0.07   0.02    -0.18   0.21   0.06     0.08  -0.08  -0.04
   8   1    -0.01  -0.01   0.02    -0.06   0.05   0.01     0.03  -0.01  -0.01
   9   6     0.01  -0.07  -0.00    -0.10   0.17   0.02     0.04  -0.08  -0.02
  10   8    -0.04  -0.05  -0.21     0.05  -0.10  -0.10    -0.02   0.04   0.05
  11   8     0.07  -0.03   0.03    -0.01   0.13   0.05     0.01  -0.07  -0.03
  12   6    -0.12  -0.01   0.12     0.06  -0.09   0.09    -0.03   0.04  -0.06
  13   6    -0.00   0.05   0.04    -0.03  -0.11  -0.11     0.02   0.06   0.06
  14  16    -0.23   0.15   0.22    -0.05   0.10  -0.01    -0.13   0.10   0.03
  15  15    -0.13   0.16   0.02     0.21  -0.12   0.06     0.07  -0.04   0.32
  16  16     0.08   0.17  -0.13    -0.06  -0.22   0.08    -0.06  -0.32   0.09
  17   8     0.08  -0.20  -0.15     0.07   0.15  -0.14     0.04   0.13  -0.35
  18   6    -0.08  -0.05  -0.10    -0.09  -0.03  -0.06    -0.23  -0.08  -0.25
  19   8     0.31  -0.24  -0.01     0.04   0.14   0.05     0.28   0.28   0.22
  20   6     0.00  -0.10   0.22     0.00   0.06  -0.09     0.02   0.07  -0.13
  21   1     0.00  -0.00   0.08     0.00  -0.12   0.02     0.01   0.06  -0.01
  22   1     0.10  -0.05   0.02     0.15  -0.03   0.06    -0.07   0.02  -0.03
  23   1     0.00   0.02  -0.03     0.16  -0.04   0.07    -0.08   0.02  -0.04
  24   1     0.07  -0.09  -0.05     0.06   0.04   0.02    -0.02  -0.03  -0.01
  25   1     0.07   0.02  -0.07     0.06   0.03   0.02    -0.02  -0.02  -0.01
  26   1     0.10   0.13  -0.10    -0.04   0.11  -0.02     0.04  -0.03  -0.00
  27   1     0.06   0.11   0.12    -0.00   0.04   0.10     0.01  -0.00  -0.02
  28   1    -0.09   0.01   0.02    -0.00  -0.03   0.02     0.00   0.01  -0.01
  29   1    -0.03  -0.03   0.09     0.02  -0.04   0.03    -0.01   0.02  -0.02
  30   1    -0.03  -0.02  -0.02    -0.02  -0.07  -0.07     0.01   0.04   0.04
  31   1     0.00   0.04   0.07    -0.01  -0.06  -0.05     0.01   0.03   0.03
  32   1     0.06   0.03  -0.02    -0.04   0.04  -0.05     0.02  -0.02   0.03
  33   1    -0.06  -0.02  -0.05    -0.04  -0.02  -0.02    -0.10  -0.04  -0.08
  34   1    -0.01  -0.01  -0.01    -0.06  -0.02  -0.04    -0.12  -0.04  -0.11
  35   1    -0.03   0.01   0.00    -0.01  -0.02   0.04    -0.05  -0.04   0.03
  36   1    -0.01  -0.01   0.06    -0.00   0.03  -0.05    -0.01   0.08  -0.11
  37   1    -0.03   0.04   0.05    -0.00  -0.02  -0.02    -0.02  -0.08  -0.01
  38   1    -0.01  -0.07   0.13    -0.00   0.02  -0.04    -0.01   0.01  -0.06
                     31                     32                     33
                        a                      a                      a 
 Frequencies --   405.6898               443.2071               445.6408
 Red. masses --    19.8744                24.3538                14.1947
 Frc consts  --     0.0000                 0.0000                 0.0000
 IR Inten    --     3.1783               109.1590                17.7367
 Raman Activ --     0.0000                 0.0000                 0.0000
 Depolar     --     0.0000                 0.0000                 0.0000
 Atom AN      X      Y      Z        X      Y      Z        X      Y      Z
   1   6     0.01  -0.00   0.00    -0.12   0.04  -0.06    -0.11   0.03  -0.05
   2   6    -0.00   0.01   0.01     0.02  -0.21   0.01     0.04  -0.23   0.01
   3   8    -0.01   0.00   0.00     0.22  -0.01   0.04     0.21  -0.03   0.05
   4   6    -0.00  -0.01   0.02     0.14   0.03  -0.04     0.13   0.04  -0.05
   5   8     0.07  -0.06   0.03    -0.09   0.07  -0.04    -0.10   0.06  -0.05
   6   6    -0.00  -0.03  -0.03     0.04   0.02   0.00    -0.03  -0.02   0.01
   7   6    -0.07   0.10  -0.16    -0.01   0.01   0.02    -0.03   0.04   0.07
   8   1     0.03   0.05  -0.05     0.02   0.00  -0.01    -0.01  -0.00  -0.00
   9   6    -0.23  -0.19   0.01    -0.04   0.03   0.02    -0.17   0.13   0.10
  10   8    -0.28  -0.29  -0.32    -0.02  -0.03  -0.06    -0.07  -0.12  -0.20
  11   8     0.00  -0.30   0.18    -0.03   0.09   0.05    -0.11   0.36   0.20
  12   6    -0.09   0.11   0.09     0.04  -0.04   0.07     0.16  -0.13   0.28
  13   6     0.01   0.17   0.15    -0.01  -0.05  -0.04    -0.04  -0.19  -0.16
  14  16     0.44   0.36  -0.01    -0.35   0.37   0.25     0.25  -0.08  -0.16
  15  15    -0.03  -0.05  -0.03     0.33  -0.22  -0.30    -0.14   0.08   0.12
  16  16    -0.01  -0.08   0.03    -0.06  -0.22   0.10     0.03   0.08  -0.04
  17   8    -0.06   0.07   0.04     0.07   0.13   0.10    -0.04  -0.05  -0.03
  18   6     0.01   0.01   0.01     0.10   0.03   0.13    -0.04  -0.01  -0.05
  19   8     0.00   0.01  -0.03    -0.14  -0.09  -0.22     0.06   0.04   0.09
  20   6    -0.00   0.02  -0.02    -0.01   0.04  -0.03     0.01  -0.01   0.01
  21   1    -0.00  -0.00  -0.00     0.04   0.09   0.00     0.04   0.09   0.00
  22   1     0.00  -0.00   0.00    -0.09   0.02  -0.04    -0.09   0.02  -0.03
  23   1     0.01  -0.00   0.00    -0.10   0.02  -0.04    -0.10   0.02  -0.04
  24   1    -0.00   0.00   0.00    -0.00  -0.07  -0.01     0.00  -0.08  -0.01
  25   1    -0.00   0.00   0.00     0.01  -0.04  -0.01     0.01  -0.04  -0.02
  26   1    -0.01  -0.03   0.01     0.01   0.00   0.00    -0.07  -0.05   0.07
  27   1     0.01  -0.03  -0.04    -0.02   0.03  -0.00    -0.06  -0.02  -0.09
  28   1    -0.02   0.06   0.05     0.00  -0.01   0.02     0.01  -0.05   0.06
  29   1    -0.02   0.03   0.03     0.01  -0.02   0.02     0.04  -0.07   0.07
  30   1     0.02   0.07   0.07    -0.01  -0.04  -0.03    -0.02  -0.15  -0.12
  31   1     0.01   0.09   0.06    -0.00  -0.03  -0.03    -0.02  -0.13  -0.11
  32   1     0.03  -0.01   0.06    -0.02   0.03  -0.02    -0.09   0.11  -0.09
  33   1     0.02   0.00   0.02     0.03   0.01   0.04    -0.01  -0.00  -0.02
  34   1     0.00   0.00  -0.00     0.02   0.01   0.02    -0.01  -0.00  -0.01
  35   1     0.00  -0.00  -0.01     0.03   0.00   0.03    -0.01   0.00  -0.02
  36   1     0.00   0.01  -0.01     0.00  -0.01   0.03     0.00   0.01  -0.02
  37   1    -0.00   0.01  -0.01     0.01   0.06  -0.02    -0.01  -0.02   0.01
  38   1     0.00   0.01  -0.00     0.00   0.01   0.01    -0.00  -0.00  -0.00
                     34                     35                     36
                        a                      a                      a 
 Frequencies --   516.3469               559.7863               563.4978
 Red. masses --    12.9284                11.0833                 9.9923
 Frc consts  --     0.0000                 0.0000                 0.0000
 IR Inten    --    31.9286                 9.7836                13.8457
 Raman Activ --     0.0000                 0.0000                 0.0000
 Depolar     --     0.0000                 0.0000                 0.0000
 Atom AN      X      Y      Z        X      Y      Z        X      Y      Z
   1   6     0.03  -0.01   0.02    -0.02  -0.00  -0.01     0.09   0.01   0.03
   2   6    -0.11   0.27  -0.05     0.09  -0.21   0.05     0.02   0.06   0.00
   3   8    -0.15   0.08  -0.13     0.16   0.00   0.07    -0.30  -0.21   0.03
   4   6    -0.08  -0.11   0.03    -0.07  -0.04  -0.06     0.41   0.47   0.01
   5   8    -0.05   0.09   0.05     0.04   0.01  -0.06    -0.13  -0.26  -0.00
   6   6     0.15  -0.16   0.00    -0.26   0.18   0.23     0.08   0.18  -0.05
   7   6     0.30  -0.34   0.17    -0.04   0.06   0.46     0.09   0.00   0.11
   8   1     0.14  -0.03   0.10    -0.00   0.09   0.21     0.01   0.02   0.08
   9   6     0.16  -0.33   0.14     0.19  -0.14   0.14     0.05  -0.07   0.05
  10   8    -0.16   0.10  -0.19     0.02   0.08  -0.21    -0.03   0.02  -0.10
  11   8    -0.22   0.27   0.03    -0.16  -0.10  -0.11    -0.07  -0.01  -0.01
  12   6     0.05  -0.06   0.03    -0.14  -0.03  -0.32    -0.03  -0.01  -0.07
  13   6     0.00  -0.11  -0.07     0.02  -0.02  -0.02     0.01  -0.01  -0.01
  14  16     0.07   0.21  -0.01     0.14   0.05  -0.11    -0.06  -0.01   0.02
  15  15    -0.01   0.00  -0.02    -0.01  -0.01   0.01     0.00   0.00  -0.01
  16  16    -0.01  -0.09   0.04     0.00   0.02  -0.01    -0.00  -0.01   0.00
  17   8    -0.00   0.03   0.01     0.01   0.01  -0.00     0.00   0.00  -0.00
  18   6     0.00   0.00   0.01     0.00   0.00   0.00     0.00   0.00   0.00
  19   8     0.00  -0.01  -0.03    -0.00   0.01   0.01     0.00  -0.00  -0.00
  20   6     0.00   0.01  -0.01     0.00  -0.00   0.00    -0.00   0.00  -0.00
  21   1    -0.07  -0.09  -0.02     0.06   0.07   0.01    -0.02  -0.05   0.01
  22   1     0.06  -0.01   0.03    -0.06   0.01  -0.02     0.07  -0.01   0.02
  23   1     0.08  -0.02   0.04    -0.06   0.01  -0.03     0.06  -0.00   0.02
  24   1    -0.04   0.12   0.00     0.02  -0.08   0.00     0.04  -0.02   0.00
  25   1    -0.03   0.03   0.03     0.02  -0.03  -0.02     0.02   0.03  -0.01
  26   1     0.06   0.01  -0.05    -0.13   0.13   0.05    -0.08  -0.21   0.22
  27   1     0.08  -0.03   0.08    -0.08   0.08   0.10    -0.19   0.03  -0.34
  28   1     0.03  -0.03   0.01     0.04  -0.00  -0.05     0.02  -0.00  -0.01
  29   1     0.01  -0.03  -0.04    -0.04   0.02  -0.15    -0.01   0.00  -0.04
  30   1     0.00  -0.06  -0.04     0.02   0.06   0.05     0.01   0.01   0.01
  31   1    -0.00  -0.06  -0.05     0.01   0.05   0.03     0.00   0.01   0.00
  32   1    -0.04   0.03  -0.03     0.05  -0.12   0.02     0.01  -0.02   0.00
  33   1     0.01   0.00   0.01     0.00  -0.00   0.00     0.00   0.00   0.00
  34   1    -0.00  -0.00  -0.00    -0.00  -0.00  -0.00     0.00   0.00   0.00
  35   1     0.00  -0.00   0.00     0.00  -0.00   0.00     0.00   0.00   0.00
  36   1     0.00   0.00   0.00     0.00  -0.00  -0.00    -0.00  -0.00  -0.00
  37   1    -0.00   0.01  -0.00    -0.00  -0.00   0.00    -0.00   0.00  -0.00
  38   1     0.00   0.00   0.00     0.00   0.00  -0.00    -0.00  -0.00   0.00
                     37                     38                     39
                        a                      a                      a 
 Frequencies --   639.3817               651.4455               719.2873
 Red. masses --    24.6934                12.4222                13.2128
 Frc consts  --     0.0000                 0.0000                 0.0000
 IR Inten    --   237.7858                10.7717                16.3461
 Raman Activ --     0.0000                 0.0000                 0.0000
 Depolar     --     0.0000                 0.0000                 0.0000
 Atom AN      X      Y      Z        X      Y      Z        X      Y      Z
   1   6    -0.00   0.00   0.00    -0.01   0.01   0.01     0.01   0.00   0.00
   2   6    -0.01   0.03  -0.01    -0.04   0.10  -0.07     0.02  -0.02  -0.01
   3   8     0.00  -0.01  -0.05     0.03  -0.11  -0.35    -0.03  -0.08  -0.12
   4   6     0.02  -0.03   0.00     0.20  -0.10  -0.00     0.23   0.13   0.00
   5   8    -0.03   0.04   0.01    -0.28   0.28   0.01    -0.12   0.01   0.01
   6   6     0.04  -0.03   0.03     0.15  -0.17   0.38    -0.17  -0.08   0.21
   7   6     0.06   0.05   0.00     0.06  -0.01   0.19    -0.41  -0.31   0.05
   8   1     0.03   0.01  -0.01     0.04  -0.09  -0.10    -0.09  -0.08  -0.01
   9   6     0.00   0.01   0.03    -0.18   0.38   0.02     0.01  -0.19  -0.19
  10   8    -0.00  -0.01  -0.05     0.13  -0.12  -0.08    -0.10   0.03   0.27
  11   8    -0.03  -0.02   0.02     0.01  -0.20   0.04     0.24   0.16  -0.17
  12   6    -0.01  -0.00  -0.01    -0.07  -0.01  -0.11     0.07   0.03   0.00
  13   6     0.00   0.00  -0.00    -0.00   0.01  -0.00    -0.00   0.00   0.01
  14  16    -0.06   0.07   0.04     0.01  -0.02  -0.03     0.20   0.21  -0.10
  15  15     0.37  -0.48   0.01    -0.05   0.05  -0.00    -0.00  -0.10  -0.01
  16  16     0.02   0.47  -0.15    -0.00  -0.04   0.01     0.00   0.05  -0.01
  17   8    -0.40  -0.16   0.10     0.05   0.02  -0.01     0.01   0.02   0.00
  18   6    -0.12  -0.03  -0.17     0.01   0.00   0.02     0.00   0.00  -0.00
  19   8     0.00   0.14   0.25     0.00  -0.01  -0.02    -0.01   0.03   0.03
  20   6     0.00  -0.05   0.04    -0.00   0.00  -0.00     0.00  -0.01   0.01
  21   1    -0.01  -0.01  -0.00    -0.04  -0.04  -0.01     0.00   0.00   0.00
  22   1     0.01   0.00   0.00     0.04   0.02   0.03     0.01   0.01   0.01
  23   1     0.01  -0.00   0.01     0.01  -0.02   0.03    -0.01  -0.01   0.01
  24   1    -0.01   0.02   0.00    -0.05   0.15   0.02    -0.00   0.04   0.01
  25   1    -0.00  -0.01   0.01    -0.00  -0.08   0.10     0.00  -0.04   0.04
  26   1     0.00  -0.01   0.01    -0.01  -0.06   0.14     0.12  -0.02  -0.04
  27   1     0.02  -0.02  -0.00     0.01  -0.06   0.04    -0.13   0.14   0.20
  28   1     0.01   0.00   0.01     0.03   0.01  -0.00    -0.14   0.00  -0.06
  29   1    -0.00   0.00  -0.02    -0.02   0.02  -0.06     0.03  -0.06   0.14
  30   1     0.00   0.00   0.00     0.01   0.04   0.03    -0.04   0.02   0.00
  31   1     0.00   0.00   0.00     0.00   0.04   0.02    -0.00  -0.06   0.01
  32   1     0.00  -0.00   0.00     0.03  -0.06   0.01    -0.02   0.02   0.00
  33   1     0.01   0.01  -0.03    -0.00  -0.00   0.00    -0.00  -0.00   0.00
  34   1     0.01   0.01  -0.01    -0.00  -0.00   0.00    -0.00   0.00  -0.00
  35   1    -0.05  -0.00  -0.14     0.01   0.00   0.02     0.00  -0.00   0.01
  36   1    -0.00   0.01  -0.03     0.00  -0.00   0.00     0.00   0.00  -0.00
  37   1    -0.00  -0.09   0.03     0.00   0.01  -0.00    -0.00  -0.01   0.00
  38   1    -0.00  -0.00  -0.03     0.00   0.00   0.00    -0.00   0.00  -0.01
                     40                     41                     42
                        a                      a                      a 
 Frequencies --   736.8414               765.9392               773.2107
 Red. masses --    22.3869                11.8298                23.1567
 Frc consts  --     0.0000                 0.0000                 0.0000
 IR Inten    --   311.6741                17.9621               258.6777
 Raman Activ --     0.0000                 0.0000                 0.0000
 Depolar     --     0.0000                 0.0000                 0.0000
 Atom AN      X      Y      Z        X      Y      Z        X      Y      Z
   1   6     0.00   0.00   0.00    -0.02   0.00  -0.00     0.00   0.00  -0.00
   2   6     0.01  -0.01  -0.00    -0.06   0.07   0.07     0.00  -0.00  -0.01
   3   8     0.00  -0.01  -0.02    -0.06   0.07   0.29     0.00  -0.00  -0.01
   4   6     0.02   0.01  -0.00    -0.08   0.12  -0.08     0.00  -0.01   0.01
   5   8    -0.01   0.00   0.00     0.10  -0.10  -0.14    -0.00   0.01   0.01
   6   6    -0.03   0.00   0.04    -0.03  -0.06  -0.19     0.02  -0.00  -0.01
   7   6    -0.05  -0.02   0.01     0.09  -0.49   0.24     0.01   0.02  -0.02
   8   1    -0.01  -0.01  -0.01    -0.03  -0.21   0.00    -0.00   0.01   0.01
   9   6     0.01  -0.02  -0.02    -0.20   0.43  -0.01     0.01  -0.01  -0.01
  10   8    -0.01   0.01   0.02     0.13  -0.08   0.01     0.00   0.01  -0.01
  11   8     0.02   0.01  -0.02     0.03  -0.11   0.06    -0.01  -0.00  -0.00
  12   6     0.01  -0.00   0.01    -0.04  -0.01  -0.04    -0.00  -0.01   0.02
  13   6    -0.00   0.00   0.00    -0.00  -0.01  -0.01    -0.00  -0.00   0.01
  14  16     0.04  -0.02  -0.02     0.08   0.17  -0.07    -0.02   0.02   0.01
  15  15     0.42   0.46   0.26     0.03  -0.04   0.03    -0.12  -0.38   0.57
  16  16    -0.02  -0.19   0.05    -0.00   0.02  -0.01     0.02   0.24  -0.10
  17   8    -0.42  -0.25   0.12    -0.03  -0.00   0.01     0.13   0.09  -0.08
  18   6    -0.12  -0.05  -0.14    -0.01  -0.00  -0.01     0.04   0.01   0.07
  19   8    -0.05  -0.17  -0.30    -0.01  -0.00  -0.02    -0.01  -0.21  -0.45
  20   6    -0.00   0.09  -0.09    -0.00   0.01  -0.01    -0.00   0.23  -0.22
  21   1     0.00   0.00   0.00    -0.02  -0.02  -0.02    -0.00   0.00   0.00
  22   1     0.00   0.00   0.00    -0.04  -0.06  -0.05     0.00   0.00   0.00
  23   1    -0.00  -0.00   0.00     0.08   0.03  -0.02    -0.00  -0.00   0.00
  24   1    -0.00   0.01   0.00     0.01  -0.16  -0.05    -0.00   0.01   0.00
  25   1     0.00  -0.01   0.01     0.03   0.16  -0.12    -0.00  -0.01   0.01
  26   1     0.00  -0.00   0.01     0.02   0.04  -0.11     0.00  -0.00   0.00
  27   1    -0.02   0.01   0.02    -0.05   0.08   0.05     0.01  -0.01  -0.01
  28   1    -0.00  -0.00  -0.00     0.02  -0.00   0.00     0.02  -0.01   0.01
  29   1     0.00   0.00   0.01    -0.01   0.02  -0.03    -0.00   0.02  -0.01
  30   1     0.00  -0.00   0.00     0.01   0.01   0.01     0.01  -0.02  -0.01
  31   1    -0.00   0.01   0.00     0.00   0.03   0.01    -0.00   0.02  -0.01
  32   1    -0.00   0.00  -0.00     0.02  -0.03   0.00     0.00   0.01  -0.01
  33   1     0.02   0.01  -0.02     0.00   0.00   0.00    -0.01  -0.00   0.01
  34   1     0.03   0.01   0.01    -0.00   0.00  -0.00    -0.01  -0.01   0.00
  35   1    -0.06  -0.00  -0.18    -0.00  -0.00  -0.01     0.02  -0.00   0.07
  36   1     0.00   0.00   0.03     0.00   0.00  -0.00     0.00   0.02   0.01
  37   1     0.00   0.13  -0.05    -0.00   0.01  -0.00     0.00   0.19  -0.09
  38   1     0.00   0.01   0.02    -0.00   0.00  -0.00     0.00   0.04   0.01
                     43                     44                     45
                        a                      a                      a 
 Frequencies --   805.4666               820.0889               877.0243
 Red. masses --     4.4690                 3.8909                 9.0945
 Frc consts  --     0.0000                 0.0000                 0.0000
 IR Inten    --    22.3445                13.0973                36.0763
 Raman Activ --     0.0000                 0.0000                 0.0000
 Depolar     --     0.0000                 0.0000                 0.0000
 Atom AN      X      Y      Z        X      Y      Z        X      Y      Z
   1   6     0.01  -0.00  -0.01    -0.08   0.03   0.07    -0.04   0.01  -0.02
   2   6     0.02  -0.02  -0.03    -0.12   0.14   0.20    -0.02   0.06  -0.02
   3   8    -0.02  -0.02  -0.03     0.05  -0.06  -0.03     0.02  -0.07   0.03
   4   6     0.09   0.07   0.03     0.09  -0.03  -0.07     0.18   0.12   0.00
   5   8    -0.03  -0.03   0.04    -0.05   0.04  -0.12    -0.04  -0.05   0.01
   6   6    -0.10  -0.08  -0.04     0.04  -0.09   0.23    -0.16  -0.21  -0.08
   7   6    -0.19  -0.07  -0.10    -0.06   0.15  -0.08    -0.15   0.06  -0.13
   8   1    -0.06  -0.03  -0.03     0.04   0.04  -0.07    -0.02   0.02  -0.04
   9   6     0.14   0.02  -0.01     0.06  -0.12  -0.01     0.20   0.08   0.16
  10   8     0.16   0.11  -0.04    -0.02   0.02   0.00     0.25   0.15  -0.15
  11   8    -0.15  -0.07   0.00    -0.01   0.02  -0.03    -0.40  -0.21   0.11
  12   6    -0.14  -0.08   0.25    -0.01  -0.01   0.05     0.12   0.03   0.05
  13   6    -0.05   0.02   0.07    -0.01   0.01   0.02     0.08   0.08  -0.01
  14  16     0.04   0.03  -0.02    -0.01  -0.04   0.01     0.01  -0.02  -0.00
  15  15    -0.00   0.01  -0.03    -0.01   0.00   0.00    -0.01   0.01   0.01
  16  16     0.00  -0.01   0.00     0.00   0.00  -0.00     0.00  -0.00  -0.00
  17   8     0.00  -0.00   0.00     0.01   0.00  -0.01     0.01  -0.00  -0.01
  18   6    -0.00   0.00  -0.00     0.00  -0.00   0.01     0.00   0.00   0.01
  19   8     0.01   0.01   0.03     0.00  -0.00   0.00     0.01  -0.01  -0.01
  20   6    -0.00  -0.02   0.01    -0.00   0.00  -0.00     0.00   0.01  -0.01
  21   1     0.00   0.01   0.02    -0.01  -0.07  -0.14    -0.05  -0.03  -0.01
  22   1     0.03   0.03   0.03    -0.22  -0.23  -0.20     0.02  -0.00   0.01
  23   1    -0.05  -0.02   0.01     0.36   0.15  -0.07     0.01  -0.01   0.01
  24   1     0.02   0.06   0.03    -0.16  -0.35  -0.19     0.01   0.01   0.00
  25   1    -0.03  -0.05   0.04     0.29   0.31  -0.18    -0.00   0.01  -0.00
  26   1     0.11  -0.01  -0.10     0.03  -0.02   0.05     0.16   0.01  -0.19
  27   1    -0.03   0.06   0.11     0.03  -0.04   0.06    -0.01   0.05   0.20
  28   1     0.42  -0.20   0.08     0.05  -0.04   0.01    -0.08   0.20   0.12
  29   1    -0.06   0.33  -0.25    -0.01   0.05  -0.02     0.02  -0.24  -0.02
  30   1     0.22  -0.26  -0.10     0.03  -0.04  -0.02    -0.17   0.18   0.05
  31   1    -0.01   0.32  -0.08    -0.00   0.05  -0.01     0.02  -0.27   0.02
  32   1     0.06   0.12  -0.07     0.00   0.03  -0.01    -0.11   0.04   0.05
  33   1     0.00  -0.00   0.00    -0.00  -0.00  -0.00    -0.00  -0.00   0.00
  34   1    -0.00   0.00  -0.00     0.00  -0.00   0.00    -0.00  -0.00   0.00
  35   1     0.00   0.00   0.00     0.00   0.00   0.00     0.00   0.00   0.00
  36   1    -0.00  -0.00  -0.00     0.00  -0.00  -0.00    -0.00   0.00   0.00
  37   1    -0.00  -0.01   0.00     0.00   0.00  -0.00    -0.00   0.01  -0.00
  38   1     0.00  -0.00  -0.00     0.00   0.00   0.00    -0.00   0.00  -0.00
                     46                     47                     48
                        a                      a                      a 
 Frequencies --   895.5749               906.6284               928.2541
 Red. masses --    10.3046                10.3740                10.0604
 Frc consts  --     0.0000                 0.0000                 0.0000
 IR Inten    --    15.7720                 2.7718                 5.4223
 Raman Activ --     0.0000                 0.0000                 0.0000
 Depolar     --     0.0000                 0.0000                 0.0000
 Atom AN      X      Y      Z        X      Y      Z        X      Y      Z
   1   6    -0.23   0.03  -0.15    -0.06   0.00  -0.07     0.18  -0.04   0.02
   2   6    -0.10   0.32  -0.14    -0.02   0.08  -0.04     0.02  -0.16   0.06
   3   8     0.24  -0.23   0.41     0.05  -0.02   0.23    -0.26   0.21   0.13
   4   6     0.15  -0.04  -0.11    -0.08  -0.03  -0.12    -0.08   0.31  -0.17
   5   8     0.00  -0.02  -0.17     0.02   0.01  -0.20     0.01  -0.06  -0.34
   6   6    -0.01  -0.11   0.04     0.06   0.09   0.28     0.01  -0.27   0.35
   7   6    -0.08   0.16  -0.01     0.13  -0.03   0.09     0.13   0.08  -0.13
   8   1     0.03   0.06  -0.02     0.04  -0.05  -0.04     0.18  -0.02  -0.22
   9   6    -0.00  -0.06   0.08    -0.02  -0.05  -0.23     0.02  -0.06   0.07
  10   8    -0.06  -0.02   0.01    -0.02  -0.01   0.03    -0.03  -0.00  -0.01
  11   8     0.15   0.14   0.11    -0.18  -0.22  -0.39     0.05   0.07   0.08
  12   6    -0.10  -0.01  -0.13     0.21  -0.01   0.28    -0.04   0.01  -0.05
  13   6    -0.03  -0.10  -0.06     0.02   0.23   0.16    -0.01  -0.06  -0.04
  14  16    -0.01  -0.04   0.01    -0.00   0.00   0.00    -0.02  -0.05   0.02
  15  15     0.00   0.01   0.00    -0.01  -0.00  -0.01    -0.01  -0.00   0.01
  16  16     0.00  -0.00  -0.00    -0.00   0.00   0.00    -0.00   0.00  -0.00
  17   8     0.00  -0.00  -0.00    -0.00   0.00   0.00     0.00   0.00  -0.01
  18   6     0.00  -0.00   0.00     0.00   0.00  -0.00     0.00   0.00   0.01
  19   8    -0.00  -0.01   0.00     0.00   0.01   0.00     0.00  -0.01   0.00
  20   6     0.00   0.00  -0.00    -0.00  -0.01   0.00    -0.00   0.01  -0.01
  21   1    -0.29  -0.20  -0.00    -0.09  -0.05   0.02     0.17   0.15   0.08
  22   1     0.19   0.05   0.10     0.09   0.04   0.05     0.01   0.08   0.03
  23   1    -0.05  -0.09   0.07    -0.07  -0.05   0.02    -0.15  -0.02  -0.02
  24   1     0.16   0.07   0.06     0.09   0.02   0.04     0.05  -0.03   0.04
  25   1    -0.10   0.06  -0.02    -0.09   0.02  -0.03    -0.17   0.00  -0.06
  26   1     0.01   0.04  -0.04    -0.12   0.02   0.16     0.11  -0.04   0.00
  27   1     0.02  -0.01   0.07    -0.02  -0.02  -0.04     0.09  -0.08   0.18
  28   1    -0.00  -0.02  -0.04     0.03  -0.05   0.02    -0.01   0.01  -0.01
  29   1    -0.02   0.07   0.01     0.04  -0.08  -0.01    -0.01   0.03   0.01
  30   1     0.05  -0.01   0.01    -0.04  -0.05  -0.06     0.02   0.01   0.01
  31   1    -0.00   0.09   0.03    -0.00  -0.09  -0.07     0.00   0.03   0.02
  32   1     0.08  -0.13  -0.01    -0.16   0.33  -0.01     0.04  -0.08  -0.00
  33   1    -0.00   0.00  -0.00     0.00  -0.00   0.00    -0.00   0.00   0.00
  34   1     0.00  -0.00   0.00    -0.00   0.00  -0.00     0.00  -0.00   0.00
  35   1     0.00   0.00   0.00     0.00  -0.00   0.00     0.00  -0.00   0.00
  36   1     0.00   0.00   0.00    -0.00   0.00  -0.00     0.00   0.00   0.00
  37   1    -0.00   0.00  -0.00     0.00  -0.00   0.00     0.00   0.00  -0.00
  38   1    -0.00  -0.00   0.00     0.00  -0.00  -0.00    -0.00   0.00   0.00
                     49                     50                     51
                        a                      a                      a 
 Frequencies --   970.2455               987.8146              1023.3240
 Red. masses --     8.8895                14.4437                14.1022
 Frc consts  --     0.0000                 0.0000                 0.0000
 IR Inten    --    16.6700               340.5710               158.3404
 Raman Activ --     0.0000                 0.0000                 0.0000
 Depolar     --     0.0000                 0.0000                 0.0000
 Atom AN      X      Y      Z        X      Y      Z        X      Y      Z
   1   6    -0.00  -0.00  -0.02     0.00  -0.00  -0.00    -0.01   0.00  -0.00
   2   6    -0.00   0.01   0.01    -0.00   0.00   0.00     0.01  -0.00   0.00
   3   8     0.03   0.04   0.06    -0.00   0.00   0.00     0.00   0.00  -0.00
   4   6    -0.27  -0.17  -0.07    -0.01  -0.00  -0.00    -0.01  -0.01   0.00
   5   8     0.05   0.05  -0.13     0.00   0.00  -0.01     0.00   0.00   0.01
   6   6     0.34   0.19   0.16     0.01  -0.00   0.00    -0.00   0.02   0.00
   7   6    -0.39  -0.18  -0.12    -0.01   0.00  -0.01    -0.00  -0.02  -0.00
   8   1    -0.17  -0.16  -0.12    -0.00   0.00   0.00     0.01  -0.02  -0.02
   9   6     0.18  -0.05   0.06     0.00  -0.00   0.01     0.00   0.00  -0.00
  10   8     0.16   0.12  -0.03     0.01   0.00  -0.00    -0.00   0.00   0.00
  11   8    -0.10   0.01   0.19    -0.00   0.00   0.00    -0.00  -0.00  -0.01
  12   6    -0.06   0.02  -0.01    -0.00   0.00  -0.00     0.00   0.01   0.01
  13   6     0.02  -0.07  -0.07     0.00  -0.00  -0.00    -0.00  -0.01  -0.01
  14  16     0.04   0.07  -0.02    -0.00   0.00   0.00     0.01   0.01  -0.00
  15  15     0.00  -0.02  -0.01     0.03  -0.02   0.14     0.06   0.04  -0.04
  16  16     0.00   0.00  -0.00    -0.00  -0.00   0.01     0.00   0.01  -0.00
  17   8     0.01   0.01   0.02    -0.13  -0.03  -0.22    -0.37  -0.09  -0.58
  18   6    -0.01   0.00  -0.02     0.09   0.01   0.21     0.25   0.03   0.54
  19   8    -0.00  -0.00   0.01     0.00   0.53  -0.47     0.03  -0.17   0.21
  20   6     0.00   0.01  -0.00     0.00  -0.52   0.29     0.02   0.19  -0.08
  21   1    -0.01  -0.00   0.01     0.00   0.00   0.00    -0.01  -0.00  -0.00
  22   1     0.02   0.02   0.01     0.00   0.00   0.00     0.00  -0.00  -0.00
  23   1    -0.03  -0.01   0.00    -0.00  -0.00  -0.00     0.00  -0.00   0.00
  24   1     0.03  -0.01   0.01     0.00  -0.00   0.00     0.00   0.00   0.00
  25   1    -0.03   0.02  -0.02    -0.00   0.00  -0.00     0.01  -0.00   0.00
  26   1     0.08  -0.28   0.26     0.01  -0.01   0.00    -0.01  -0.00   0.01
  27   1    -0.07  -0.00  -0.26     0.00  -0.00  -0.00    -0.02   0.02  -0.01
  28   1     0.02   0.10   0.08    -0.00   0.00   0.00     0.00   0.01   0.01
  29   1    -0.02  -0.02  -0.04    -0.00   0.00  -0.00     0.00   0.01   0.01
  30   1    -0.03   0.07   0.03    -0.00   0.00   0.00     0.00   0.00   0.00
  31   1     0.01  -0.04   0.03     0.00  -0.00   0.00     0.00   0.00   0.00
  32   1     0.03  -0.12   0.02     0.00  -0.00   0.00     0.01  -0.02   0.00
  33   1    -0.00  -0.00  -0.00     0.00   0.01   0.02    -0.00   0.01   0.05
  34   1    -0.00   0.00  -0.00     0.01  -0.00   0.03     0.02  -0.01   0.07
  35   1    -0.00  -0.00  -0.00     0.02   0.01   0.03     0.05   0.01   0.08
  36   1    -0.00   0.00  -0.00    -0.02  -0.05   0.01     0.00   0.06  -0.04
  37   1     0.00  -0.00  -0.00    -0.00  -0.05   0.05    -0.01  -0.04   0.00
  38   1    -0.00   0.00  -0.00     0.01  -0.07   0.02    -0.01   0.01  -0.01
                     52                     53                     54
                        a                      a                      a 
 Frequencies --  1034.7370              1044.1719              1063.8904
 Red. masses --     8.0160                 8.8710                 6.8256
 Frc consts  --     0.0000                 0.0000                 0.0000
 IR Inten    --    41.0854                17.6229                64.6620
 Raman Activ --     0.0000                 0.0000                 0.0000
 Depolar     --     0.0000                 0.0000                 0.0000
 Atom AN      X      Y      Z        X      Y      Z        X      Y      Z
   1   6     0.26   0.01   0.08     0.33   0.03   0.10    -0.10  -0.05  -0.04
   2   6    -0.32   0.07  -0.10    -0.43   0.09  -0.16     0.16  -0.00   0.07
   3   8     0.04  -0.08   0.09     0.11  -0.16   0.10    -0.07   0.08  -0.02
   4   6     0.03  -0.07  -0.02     0.11  -0.11  -0.00    -0.07   0.08  -0.02
   5   8    -0.00   0.01  -0.05    -0.01   0.01   0.02    -0.00   0.00  -0.10
   6   6     0.16  -0.11  -0.11    -0.03   0.04  -0.01     0.22  -0.21  -0.10
   7   6    -0.21   0.09   0.13     0.02   0.01   0.03    -0.19   0.13   0.26
   8   1    -0.08   0.10   0.17    -0.03   0.01   0.04    -0.11   0.25   0.43
   9   6    -0.01   0.03   0.10    -0.01  -0.01  -0.10    -0.07   0.07  -0.00
  10   8    -0.02  -0.01   0.00     0.00   0.00   0.01    -0.04  -0.04   0.02
  11   8     0.11   0.04   0.08    -0.10  -0.06  -0.15    -0.04  -0.08  -0.26
  12   6    -0.01  -0.30  -0.25     0.02   0.29   0.25     0.05   0.22   0.16
  13   6    -0.03   0.28   0.15     0.03  -0.24  -0.13     0.03  -0.15  -0.04
  14  16     0.01   0.01  -0.01     0.00   0.00  -0.00     0.00   0.01  -0.00
  15  15     0.01   0.01  -0.00    -0.00   0.00  -0.00     0.01   0.01  -0.01
  16  16     0.00  -0.00  -0.00     0.00  -0.00   0.00     0.00  -0.00   0.00
  17   8    -0.02  -0.01  -0.02     0.00   0.00   0.01    -0.01  -0.00  -0.01
  18   6     0.01   0.00   0.02    -0.00  -0.00  -0.01     0.00  -0.00   0.01
  19   8    -0.00  -0.01   0.01     0.00   0.00  -0.00    -0.00  -0.01   0.01
  20   6     0.00   0.01  -0.01    -0.00  -0.00   0.00     0.00   0.01  -0.01
  21   1     0.20   0.16   0.05     0.24   0.18   0.05    -0.04  -0.02  -0.00
  22   1    -0.03   0.06  -0.00    -0.03   0.07  -0.00    -0.01  -0.01  -0.00
  23   1    -0.05   0.03  -0.03    -0.03   0.05  -0.04    -0.04  -0.02   0.00
  24   1    -0.10  -0.01  -0.05    -0.15  -0.01  -0.06     0.06  -0.01   0.02
  25   1    -0.17   0.04  -0.07    -0.20   0.04  -0.08     0.04   0.02   0.00
  26   1     0.13  -0.11  -0.03    -0.10   0.09   0.00     0.28  -0.24  -0.05
  27   1     0.08  -0.07  -0.04    -0.03   0.03  -0.00     0.21  -0.18  -0.01
  28   1    -0.01  -0.16  -0.13     0.01   0.13   0.11    -0.02   0.04   0.01
  29   1     0.00  -0.13  -0.06     0.00   0.12   0.06     0.01   0.08   0.05
  30   1    -0.04  -0.04  -0.05     0.03   0.02   0.04     0.04  -0.03   0.01
  31   1    -0.02  -0.00  -0.07     0.02  -0.00   0.06     0.01  -0.01   0.02
  32   1    -0.12   0.29  -0.01     0.10  -0.23   0.01     0.04  -0.08  -0.01
  33   1    -0.00   0.00   0.00    -0.00  -0.00  -0.00     0.00   0.00  -0.00
  34   1     0.00  -0.00   0.00    -0.00   0.00   0.00     0.00  -0.00   0.00
  35   1     0.00   0.00   0.00    -0.00   0.00   0.00    -0.00   0.00  -0.00
  36   1     0.00   0.00  -0.00    -0.00  -0.00   0.00    -0.00   0.00   0.00
  37   1    -0.00   0.00  -0.00     0.00  -0.00   0.00    -0.00   0.00  -0.00
  38   1    -0.00  -0.00   0.00     0.00   0.00  -0.00    -0.00   0.00   0.00
                     55                     56                     57
                        a                      a                      a 
 Frequencies --  1094.3568              1096.0853              1097.8193
 Red. masses --     7.4330                 7.4614                 3.4733
 Frc consts  --     0.0000                 0.0000                 0.0000
 IR Inten    --    13.0884                19.1711                 0.5786
 Raman Activ --     0.0000                 0.0000                 0.0000
 Depolar     --     0.0000                 0.0000                 0.0000
 Atom AN      X      Y      Z        X      Y      Z        X      Y      Z
   1   6    -0.19  -0.46   0.04    -0.01  -0.03   0.01    -0.00   0.00  -0.00
   2   6     0.30   0.47  -0.01     0.01   0.04  -0.01    -0.00  -0.00   0.00
   3   8    -0.02  -0.12   0.02     0.01  -0.02   0.00    -0.00   0.00   0.00
   4   6     0.03  -0.02   0.00    -0.00  -0.01   0.00    -0.00  -0.00  -0.00
   5   8    -0.01  -0.00   0.02     0.00   0.00   0.01     0.00  -0.00  -0.00
   6   6    -0.01   0.03  -0.00    -0.02   0.02   0.01     0.00  -0.00   0.00
   7   6     0.01  -0.01  -0.02     0.00  -0.01  -0.03     0.00   0.00   0.00
   8   1     0.00  -0.02  -0.03     0.02  -0.01  -0.04     0.00   0.00   0.01
   9   6     0.01  -0.01  -0.00     0.00   0.01   0.02    -0.00   0.00  -0.01
  10   8     0.00   0.00  -0.00     0.01  -0.00  -0.00    -0.00  -0.00   0.00
  11   8    -0.00   0.01   0.01     0.07  -0.05   0.09     0.00   0.00   0.01
  12   6     0.02  -0.04   0.01    -0.31   0.42  -0.20    -0.01  -0.01  -0.00
  13   6    -0.02   0.03  -0.02     0.30  -0.32   0.24     0.00   0.00  -0.00
  14  16    -0.00   0.00   0.00     0.00  -0.00   0.00    -0.00   0.00   0.00
  15  15     0.00  -0.00  -0.00     0.00   0.00   0.00     0.01   0.00  -0.00
  16  16     0.00   0.00  -0.00    -0.00  -0.00  -0.00    -0.00  -0.00   0.00
  17   8    -0.00  -0.00   0.00    -0.00  -0.01  -0.00    -0.04  -0.01  -0.01
  18   6     0.00   0.00  -0.00     0.00   0.01   0.00     0.04   0.01  -0.00
  19   8     0.00   0.00  -0.00    -0.00  -0.00  -0.00     0.21  -0.00  -0.01
  20   6    -0.00  -0.00  -0.00    -0.00  -0.00  -0.00    -0.40   0.01   0.02
  21   1     0.27   0.23   0.05     0.02   0.02   0.00    -0.00  -0.00  -0.00
  22   1    -0.35  -0.03  -0.09    -0.03  -0.00  -0.01     0.00   0.00   0.00
  23   1    -0.31  -0.03  -0.14    -0.02  -0.00  -0.01     0.00  -0.00   0.00
  24   1     0.03   0.13  -0.03    -0.00   0.01  -0.00     0.00  -0.00   0.00
  25   1     0.02   0.11  -0.00     0.00   0.01   0.00    -0.00  -0.00  -0.00
  26   1    -0.03   0.03   0.00    -0.00   0.00   0.00     0.01  -0.00  -0.00
  27   1    -0.03   0.03  -0.01    -0.03   0.03  -0.00    -0.00   0.00   0.00
  28   1     0.01  -0.00   0.01    -0.08   0.06  -0.09     0.00   0.00   0.00
  29   1     0.00  -0.01   0.00    -0.08   0.07  -0.06    -0.00  -0.01  -0.00
  30   1    -0.00   0.03   0.01     0.02  -0.33  -0.14    -0.00   0.00   0.00
  31   1    -0.00   0.02   0.01     0.06  -0.30  -0.17     0.00  -0.00  -0.00
  32   1     0.01  -0.02   0.00    -0.16   0.33  -0.03    -0.00   0.00   0.00
  33   1    -0.00  -0.00  -0.00     0.00  -0.00   0.01    -0.03  -0.01  -0.02
  34   1    -0.00   0.00   0.00    -0.00  -0.00  -0.01    -0.03  -0.01  -0.02
  35   1     0.00   0.00   0.01     0.00  -0.00   0.00     0.02   0.00   0.06
  36   1     0.00  -0.00   0.00    -0.00  -0.00   0.00     0.17  -0.52   0.24
  37   1     0.00  -0.00   0.00     0.00   0.00  -0.00     0.24  -0.04   0.01
  38   1     0.00   0.00  -0.00     0.00   0.00   0.00     0.16   0.52  -0.26
                     58                     59                     60
                        a                      a                      a 
 Frequencies --  1104.6574              1106.9758              1113.2431
 Red. masses --     4.0108                 3.6275                 3.9781
 Frc consts  --     0.0000                 0.0000                 0.0000
 IR Inten    --     7.2609                 0.3360                50.2081
 Raman Activ --     0.0000                 0.0000                 0.0000
 Depolar     --     0.0000                 0.0000                 0.0000
 Atom AN      X      Y      Z        X      Y      Z        X      Y      Z
   1   6     0.00   0.00   0.00     0.00   0.00  -0.00     0.01   0.01   0.03
   2   6    -0.00  -0.00  -0.01     0.00  -0.00   0.00    -0.03   0.02  -0.07
   3   8     0.00  -0.00   0.00    -0.00   0.00  -0.00     0.09  -0.07   0.01
   4   6    -0.01  -0.00   0.00    -0.00   0.00   0.00    -0.17  -0.01   0.01
   5   8     0.00   0.00   0.00     0.00   0.00   0.00     0.02   0.01   0.01
   6   6    -0.00   0.00  -0.00     0.00  -0.00  -0.00    -0.04   0.03   0.02
   7   6     0.00  -0.00  -0.00    -0.00  -0.00   0.00     0.07   0.00  -0.05
   8   1     0.01   0.00  -0.01     0.01   0.00  -0.00     0.25   0.13  -0.03
   9   6    -0.00   0.00   0.01    -0.00   0.00  -0.00    -0.03   0.06   0.16
  10   8    -0.00  -0.00  -0.00     0.00   0.00  -0.00    -0.02  -0.03  -0.01
  11   8    -0.00  -0.00  -0.01     0.00  -0.00   0.00    -0.01  -0.03  -0.10
  12   6     0.00  -0.00  -0.00    -0.01   0.01  -0.00     0.08   0.04  -0.01
  13   6    -0.00  -0.00   0.00     0.00  -0.00   0.00    -0.04  -0.01   0.01
  14  16     0.01  -0.00  -0.00     0.00  -0.00   0.00    -0.00  -0.03   0.01
  15  15     0.01  -0.00  -0.03    -0.01   0.01   0.01    -0.02  -0.02   0.00
  16  16     0.00  -0.00   0.00    -0.00  -0.00  -0.00    -0.00   0.00   0.00
  17   8    -0.11   0.02   0.03    -0.07   0.18   0.06     0.13   0.10  -0.10
  18   6     0.17  -0.06  -0.07     0.16  -0.34  -0.07    -0.19  -0.15   0.14
  19   8     0.01   0.14   0.21    -0.01  -0.06  -0.08     0.02   0.03   0.05
  20   6    -0.00  -0.21  -0.29     0.01   0.08   0.11    -0.03  -0.04  -0.06
  21   1    -0.00  -0.00  -0.00    -0.00  -0.00   0.00     0.01   0.00  -0.01
  22   1    -0.00  -0.00  -0.00     0.00   0.00   0.00    -0.03  -0.01  -0.01
  23   1     0.00   0.00   0.00    -0.00  -0.00   0.00     0.02   0.02  -0.01
  24   1    -0.00   0.00  -0.00    -0.00   0.00  -0.00    -0.03   0.03  -0.01
  25   1     0.00  -0.00   0.00    -0.00  -0.00  -0.00     0.04  -0.04   0.04
  26   1     0.01  -0.01  -0.00     0.00  -0.00   0.00     0.26  -0.23  -0.00
  27   1    -0.01   0.01   0.00    -0.00   0.00  -0.00    -0.30   0.28   0.01
  28   1    -0.00   0.00  -0.00    -0.00  -0.00  -0.00    -0.06  -0.04  -0.07
  29   1     0.00  -0.00   0.00    -0.00   0.00  -0.00     0.03   0.01   0.06
  30   1    -0.00   0.00   0.00     0.00  -0.01  -0.00     0.03  -0.03  -0.00
  31   1    -0.00   0.00  -0.00     0.00  -0.01  -0.00    -0.01   0.06   0.00
  32   1     0.00  -0.00  -0.00    -0.00   0.01  -0.00     0.02   0.00  -0.01
  33   1    -0.18  -0.01  -0.23    -0.28   0.11  -0.53     0.15   0.12   0.05
  34   1    -0.08   0.03   0.09     0.09   0.16   0.49     0.23   0.05   0.20
  35   1     0.05   0.07   0.24    -0.06   0.21   0.09    -0.13   0.03  -0.42
  36   1    -0.05  -0.15   0.30     0.01   0.07  -0.12     0.00  -0.07   0.08
  37   1     0.00   0.56  -0.22    -0.01  -0.22   0.09     0.02   0.12  -0.05
  38   1     0.04  -0.15   0.30    -0.02   0.04  -0.11     0.02   0.00   0.04
                     61                     62                     63
                        a                      a                      a 
 Frequencies --  1113.9934              1141.7846              1144.3157
 Red. masses --     4.0493                 6.2739                 6.6355
 Frc consts  --     0.0000                 0.0000                 0.0000
 IR Inten    --    42.4015               109.5172                94.2393
 Raman Activ --     0.0000                 0.0000                 0.0000
 Depolar     --     0.0000                 0.0000                 0.0000
 Atom AN      X      Y      Z        X      Y      Z        X      Y      Z
   1   6     0.01   0.01   0.03     0.05  -0.05  -0.19     0.02  -0.02  -0.10
   2   6    -0.03   0.01  -0.08    -0.03   0.03   0.37    -0.01   0.01   0.19
   3   8     0.09  -0.07   0.01    -0.12   0.15  -0.15    -0.09   0.09  -0.08
   4   6    -0.17  -0.01   0.01     0.20  -0.32  -0.02     0.15  -0.14  -0.01
   5   8     0.02   0.01   0.01    -0.02   0.04   0.04    -0.01   0.01   0.04
   6   6    -0.04   0.03   0.02    -0.00   0.00  -0.02     0.04  -0.01  -0.09
   7   6     0.08   0.01  -0.04     0.04   0.01  -0.04    -0.10   0.04   0.02
   8   1     0.23   0.12  -0.03     0.14   0.19   0.14    -0.11  -0.18  -0.18
   9   6    -0.03   0.06   0.15    -0.04   0.03  -0.16     0.05  -0.00   0.33
  10   8    -0.02  -0.03  -0.01    -0.00  -0.01   0.02     0.03   0.02  -0.05
  11   8    -0.01  -0.03  -0.10     0.05   0.04   0.06    -0.15  -0.10  -0.11
  12   6     0.09   0.04  -0.01    -0.12  -0.07   0.05     0.31   0.16  -0.13
  13   6    -0.04  -0.01   0.01     0.06   0.03  -0.04    -0.18  -0.08   0.11
  14  16    -0.00  -0.03   0.01    -0.00  -0.02   0.01     0.00   0.01  -0.01
  15  15     0.02   0.02   0.01    -0.00   0.00   0.00     0.00  -0.00   0.00
  16  16     0.00   0.00  -0.00    -0.00  -0.00  -0.00     0.00  -0.00  -0.00
  17   8    -0.11  -0.10   0.11     0.00  -0.00   0.00     0.00   0.00   0.00
  18   6     0.18   0.16  -0.15     0.00   0.00  -0.00    -0.00  -0.00  -0.00
  19   8    -0.03  -0.04  -0.07    -0.00  -0.00  -0.00     0.00  -0.00  -0.00
  20   6     0.03   0.05   0.08     0.00  -0.00   0.00    -0.00   0.00   0.00
  21   1     0.01  -0.00  -0.01    -0.04   0.02   0.10    -0.02   0.01   0.05
  22   1    -0.02  -0.01  -0.01     0.17   0.13   0.10     0.08   0.07   0.05
  23   1     0.03   0.02  -0.01    -0.20  -0.11   0.02    -0.10  -0.06   0.01
  24   1    -0.03   0.03  -0.01     0.13  -0.24   0.04     0.06  -0.12   0.02
  25   1     0.04  -0.05   0.04    -0.13   0.26  -0.19    -0.07   0.13  -0.09
  26   1     0.25  -0.23  -0.01     0.05  -0.06  -0.00    -0.10   0.09  -0.02
  27   1    -0.29   0.26   0.02    -0.24   0.22   0.01     0.01  -0.01  -0.03
  28   1    -0.06  -0.04  -0.07     0.09   0.03   0.09    -0.24  -0.08  -0.24
  29   1     0.03   0.01   0.06    -0.04  -0.00  -0.10     0.11   0.00   0.26
  30   1     0.03  -0.03  -0.00    -0.06   0.07   0.01     0.15  -0.19  -0.04
  31   1    -0.01   0.06   0.00     0.01  -0.09   0.01    -0.04   0.25  -0.03
  32   1     0.03  -0.00  -0.01    -0.03  -0.01   0.02     0.10   0.03  -0.06
  33   1    -0.15  -0.12  -0.04     0.00  -0.00   0.00    -0.00  -0.00  -0.00
  34   1    -0.23  -0.06  -0.22    -0.00  -0.00  -0.00    -0.00   0.00  -0.00
  35   1     0.14  -0.03   0.42     0.00   0.00   0.01    -0.00  -0.00  -0.00
  36   1     0.00   0.07  -0.10    -0.00   0.01  -0.00     0.01  -0.01   0.00
  37   1    -0.02  -0.15   0.06    -0.00   0.00  -0.00     0.00   0.00   0.00
  38   1    -0.02   0.00  -0.06    -0.00  -0.00   0.00     0.00   0.01  -0.01
                     64                     65                     66
                        a                      a                      a 
 Frequencies --  1167.2335              1179.0373              1182.5530
 Red. masses --     7.7899                 9.2693                 5.2917
 Frc consts  --     0.0000                 0.0000                 0.0000
[...]
  15  15     0.00   0.00   0.00    -0.00   0.00   0.00     0.00   0.00  -0.00
  16  16    -0.00  -0.00   0.00     0.00  -0.00   0.00    -0.00  -0.00   0.00
  17   8    -0.00  -0.00  -0.00     0.00   0.00   0.00    -0.00   0.00  -0.00
  18   6    -0.00   0.00  -0.00    -0.00   0.00   0.00    -0.00   0.01  -0.01
  19   8    -0.00   0.00  -0.00    -0.00   0.00  -0.00     0.00  -0.00  -0.00
  20   6    -0.00   0.00  -0.00    -0.00   0.00   0.00     0.00  -0.00  -0.00
  21   1     0.00  -0.00   0.00     0.01  -0.01   0.00    -0.00   0.00  -0.00
  22   1    -0.00  -0.00   0.00    -0.02  -0.02   0.05     0.00   0.00  -0.00
  23   1     0.00  -0.00  -0.00    -0.00   0.01   0.01    -0.00  -0.00  -0.00
  24   1     0.03   0.02  -0.05     0.39   0.36  -0.80    -0.00  -0.00   0.01
  25   1    -0.00  -0.00   0.00    -0.02   0.01   0.04    -0.00   0.01   0.00
  26   1    -0.00  -0.00  -0.00     0.00   0.00   0.00    -0.01  -0.00  -0.05
  27   1    -0.00  -0.00   0.00    -0.01  -0.01   0.00    -0.59  -0.65   0.39
  28   1    -0.04  -0.01   0.02     0.00   0.00  -0.00     0.00   0.00  -0.00
  29   1     0.96  -0.01  -0.11    -0.06   0.00   0.01    -0.00  -0.00   0.00
  30   1    -0.00  -0.01   0.01     0.00   0.00  -0.00     0.00   0.00  -0.00
  31   1    -0.07   0.00   0.00     0.00  -0.00  -0.00    -0.00   0.00   0.00
  32   1    -0.00  -0.00  -0.01     0.00   0.00   0.00    -0.00  -0.00  -0.00
  33   1    -0.00   0.00   0.00     0.00  -0.00  -0.00    -0.00   0.00   0.00
  34   1     0.00  -0.00   0.00    -0.00   0.00  -0.00     0.00  -0.05   0.02
  35   1     0.00   0.00  -0.00     0.00   0.00   0.00     0.00   0.00  -0.00
  36   1     0.00   0.00   0.00    -0.00  -0.00   0.00     0.00   0.00  -0.00
  37   1    -0.00   0.00   0.00    -0.00  -0.00  -0.00     0.00   0.00   0.00
  38   1     0.01  -0.01  -0.00     0.00  -0.00  -0.00    -0.00   0.00   0.00
                     94                     95                     96
                        a                      a                      a 
 Frequencies --  2974.9775              2980.2312              2989.0735
 Red. masses --     1.6627                 1.6347                 1.6921
 Frc consts  --     0.0000                 0.0000                 0.0000
 IR Inten    --    12.5307                10.6734                 9.1282
 Raman Activ --     0.0000                 0.0000                 0.0000
 Depolar     --     0.0000                 0.0000                 0.0000
 Atom AN      X      Y      Z        X      Y      Z        X      Y      Z
   1   6     0.00   0.00  -0.00     0.00   0.00  -0.00    -0.00   0.00  -0.00
   2   6     0.00   0.00  -0.00    -0.00  -0.00   0.00     0.00  -0.00  -0.00
   3   8     0.00  -0.00  -0.00     0.00  -0.00   0.00     0.00  -0.00  -0.00
   4   6    -0.00   0.00  -0.00     0.00  -0.00  -0.00    -0.00   0.00  -0.00
   5   8     0.00  -0.00   0.00    -0.00  -0.00   0.00    -0.00  -0.00   0.00
   6   6     0.01   0.01  -0.01     0.00   0.00   0.00    -0.00  -0.00  -0.00
   7   6     0.00   0.00  -0.00    -0.00   0.00  -0.00     0.00  -0.00   0.00
   8   1     0.00  -0.00   0.00     0.00  -0.00   0.00    -0.00   0.00   0.00
   9   6    -0.00  -0.00  -0.00     0.00   0.00  -0.00    -0.00  -0.00  -0.00
  10   8     0.00   0.00   0.00    -0.00  -0.00  -0.00     0.00   0.00   0.00
  11   8     0.00  -0.00   0.00    -0.00  -0.00   0.00     0.00   0.00   0.00
  12   6    -0.00   0.00   0.00    -0.00  -0.00   0.00    -0.00  -0.00   0.00
  13   6    -0.00  -0.00  -0.00     0.00   0.00  -0.00     0.00   0.00   0.00
  14  16    -0.00  -0.00  -0.00    -0.00   0.00   0.00     0.00   0.00  -0.00
  15  15    -0.00  -0.00   0.00     0.00  -0.00  -0.00    -0.00  -0.00   0.00
  16  16     0.00   0.00  -0.00    -0.00   0.00   0.00    -0.00   0.00  -0.00
  17   8     0.00  -0.00   0.01    -0.00   0.00   0.00     0.00   0.00   0.01
  18   6     0.01  -0.22   0.10     0.00  -0.01   0.00    -0.12   0.18   0.13
  19   8     0.00  -0.00  -0.00     0.00  -0.01   0.01     0.00   0.00  -0.00
  20   6    -0.00   0.00   0.00     0.20  -0.13  -0.05     0.00   0.00   0.00
  21   1     0.00   0.00  -0.00     0.00  -0.00  -0.00     0.00  -0.00   0.00
  22   1    -0.00  -0.00   0.00    -0.00  -0.00   0.00    -0.00  -0.00  -0.00
  23   1     0.00  -0.00  -0.00    -0.00   0.00   0.00    -0.00   0.00   0.00
  24   1    -0.00  -0.00   0.00     0.00   0.00  -0.00    -0.00  -0.00   0.00
  25   1     0.00  -0.00  -0.00    -0.00   0.00   0.00    -0.00   0.00   0.00
  26   1     0.00   0.00  -0.00    -0.00  -0.00  -0.00     0.00   0.00   0.01
  27   1    -0.04  -0.04   0.02     0.00   0.00  -0.00    -0.00  -0.00  -0.00
  28   1     0.00   0.00  -0.00     0.00   0.01  -0.01     0.00   0.00  -0.00
  29   1     0.00   0.00  -0.00     0.01  -0.00  -0.00     0.00  -0.00  -0.00
  30   1    -0.00   0.00  -0.00    -0.00  -0.00   0.00     0.00   0.00  -0.00
  31   1     0.00  -0.00  -0.00    -0.01  -0.00   0.00    -0.00   0.00   0.00
  32   1     0.00   0.00   0.00     0.00   0.00   0.00    -0.00  -0.00  -0.00
  33   1     0.02  -0.05  -0.01    -0.00   0.00   0.00     0.52  -0.61  -0.53
  34   1    -0.02   0.87  -0.40    -0.00   0.02  -0.01    -0.02  -0.01   0.03
  35   1    -0.06  -0.05   0.02     0.00  -0.00  -0.00    -0.11  -0.01   0.03
  36   1    -0.01  -0.01  -0.00     0.07   0.01   0.00    -0.01  -0.01  -0.00
  37   1     0.00   0.00   0.00     0.03  -0.03  -0.10     0.00   0.00   0.00
  38   1     0.01  -0.01  -0.00    -0.79   0.50   0.24    -0.01   0.00   0.00
                     97                     98                     99
                        a                      a                      a 
 Frequencies --  2994.4993              2995.0033              3004.2879
 Red. masses --     1.7456                 1.7501                 1.6863
 Frc consts  --     0.0000                 0.0000                 0.0000
 IR Inten    --     8.1050                 6.1630                 5.9335
 Raman Activ --     0.0000                 0.0000                 0.0000
 Depolar     --     0.0000                 0.0000                 0.0000
 Atom AN      X      Y      Z        X      Y      Z        X      Y      Z
   1   6    -0.00   0.00   0.00     0.01  -0.03  -0.03     0.00  -0.00  -0.00
   2   6     0.00  -0.01  -0.01    -0.03   0.18   0.18     0.00   0.00   0.00
   3   8     0.00  -0.00  -0.00    -0.01   0.01   0.00     0.00  -0.00  -0.00
   4   6    -0.00  -0.00   0.00     0.00   0.00   0.00    -0.00   0.00  -0.00
   5   8    -0.00   0.00   0.00     0.00  -0.00  -0.00     0.00  -0.00   0.00
   6   6    -0.00  -0.00   0.00     0.00   0.00   0.00    -0.00  -0.00  -0.00
   7   6     0.00  -0.00   0.00     0.00   0.00   0.00    -0.00   0.00  -0.00
   8   1    -0.00   0.00  -0.00    -0.00  -0.00   0.00     0.00  -0.00   0.00
   9   6     0.00  -0.00  -0.00     0.00  -0.00  -0.00    -0.00  -0.00   0.00
  10   8     0.00   0.00  -0.00    -0.00   0.00  -0.00     0.00   0.00  -0.00
  11   8     0.00   0.00   0.01     0.00   0.00   0.00     0.00   0.00   0.00
  12   6    -0.08  -0.15   0.19    -0.00  -0.01   0.01    -0.00  -0.00   0.00
  13   6     0.02   0.01  -0.03     0.00   0.00  -0.00     0.00   0.00  -0.00
  14  16    -0.00   0.00   0.00     0.00   0.00   0.00     0.00   0.00   0.00
  15  15     0.00   0.00   0.00     0.00  -0.00  -0.00     0.00   0.00   0.00
  16  16     0.00  -0.00   0.00    -0.00  -0.00   0.00     0.00  -0.00  -0.00
  17   8     0.00   0.00   0.00     0.00   0.00   0.00    -0.00  -0.00  -0.00
  18   6     0.00  -0.00  -0.00    -0.00   0.00   0.00     0.00  -0.00  -0.00
  19   8    -0.00  -0.00   0.00    -0.00  -0.00   0.00     0.00   0.01  -0.00
  20   6    -0.01  -0.00  -0.00     0.00  -0.00   0.00     0.22   0.10   0.02
  21   1     0.00  -0.00   0.00    -0.01   0.01  -0.01    -0.00   0.00  -0.00
  22   1     0.00   0.00  -0.00    -0.01  -0.02   0.02    -0.00  -0.00   0.00
  23   1     0.00  -0.01  -0.01    -0.02   0.11   0.10    -0.00   0.00   0.00
  24   1    -0.00  -0.00  -0.00     0.01   0.03   0.01     0.00   0.00   0.00
  25   1    -0.01   0.04   0.04     0.12  -0.67  -0.66     0.00  -0.00  -0.00
  26   1    -0.00  -0.00  -0.00    -0.00  -0.00  -0.01     0.01   0.01   0.02
  27   1     0.00   0.00  -0.00    -0.00  -0.00   0.00    -0.00  -0.00  -0.00
  28   1     0.27   0.55  -0.73     0.02   0.04  -0.05     0.00   0.01  -0.01
  29   1     0.01  -0.02   0.02    -0.00  -0.00   0.00     0.00  -0.00  -0.00
  30   1    -0.04  -0.08   0.11    -0.00  -0.00   0.01    -0.00  -0.00   0.01
  31   1    -0.03   0.00  -0.00    -0.00   0.00  -0.00    -0.01  -0.00   0.00
  32   1     0.01   0.01   0.01     0.00   0.00   0.00     0.00   0.00   0.00
  33   1    -0.00   0.00   0.00     0.00  -0.00  -0.00    -0.01   0.01   0.01
  34   1     0.00   0.00  -0.00    -0.00  -0.00   0.00     0.00  -0.01   0.00
  35   1    -0.00  -0.00  -0.00    -0.00  -0.00   0.00    -0.01  -0.00   0.00
  36   1     0.02   0.01   0.00     0.00   0.00   0.00    -0.79  -0.48  -0.23
  37   1    -0.00   0.00   0.00    -0.00  -0.00  -0.00     0.03   0.05   0.15
  38   1     0.01  -0.01  -0.00    -0.00   0.00   0.00    -0.03   0.05   0.03
                    100                    101                    102
                        a                      a                      a 
 Frequencies --  3008.4223              3024.9750              3031.2045
 Red. masses --     1.7261                 1.8056                 1.8491
 Frc consts  --     0.0000                 0.0000                 0.0000
 IR Inten    --     0.2549                 1.4876                 0.6409
 Raman Activ --     0.0000                 0.0000                 0.0000
 Depolar     --     0.0000                 0.0000                 0.0000
 Atom AN      X      Y      Z        X      Y      Z        X      Y      Z
   1   6    -0.00   0.00   0.00    -0.00   0.00  -0.00    -0.00   0.00   0.00
   2   6    -0.00  -0.00  -0.00     0.00   0.00  -0.00     0.00   0.00  -0.00
   3   8     0.00  -0.00  -0.00    -0.00  -0.00   0.00    -0.00  -0.00  -0.00
   4   6     0.00   0.00   0.01     0.00  -0.00   0.00     0.00  -0.00   0.00
   5   8    -0.00   0.00  -0.00    -0.00   0.00   0.00    -0.00   0.00  -0.00
   6   6     0.11   0.12   0.19     0.00   0.00   0.00     0.00   0.00   0.00
   7   6     0.00   0.00   0.01     0.00  -0.00   0.00    -0.00  -0.00  -0.00
   8   1    -0.01   0.01  -0.01    -0.00   0.00  -0.00    -0.00  -0.00   0.00
   9   6    -0.00   0.00  -0.00     0.00   0.00  -0.00    -0.00   0.00   0.00
  10   8    -0.00  -0.00  -0.00    -0.00  -0.00  -0.00     0.00   0.00  -0.00
  11   8    -0.00   0.00   0.00    -0.00  -0.00   0.00     0.00   0.00   0.00
  12   6     0.00   0.00  -0.00    -0.00  -0.00   0.00     0.00   0.00  -0.00
  13   6    -0.00  -0.00   0.00    -0.00  -0.00  -0.00     0.01   0.01  -0.01
  14  16    -0.00  -0.00   0.00     0.00  -0.00  -0.00     0.00   0.00  -0.00
  15  15     0.00  -0.00  -0.00    -0.00   0.00   0.00     0.00   0.00   0.00
  16  16     0.00  -0.00  -0.00     0.00   0.00   0.00     0.00   0.00  -0.00
  17   8     0.00  -0.00   0.00    -0.01  -0.00  -0.00    -0.00  -0.00  -0.00
  18   6     0.00   0.00   0.00    -0.25  -0.09   0.06     0.00   0.00  -0.00
  19   8     0.00   0.00  -0.00     0.00   0.00   0.00     0.00  -0.00   0.01
  20   6     0.00   0.00  -0.00     0.00   0.00   0.00     0.02   0.10   0.26
  21   1     0.00  -0.00   0.00     0.00  -0.00   0.00     0.00  -0.00   0.00
  22   1    -0.00   0.00   0.00    -0.00  -0.00   0.00     0.00   0.00  -0.00
  23   1     0.00  -0.01  -0.01    -0.00   0.00  -0.00     0.00  -0.00  -0.00
  24   1     0.00   0.00  -0.01    -0.00  -0.00   0.00    -0.00  -0.00   0.00
  25   1    -0.00   0.01   0.00    -0.00   0.00   0.00    -0.00   0.00   0.00
  26   1    -0.46  -0.48  -0.70    -0.00  -0.01  -0.01    -0.00  -0.00  -0.00
  27   1     0.05   0.05   0.00    -0.00  -0.00   0.00    -0.00  -0.00   0.00
  28   1    -0.00  -0.00   0.00     0.00   0.00  -0.00    -0.00  -0.00   0.00
  29   1    -0.00   0.00   0.00    -0.00   0.00   0.00    -0.00   0.00  -0.00
  30   1     0.00   0.00  -0.00    -0.00  -0.00   0.00    -0.01  -0.02   0.03
  31   1     0.00  -0.00   0.00     0.01  -0.00  -0.00    -0.03   0.00   0.00
  32   1    -0.00  -0.00  -0.00     0.00   0.00   0.00     0.00   0.00  -0.00
  33   1     0.00  -0.00  -0.00     0.02  -0.07  -0.04    -0.00   0.00   0.00
  34   1     0.00   0.00  -0.00    -0.03   0.05  -0.01     0.00  -0.00   0.00
  35   1    -0.01  -0.00   0.00     0.89   0.33  -0.14    -0.01  -0.00   0.00
  36   1    -0.02  -0.01  -0.01    -0.01  -0.01  -0.00    -0.13  -0.06  -0.01
  37   1     0.00   0.00   0.01     0.00  -0.00  -0.01    -0.01  -0.23  -0.92
  38   1     0.00  -0.00  -0.00     0.00  -0.00   0.00     0.07  -0.03   0.01
                    103                    104                    105
                        a                      a                      a 
 Frequencies --  3035.3869              3035.7335              3041.6915
 Red. masses --     1.8077                 1.9068                 1.4913
 Frc consts  --     0.0000                 0.0000                 0.0000
 IR Inten    --    44.3632                31.4330                27.6481
 Raman Activ --     0.0000                 0.0000                 0.0000
 Depolar     --     0.0000                 0.0000                 0.0000
 Atom AN      X      Y      Z        X      Y      Z        X      Y      Z
   1   6     0.05  -0.16  -0.18     0.02  -0.06  -0.07     0.00  -0.00  -0.00
   2   6     0.01  -0.03  -0.04     0.00  -0.01  -0.01     0.00  -0.00  -0.00
   3   8     0.00  -0.00  -0.00     0.00  -0.00  -0.00    -0.00   0.00   0.00
   4   6    -0.00  -0.00  -0.00    -0.00  -0.00  -0.00     0.00  -0.00   0.00
   5   8     0.00   0.00   0.00     0.00   0.00   0.00     0.00   0.00  -0.00
   6   6     0.00   0.00   0.00    -0.00  -0.00  -0.00     0.00   0.00   0.00
   7   6    -0.00   0.00  -0.00     0.00  -0.00   0.00     0.00   0.00  -0.00
   8   1     0.00  -0.00   0.00    -0.00   0.00  -0.00    -0.00  -0.00   0.00
   9   6     0.00   0.00   0.00    -0.00  -0.00  -0.00    -0.00   0.00  -0.00
  10   8    -0.00  -0.00  -0.00     0.00   0.00   0.00     0.00  -0.00  -0.00
  11   8     0.00  -0.00  -0.00    -0.00   0.00   0.00    -0.00  -0.00  -0.00
  12   6     0.01   0.01  -0.01    -0.02  -0.02   0.03    -0.02   0.01  -0.01
  13   6     0.06   0.04  -0.06    -0.17  -0.12   0.17    -0.19   0.07  -0.07
  14  16    -0.00  -0.00  -0.00    -0.00  -0.00   0.00    -0.00   0.00   0.00
  15  15     0.00  -0.00  -0.00     0.00   0.00   0.00     0.00   0.00  -0.00
  16  16     0.00   0.00  -0.00    -0.00  -0.00   0.00    -0.00  -0.00  -0.00
  17   8    -0.00  -0.00  -0.00    -0.00  -0.00  -0.00     0.00   0.00   0.00
  18   6    -0.00  -0.00  -0.00     0.00   0.00  -0.00     0.00   0.00  -0.00
  19   8     0.00   0.00  -0.00    -0.00  -0.00   0.00    -0.00  -0.00   0.00
  20   6    -0.00  -0.00  -0.00     0.00   0.01   0.01     0.00   0.00   0.00
  21   1     0.00  -0.01  -0.03     0.00  -0.00  -0.01     0.00  -0.00   0.00
  22   1    -0.04  -0.07   0.07    -0.01  -0.02   0.03    -0.00  -0.00   0.00
  23   1    -0.14   0.64   0.60    -0.05   0.23   0.22    -0.00   0.01   0.01
  24   1    -0.01  -0.01   0.02    -0.00  -0.00   0.01    -0.00  -0.00   0.00
  25   1    -0.02   0.10   0.09    -0.01   0.04   0.03    -0.00   0.00   0.00
  26   1    -0.00  -0.00  -0.01     0.00   0.00   0.00    -0.00  -0.00  -0.00
  27   1     0.00   0.00  -0.00     0.00   0.00  -0.00    -0.00  -0.00   0.00
  28   1    -0.01  -0.03   0.04     0.04   0.07  -0.10    -0.01  -0.02   0.03
  29   1    -0.01   0.00   0.00     0.04  -0.00  -0.00     0.05   0.00  -0.01
  30   1    -0.07  -0.16   0.22     0.21   0.44  -0.62    -0.15  -0.25   0.35
  31   1    -0.16   0.00   0.00     0.41  -0.01  -0.00     0.86   0.01  -0.07
  32   1     0.01   0.01  -0.00    -0.03  -0.02   0.01    -0.04  -0.01  -0.05
  33   1    -0.00   0.00   0.00    -0.00   0.00   0.00     0.00  -0.00  -0.00
  34   1     0.00   0.00  -0.00     0.00  -0.00   0.00     0.00  -0.00   0.00
  35   1     0.00   0.00  -0.00    -0.00  -0.00   0.00    -0.00  -0.00   0.00
  36   1     0.00   0.00   0.00    -0.01  -0.01  -0.00    -0.01  -0.00  -0.00
  37   1    -0.00   0.00   0.01     0.00  -0.01  -0.05     0.00  -0.00  -0.00
  38   1     0.00  -0.00  -0.00     0.00   0.00   0.00    -0.00   0.00   0.00
                    106                    107                    108
                        a                      a                      a 
 Frequencies --  3050.6382              3062.9236              3064.5861
 Red. masses --     1.6409                 1.7501                 1.7335
 Frc consts  --     0.0000                 0.0000                 0.0000
 IR Inten    --    22.8732                18.5849                18.1135
 Raman Activ --     0.0000                 0.0000                 0.0000
 Depolar     --     0.0000                 0.0000                 0.0000
 Atom AN      X      Y      Z        X      Y      Z        X      Y      Z
   1   6     0.10   0.12  -0.18    -0.00   0.00  -0.00    -0.16   0.17  -0.11
   2   6     0.01   0.01  -0.02     0.00   0.00  -0.00    -0.00   0.01  -0.00
   3   8    -0.00  -0.00  -0.00     0.00  -0.00   0.00    -0.00  -0.00   0.00
   4   6     0.00   0.00  -0.00    -0.00   0.00  -0.00     0.00  -0.00  -0.00
   5   8    -0.00  -0.00   0.00     0.00  -0.00   0.00    -0.00  -0.00   0.00
   6   6     0.00   0.00  -0.00     0.00   0.00   0.00    -0.00   0.00  -0.00
   7   6     0.00  -0.00   0.00    -0.00   0.00  -0.00     0.00  -0.00   0.00
   8   1    -0.00   0.00  -0.00     0.00  -0.00   0.00    -0.00   0.00  -0.00
   9   6     0.00   0.00  -0.00    -0.00  -0.00   0.00     0.00  -0.00  -0.00
  10   8    -0.00   0.00   0.00     0.00   0.00  -0.00    -0.00   0.00   0.00
  11   8     0.00  -0.00  -0.00     0.00  -0.00   0.00    -0.00   0.00   0.00
  12   6    -0.00  -0.00   0.00    -0.01   0.00  -0.01     0.00  -0.00   0.00
  13   6    -0.00  -0.00   0.00    -0.11  -0.10  -0.21     0.00   0.00   0.00
  14  16     0.00   0.00  -0.00     0.00   0.00  -0.00     0.00   0.00  -0.00
  15  15    -0.00  -0.00   0.00     0.00   0.00  -0.00     0.00  -0.00  -0.00
  16  16    -0.00   0.00   0.00    -0.00  -0.00  -0.00    -0.00   0.00   0.00
  17   8     0.00  -0.00  -0.00    -0.00  -0.00   0.00    -0.00   0.00   0.00
  18   6     0.00   0.00  -0.00     0.00   0.00  -0.00     0.00   0.00  -0.00
  19   8     0.00   0.00  -0.00    -0.00  -0.00  -0.00    -0.00   0.00   0.00
  20   6    -0.00   0.00   0.00     0.00   0.00   0.00     0.00  -0.00  -0.00
  21   1    -0.01   0.04  -0.04     0.00  -0.00   0.00     0.62  -0.65   0.36
  22   1    -0.36  -0.38   0.80    -0.00  -0.00   0.00    -0.03   0.01   0.02
  23   1     0.03  -0.08  -0.11     0.00  -0.00  -0.00    -0.02   0.03  -0.01
  24   1    -0.02  -0.02   0.05    -0.00  -0.00   0.00    -0.01  -0.00   0.01
  25   1    -0.00   0.01   0.00     0.00  -0.00  -0.00     0.00  -0.01  -0.01
  26   1     0.00   0.00   0.00    -0.00  -0.00  -0.00     0.00   0.00   0.00
  27   1    -0.00  -0.00   0.00    -0.00  -0.00   0.00    -0.00  -0.00   0.00
  28   1     0.00   0.00  -0.00    -0.01  -0.01   0.01     0.00   0.00  -0.00
  29   1     0.00   0.00  -0.00     0.01   0.00  -0.00    -0.00   0.00  -0.00
  30   1     0.00   0.00  -0.00    -0.02  -0.01  -0.02     0.00   0.00  -0.00
  31   1     0.00  -0.00  -0.00     0.04  -0.01  -0.03    -0.00  -0.00   0.00
  32   1    -0.00  -0.00  -0.00     0.38   0.36   0.81    -0.00  -0.00  -0.00
  33   1    -0.00   0.00   0.00     0.00  -0.00  -0.00    -0.00   0.00   0.00
  34   1     0.00  -0.00   0.00     0.00  -0.00   0.00     0.00  -0.00   0.00
  35   1    -0.00  -0.00   0.00    -0.00  -0.00   0.00    -0.00  -0.00   0.00
  36   1     0.00   0.00   0.00    -0.00  -0.00  -0.00    -0.00  -0.00  -0.00
  37   1     0.00  -0.00  -0.00    -0.00  -0.00  -0.00     0.00   0.00   0.00
  38   1     0.00  -0.00  -0.00     0.00  -0.00  -0.00     0.00  -0.00  -0.00
