20
 energy: -27.122032648806 gnorm: 0.029875185981 xtb: 6.7.1 (edcfbbe)
C           -1.18435040736453        1.29214926109913       -1.00329271757665
C           -0.99726523584736        0.16741327052467        0.01592408107388
C           -1.73561790372499       -1.09662622039666       -0.45900817401911
C           -1.54516166093006        0.60471493636196        1.38438443150609
C            0.46234475344964       -0.22152381625581        0.21405260361976
O            0.83433130513615       -1.06209379742441        1.01898830447451
O            1.31410561352745        0.43877468749530       -0.58655835148810
C            2.71663868974010        0.09010935965801       -0.44529018320653
H           -0.81958065798285        1.00494676889971       -1.99333135273938
H           -2.25233358395517        1.51724259595359       -1.08738068657253
H           -0.66881358072208        2.20580006602881       -0.69359471192417
H           -1.63708558535924       -1.90728539920919        0.26819333620448
H           -1.34673076041562       -1.44058564291982       -1.42312928486061
H           -2.79861220934415       -0.86542931105863       -0.57960182795351
H           -1.45766760794622       -0.19853952050476        2.12086071279296
H           -1.00932051612627        1.48318934728044        1.75854531658363
H           -2.60294016553944        0.86532999498352        1.28021354918140
H            2.86526483610819       -0.96867078252553       -0.67009784826389
H            3.05914104914129        0.31156601822366        0.56832001857197
H            3.24126990430952        0.71197519070219       -1.16981383893692
20
 energy: -27.123158489048 gnorm: 0.010433527169 xtb: 6.7.1 (edcfbbe)
C           -1.17434801902658        1.28941142476705       -1.00201156773638
C           -0.99907247382419        0.16672903303779        0.01674432083500
C           -1.73815315903826       -1.09244549754557       -0.45826081518559
C           -1.54821259124326        0.60475789191374        1.38073095593195
C            0.45818578028110       -0.22258331165273        0.21438005628059
O            0.82828617852759       -1.05771930617258        1.01496977172601
O            1.30652214686103        0.43089668529304       -0.57969823702867
C            2.70148948417682        0.09684484645323       -0.44984088727685
H           -0.79771593885786        0.99505925905003       -1.97930947080834
H           -2.23448270761848        1.52230995429327       -1.09495822330064
H           -0.64893786939266        2.18898019363899       -0.68782321878284
H           -1.62249637364674       -1.89629619365893        0.26645710217953
H           -1.34516824076361       -1.43040907880125       -1.41615649622235
H           -2.79784743740919       -0.87192812083566       -0.57491274513866
H           -1.44133634022001       -0.19737785535643        2.10853626068694
H           -1.01102912038008        1.47793387369402        1.74831010100158
H           -2.60270689309231        0.85862112255826        1.28701778387388
H            2.84757207893094       -0.96139558195404       -0.66540389247810
H            3.03840761969019        0.31101721948105        0.56422433607360
H            3.21866015219992        0.72005044871289       -1.17461175816339
20
 energy: -27.123374602645 gnorm: 0.003887477420 xtb: 6.7.1 (edcfbbe)
C           -1.16262095430754        1.28999346583198       -1.00398276827697
C           -1.00294605733729        0.16700655997181        0.01692779887894
C           -1.73888810818623       -1.09271615086364       -0.45815265603470
C           -1.54860077472585        0.60443653816408        1.38145979432166
C            0.45251514508795       -0.22452489845787        0.21683145620767
O            0.82213046536956       -1.05892422144709        1.01695249228909
O            1.29579123936597        0.42557317556062       -0.57466945034299
C            2.68542460911882        0.10200939357283       -0.45283553141708
H           -0.77676500259162        0.98912359204642       -1.97358134800482
H           -2.21717504786575        1.53132396837902       -1.10626496447810
H           -0.62939180061370        2.18079978314233       -0.68484373148181
H           -1.61113197202831       -1.89497655551467        0.26413550996681
H           -1.34745669252889       -1.42446926694600       -1.41651484534566
H           -2.79757900377930       -0.87840023439501       -0.56743845004374
H           -1.42655738904458       -0.19602138069020        2.10672209611424
H           -1.01533656581288        1.48031139417360        1.74234587540373
H           -2.60305118756040        0.84776439216859        1.29381477320863
H            2.83760988957760       -0.95598160913879       -0.66460930952862
H            3.02595991274521        0.31324516095965        0.56041130479866
H            3.19568557127162        0.72688390039851       -1.17832466976766
20
 energy: -27.123414700344 gnorm: 0.001487608972 xtb: 6.7.1 (edcfbbe)
C           -1.15679721354601        1.29000381868758       -1.00449944426125
C           -1.00416702942385        0.16645143821749        0.01762894113706
C           -1.74083282366685       -1.09271495870529       -0.45832240462381
C           -1.55032167561308        0.60465929320181        1.38189163461183
C            0.45092086186476       -0.22700960137388        0.21877279284381
O            0.81997373241651       -1.06170293239566        1.02036661684508
O            1.29202506123671        0.42252093139450       -0.57254281789656
C            2.68043544901241        0.10413135019542       -0.45432606786939
H           -0.76685705169053        0.98605694285771       -1.97159326572831
H           -2.20926061263801        1.53681499878542       -1.11245601265874
H           -0.61985320206339        2.17777464035118       -0.68278126198079
H           -1.60623437169551       -1.89667707738848        0.26114940879652
H           -1.35295400493920       -1.42009824132610       -1.41983394575750
H           -2.80082291111550       -0.88160844204546       -0.56107520634564
H           -1.41847801506582       -0.19325269065323        2.10859127072308
H           -1.02217386183473        1.48582077090394        1.73805303869439
H           -2.60713727336827        0.83894385131759        1.29794573257163
H            2.83799250340310       -0.95378749797208       -0.66603709540722
H            3.02491874321332        0.31566289697060        0.55824597825551
H            3.18723997166832        0.73046751589310       -1.18079451548243
20
 energy: -27.123439218535 gnorm: 0.002550627760 xtb: 6.7.1 (edcfbbe)
C           -1.14863084740858        1.28970860370063       -1.00464498266870
C           -1.00531869272652        0.16537148644997        0.01891872576813
C           -1.74423760540098       -1.09237776581910       -0.45859858882948
C           -1.55353168362527        0.60482980607034        1.38229761273088
C            0.44971738299149       -0.23062369557028        0.22272245327673
O            0.81657660984491       -1.06622055572443        1.02630580850521
O            1.28924452364956        0.41761022488645       -0.56950182322881
C            2.67758356310004        0.10582745382014       -0.45619125799228
H           -0.75486910417705        0.98287630697364       -1.96979112830570
H           -2.19890462551645        1.54307048517703       -1.11921283478735
H           -0.60819321739087        2.17495319370754       -0.68006064477305
H           -1.59939684064939       -1.90185612944576        0.25366578495866
H           -1.36670304459531       -1.41143428974543       -1.42789476990619
H           -2.80680988644868       -0.88438578574131       -0.54743743905888
H           -1.40487547124117       -0.18581313109813        2.11476292517494
H           -1.03922879751304        1.49875889796619        1.72959626090908
H           -2.61550858262774        0.81986262502311        1.30221572850478
H            2.84299575097367       -0.95165141410462       -0.66907002213945
H            3.02810645714936        0.31939237490081        0.55494413958615
H            3.17960038776639        0.73455831548939       -1.18464257125741
20
 energy: -27.123446964273 gnorm: 0.001656034590 xtb: 6.7.1 (edcfbbe)
C           -1.14924031023229        1.28958884124336       -1.00428570687537
C           -1.00476470641411        0.16536248874047        0.01888685594899
C           -1.74434304143810       -1.09185436472301       -0.45866879832620
C           -1.55375441318565        0.60487142597801        1.38182887795393
C            0.45033435704367       -0.23110186003935        0.22263126498634
O            0.81678220317487       -1.06606277630134        1.02661169421247
O            1.29057030366699        0.41716703285379       -0.56962132128996
C            2.67949347014167        0.10500716196405       -0.45576914298827
H           -0.75639621041561        0.98342702998365       -1.96998333007265
H           -2.19989282845497        1.54207253216141       -1.11770682587156
H           -0.60944535671073        2.17537895686139       -0.68020002601566
H           -1.59858156571245       -1.90247532704910        0.25193864757757
H           -1.36933797326796       -1.40966901184107       -1.42923426776686
H           -2.80702954371200       -0.88334167957104       -0.54494456755189
H           -1.40284465525917       -0.18382744309733        2.11565976047306
H           -1.04286360371012        1.50104709984064        1.72782499334057
H           -2.61637751598475        0.81627264606764        1.30145859624156
H            2.84436739824367       -0.95224438703133       -0.66899777245245
H            3.02942171403788        0.31902148401524        0.55525271797358
H            3.18151855434355        0.73381715686013       -1.18429827302992
20
 energy: -27.123454989828 gnorm: 0.001177872194 xtb: 6.7.1 (edcfbbe)
C           -1.15125122276344        1.28982556725383       -1.00351636787403
C           -1.00345467140538        0.16588875636354        0.01861081077169
C           -1.74391560158773       -1.09037878242168       -0.45924566289620
C           -1.55412507770828        0.60496829238070        1.38065288013082
C            0.45182730140044       -0.23025153335536        0.22339270383597
O            0.81729062279221       -1.06470816795435        1.02691251760522
O            1.29378207707764        0.41665590111722       -0.57008758914647
C            2.68392169114149        0.10180773986947       -0.45441853703284
H           -0.76082923113582        0.98569448032529       -1.97069746590269
H           -2.20318565019407        1.53919634710662       -1.11326658390746
H           -0.61333863643611        2.17709836023894       -0.68087995718864
H           -1.59397787831247       -1.90400023903554        0.24655351217111
H           -1.37564471985692       -1.40373627341927       -1.43337551802502
H           -2.80702391831619       -0.88150265924463       -0.53778043388706
H           -1.39374045449740       -0.17788090493821        2.11820748926877
H           -1.05393006522646        1.50857159877440        1.72144446833468
H           -2.61901907243562        0.80360117911604        1.30010053574589
H            2.84594989396592       -0.95512245068142       -0.66772103748211
H            3.03156981826094        0.31665014952039        0.55647869823408
H            3.18671107139162        0.73007964590022       -1.18298108628844
20
 energy: -27.123457540093 gnorm: 0.000641881565 xtb: 6.7.1 (edcfbbe)
C           -1.15077411327532        1.29036568958164       -1.00382782186840
C           -1.00376472678554        0.16622249885356        0.01843219114223
C           -1.74372435047594       -1.09041907895713       -0.45941028771750
C           -1.55416750576821        0.60509934545060        1.38081229659026
C            0.45124465855980       -0.23087611362264        0.22227411041730
O            0.81704328318741       -1.06402632262154        1.02732516736029
O            1.29304441069962        0.41634778264805       -0.57051672629038
C            2.68277106080413        0.10167713233936       -0.45421276420812
H           -0.76000264172603        0.98572108535207       -1.97069679466100
H           -2.20239878902022        1.54068102882158       -1.11410795422946
H           -0.61203818108366        2.17706968444771       -0.68095641299944
H           -1.59142361447712       -1.90429085359783        0.24569538421438
H           -1.37625087112898       -1.40241201054097       -1.43431389964541
H           -2.80718223607779       -0.88288330730925       -0.53613338025393
H           -1.38994573939669       -0.17684680182082        2.11857947331884
H           -1.05602594420838        1.51047266941440        1.71996491344889
H           -2.61982391322764        0.80027232395605        1.30210849828139
H            2.84482330522870       -0.95548164007957       -0.66713213404662
H            3.03017231961873        0.31606492538457        0.55699984436631
H            3.18603986470750        0.72969896921633       -1.18250032675233
20
 energy: -27.123459023678 gnorm: 0.000345994261 xtb: 6.7.1 (edcfbbe)
C           -1.15052933922443        1.29128549637965       -1.00419533027495
C           -1.00416976238367        0.16695875812479        0.01826016967688
C           -1.74304333420579       -1.09047630597146       -0.45984217852328
C           -1.55438406834005        0.60509177826490        1.38110110379356
C            0.45081189457060       -0.22900436296465        0.22282624173867
O            0.81674116711034       -1.06283708395191        1.02760332110855
O            1.29232650852272        0.41667238566561       -0.57089521770283
C            2.68129497571970        0.10081968337655       -0.45428076134181
H           -0.75926823017944        0.98611904708527       -1.97075015950573
H           -2.20180853265318        1.54255649076104       -1.11520212225680
H           -0.61103934344194        2.17744634731763       -0.68097025150240
H           -1.58781068391761       -1.90446887070912        0.24457184423856
H           -1.37611790863006       -1.40091272449014       -1.43550852510575
H           -2.80706843155282       -0.88538630611980       -0.53482799851999
H           -1.38489998359125       -0.17556351066024        2.11912022932335
H           -1.05936620711972        1.51300040831453        1.71819678898185
H           -2.62103764071657        0.79529388140335        1.30463362756929
H            2.84262058201993       -0.95685128987269       -0.66634087364880
H            3.02862935042162        0.31478483070757        0.55726544291940
H            3.18573526374599        0.72792835425530       -1.18238197450052
20
 energy: -27.123459523509 gnorm: 0.000128807546 xtb: 6.7.1 (edcfbbe)
C           -1.15102736681133        1.29167168476525       -1.00408606215516
C           -1.00412484248086        0.16734270382915        0.01820327122572
C           -1.74254275550312       -1.09031185320912       -0.45998960002285
C           -1.55458959766831        0.60508466475005        1.38105208235762
C            0.45086850926310       -0.22863162490745        0.22251935416474
O            0.81674917993811       -1.06175739930210        1.02798537696301
O            1.29275443347980        0.41661803083378       -0.57139568849942
C            2.68168803400629        0.09998813577292       -0.45410924211323
H           -0.76031879711406        0.98670711023779       -1.97094251972201
H           -2.20244216683268        1.54270243058999       -1.11444122180496
H           -0.61162170015236        2.17800311100886       -0.68114343237127
H           -1.58643609833647       -1.90462023918746        0.24382482141504
H           -1.37626298340039       -1.40001700540630       -1.43613570203291
H           -2.80670346322275       -0.88563303992711       -0.53406153582112
H           -1.38270260997474       -0.17453767631590        2.11955346781504
H           -1.06177148686314        1.51455778260700        1.71715118733940
H           -2.62176456186594        0.79244794169653        1.30500544631037
H            2.84233615089315       -0.95777073294833       -0.66604019428161
H            3.02864478991228        0.31393713397287        0.55752953597974
H            3.18688360888782        0.72667584805576       -1.18209596827887
20
 energy: -27.123459529112 gnorm: 0.000230566066 xtb: 6.7.1 (edcfbbe)
C           -1.15152539439824        1.29205787315085       -1.00397679403538
C           -1.00407992257806        0.16772664953351        0.01814637277456
C           -1.74204217680045       -1.09014740044677       -0.46013702152241
C           -1.55479512699657        0.60507755123520        1.38100306092168
C            0.45092512395561       -0.22825888685025        0.22221246659080
O            0.81675719276588       -1.06067771465230        1.02836743281746
O            1.29318235843688        0.41656367600195       -0.57189615929602
C            2.68208109229287        0.09915658816930       -0.45393772288465
H           -0.76136936404868        0.98729517339032       -1.97113487993829
H           -2.20307580101218        1.54284837041894       -1.11368032135311
H           -0.61220405686279        2.17855987470009       -0.68131661324014
H           -1.58506151275533       -1.90477160766580        0.24307779859151
H           -1.37640805817072       -1.39912128632245       -1.43676287896007
H           -2.80633849489269       -0.88587977373442       -0.53329507312226
H           -1.38050523635822       -0.17351184197157        2.11998670630673
H           -1.06417676660656        1.51611515689946        1.71610558569696
H           -2.62249148301532        0.78960200198970        1.30537726505145
H            2.84205171976637       -0.95869017602397       -0.66573951491441
H            3.02866022940295        0.31308943723817        0.55779362904008
H            3.18803195402964        0.72542334185623       -1.18180996205722
20
 energy: -27.123459712514 gnorm: 0.000057640302 xtb: 6.7.1 (edcfbbe)
C           -1.15135506268629        1.29203242773780       -1.00386486281127
C           -1.00400273628897        0.16769702689813        0.01827400822820
C           -1.74197587762833       -1.09011419197146       -0.46015834609390
C           -1.55503049634943        0.60501303711081        1.38099380969426
C            0.45104273285942       -0.22805895318613        0.22272482134567
O            0.81688067248345       -1.06053712363466        1.02880965494453
O            1.29307911994394        0.41638590325261       -0.57178963580990
C            2.68190843327868        0.09918857410543       -0.45426699445266
H           -0.76103316002918        0.98718654645874       -1.97090482153601
H           -2.20283936948897        1.54303145679272       -1.11376632592780
H           -0.61186819620402        2.17838058655479       -0.68112730815157
H           -1.58539543113862       -1.90455718234268        0.24334809313435
H           -1.37583298757853       -1.39937751458402       -1.43646933141466
H           -2.80622730839934       -0.88583706311225       -0.53393533289402
H           -1.38120153302036       -0.17372212109297        2.11989431475160
H           -1.06424305696901        1.51576687117140        1.71643166112284
H           -2.62260824571645        0.78991973778327        1.30515807738147
H            2.84203572217134       -0.95865678574946       -0.66600003399254
H            3.02876746904042        0.31320988309786        0.55735699997786
H            3.18751558787466        0.72550589162624       -1.18232507102918
20
 energy: -27.123459851618 gnorm: 0.000078447501 xtb: 6.7.1 (edcfbbe)
C           -1.15115461110010        1.29215227427765       -1.00366661931378
C           -1.00398969158779        0.16777413428314        0.01847099183063
C           -1.74168727256887       -1.09011170479707       -0.46024080326583
C           -1.55540953301056        0.60490429684168        1.38107340407598
C            0.45109830137010       -0.22772942117137        0.22323773454210
O            0.81700716517130       -1.05979131802840        1.02971529255119
O            1.29292597486377        0.41602304060077       -0.57200923983096
C            2.68174887536083        0.09900381223127       -0.45471799960068
H           -0.76093517029071        0.98723729422801       -1.97072321343946
H           -2.20259452467755        1.54335128384420       -1.11350405546839
H           -0.61147160066406        2.17838570954650       -0.68094441090212
H           -1.58572874858899       -1.90438583221758        0.24360914549338
H           -1.37483285791534       -1.39967033455728       -1.43618763484432
H           -2.80586974190675       -0.88576912220903       -0.53488770914794
H           -1.38165848051341       -0.17386021551306        2.11997419471244
H           -1.06485119045508        1.51569115027321        1.71670110201152
H           -2.62298995010302        0.78964070571312        1.30494320867961
H            2.84202489233636       -0.95886805211075       -0.66625653214586
H            3.02884638273037        0.31324032015743        0.55678704908169
H            3.18713805770389        0.72523898552374       -1.18299052855192
20
 energy: -27.123460189638 gnorm: 0.000173408501 xtb: 6.7.1 (edcfbbe)
C           -1.15083304134057        1.29254780861023       -1.00304028292444
C           -1.00388913710708        0.16803353568031        0.01900024826355
C           -1.74082055148394       -1.09002543050094       -0.46053594668064
C           -1.55650504128753        0.60457266493235        1.38126326835593
C            0.45129718126228       -0.22692042341107        0.22443179748069
O            0.81752096795978       -1.05722471211323        1.03258634533497
O            1.29261577050941        0.41476869477617       -0.57298410765884
C            2.68149431213509        0.09828512265282       -0.45594220736619
H           -0.76109401996070        0.98744337077164       -1.97022833833287
H           -2.20216128598258        1.54442166340101       -1.11251175471002
H           -0.61047066688897        2.17841569149115       -0.68043806970292
H           -1.58660763337381       -1.90386263418031        0.24422654621373
H           -1.37193948986072       -1.40034919512668       -1.43547780529479
H           -2.80481877131688       -0.88549722240495       -0.53763719228535
H           -1.38252282664887       -0.17411433421247        2.12021618913630
H           -1.06692808675189        1.51572290744925        1.71727122832784
H           -2.62420660937359        0.78836822808863        1.30450550342049
H            2.84216974437457       -0.95967621265888       -0.66682146746049
H            3.02890451601244        0.31332472437524        0.55530004449566
H            3.18641094527798        0.72422275929592       -1.18480062214533
20
 energy: -27.123460882700 gnorm: 0.000268580812 xtb: 6.7.1 (edcfbbe)
C           -1.15032419563835        1.29368966255169       -1.00159473541417
C           -1.00375685094727        0.16883520406454        0.02016268728284
C           -1.73847969535553       -1.08985617063690       -0.46131714965564
C           -1.55903408729303        0.60384947327396        1.38175260532558
C            0.45161721345243       -0.22484938478104        0.22690810684707
O            0.81861501922963       -1.05062143784008        1.03935253682494
O            1.29193763159217        0.41180457708739       -0.57558232295568
C            2.68093542871192        0.09621721172697       -0.45864837829393
H           -0.76182347874945        0.98828595291414       -1.96917762829248
H           -2.20144315519731        1.54682547679772       -1.11003851993309
H           -0.60862437486758        2.17886190045336       -0.67932991920122
H           -1.58774702478070       -1.90286905341628        0.24519611073156
H           -1.36512433121700       -1.40144180971848       -1.43417436325286
H           -2.80210057441866       -0.88520164715217       -0.54365979594268
H           -1.38356116097558       -0.17427090220563        2.12094859884914
H           -1.07243553531331        1.51637434742732        1.71824960742002
H           -2.62716444782457        0.78453548441083        1.30391614340890
H            2.84218784063363       -0.96199223157905       -0.66786892144649
H            3.02876138898411        0.31308148501991        0.55208121424984
H            3.18518066612884        0.72119886851794       -1.18879250008439
20
 energy: -27.123461974798 gnorm: 0.000350663987 xtb: 6.7.1 (edcfbbe)
C           -1.14999521227188        1.29584006089531       -0.99913636048745
C           -1.00349312787553        0.17046726046862        0.02209061382755
C           -1.73415073513660       -1.08944476317407       -0.46274297319381
C           -1.56335897562066        0.60272906906932        1.38255462002472
C            0.45217773402396       -0.22107318497264        0.23089272157597
O            0.82052953264935       -1.03878493233239        1.05092331237580
O            1.29100635956118        0.40684537410195       -0.58016319279825
C            2.68015718935058        0.09213972762840       -0.46304987833883
H           -0.76331974657113        0.99018605274073       -1.96737534858656
H           -2.20089498908745        1.55061651630928       -1.10594468833965
H           -0.60649882450552        2.18008114939154       -0.67732008135495
H           -1.58831376066132       -1.90130692345764        0.24616443211593
H           -1.35371624689505       -1.40244501808431       -1.43245536591001
H           -2.79727461234735       -0.88522542485338       -0.55311275354590
H           -1.38423877684083       -0.17408411362792        2.12228365137468
H           -1.08252808971962        1.51821084486348        1.71936947429794
H           -2.63246545376337        0.77704385904516        1.30320666337038
H            2.84181320902326       -0.96657118046596       -0.66941599010106
H            3.02844779789415        0.31199848808592        0.54689032764653
H            3.18373300494822        0.71523414528477       -1.19527580748582
20
 energy: -27.123463566786 gnorm: 0.000534824561 xtb: 6.7.1 (edcfbbe)
C           -1.14979207515386        1.29922914193866       -0.99556528578445
C           -1.00318059717028        0.17309314973168        0.02485504424942
C           -1.72735658722802       -1.08890363737134       -0.46483625632432
C           -1.56972602633505        0.60119147320605        1.38371722255117
C            0.45290998851268       -0.21517563094400        0.23651563016133
O            0.82328641056294       -1.02068412603134        1.06777907709498
O            1.28969728827682        0.39970171029695       -0.58688771452593
C            2.67899784410830        0.08565613326427       -0.46937738086650
H           -0.76514900350961        0.99362071829618       -1.96461968952224
H           -2.20051105458887        1.55547487234980       -1.10043992903744
H           -0.60464387365478        2.18259489162099       -0.67412037621512
H           -1.58749559799017       -1.89942682774063        0.24685271557016
H           -1.33722388255895       -1.40301548523611       -1.43041951044672
H           -2.78984245351759       -0.88598695902637       -0.56586991802325
H           -1.38497838552997       -0.17343343954585        2.12432441577184
H           -1.09772851400674        1.52117067749818        1.72089062308395
H           -2.64021471547185        0.76583504618114        1.30232578610051
H            2.84062287200042       -0.97385820717284       -0.67156526680374
H            3.02793885808456        0.30969404222054        0.53944062777665
H            3.18200578132442        0.70567946338017       -1.20461643834310
20
 energy: -27.123465604745 gnorm: 0.000705780836 xtb: 6.7.1 (edcfbbe)
C           -1.15002680765177        1.30278725705215       -0.99197906671793
C           -1.00286472685359        0.17597824872893        0.02765154278759
C           -1.72008324790376       -1.08828936754931       -0.46695540694510
C           -1.57618882993275        0.59978399311344        1.38484359242652
C            0.45364665381647       -0.20890569976271        0.24204526112081
O            0.82616075345186       -1.00161184217071        1.08466682840896
O            1.28843945670016        0.39248162316104       -0.59359731981329
C            2.67785017923637        0.07858075234061       -0.47561258203234
H           -0.76636857120902        0.99774228064653       -1.96159400874420
H           -2.20075339969319        1.55943516620725       -1.09567310195093
H           -0.60438627964849        2.18580310023263       -0.67037788396578
H           -1.58487255064989       -1.89784139223445        0.24671535940872
H           -1.32102081541865       -1.40249537757151       -1.42890117785511
H           -2.78204161180962       -0.88745191141674       -0.57739704862482
H           -1.38575088099774       -0.17259625773323        2.12633614233333
H           -1.11309512933428        1.52423616485790        1.72232599752205
H           -2.64799282822961        0.75467034684177        1.30132917516922
H            2.83890817926537       -0.98179781836878       -0.67358015582750
H            3.02748260637227        0.30672929078632        0.53204679802253
H            3.18057412664430        0.69521844975498       -1.21390956825555
20
 energy: -27.123468251468 gnorm: 0.000396434728 xtb: 6.7.1 (edcfbbe)
C           -1.15065201989418        1.30521567449990       -0.98979987209396
C           -1.00269259935485        0.17806507533649        0.02935393220771
C           -1.71499560294336       -1.08789782621583       -0.46822272048855
C           -1.58024254360862        0.59908357805165        1.38546998220298
C            0.45408082339919       -0.20453079522075        0.24526641983707
O            0.82804922652345       -0.98866565169856        1.09494694259717
O            1.28771446096009        0.38807934279485       -0.59761919932579