 Entering Gaussian System
 *********************************************
 Gaussian 98:
 frequency output generated by the xtb code
 *********************************************
                         Standard orientation:
 --------------------------------------------------------------------
  Center     Atomic     Atomic              Coordinates (Angstroms)
  Number     Number      Type              X           Y           Z
 --------------------------------------------------------------------
    1          6             0        2.561550    2.675447   -0.481956
    2          6             0        2.977297    1.362019   -1.114666
    3          8             0        2.001384    0.337785   -0.818356
    4         15             0        2.264174   -0.802322    0.251747
    5         16             0        3.123414   -0.253225    1.929392
    6          8             0        3.106477   -1.847626   -0.603873
    7          6             0        3.969224   -2.852802   -0.038324
    8          6             0        3.196103   -4.003948    0.572289
    9         16             0        0.328640   -1.616531    0.348712
   10          6             0       -0.339192   -0.565670    1.674509
   11         16             0       -0.592262    1.179115    1.223848
   12         15             0       -2.033113    1.007870   -0.303300
   13         16             0       -1.497091    0.623211   -2.151608
   14          8             0       -2.648712    2.459524   -0.079077
   15          6             0       -3.335899    3.190206   -1.113626
   16          6             0       -4.685556    2.584341   -1.445647
   17          8             0       -3.087558   -0.006515    0.324714
   18          6             0       -3.757797   -1.061787   -0.395254
   19          6             0       -3.517556   -2.389605    0.293892
   20          1             0        2.583424    2.596506    0.603076
   21          1             0        3.242147    3.459320   -0.798672
   22          1             0        1.550294    2.929639   -0.790465
   23          1             0        3.960204    1.045409   -0.752870
   24          1             0        2.992923    1.430526   -2.203933
   25          1             0        4.571417   -3.182342   -0.886772
   26          1             0        4.610780   -2.378438    0.711321
   27          1             0        2.654160   -3.667584    1.454596
   28          1             0        2.486559   -4.407513   -0.145243
   29          1             0        3.894770   -4.782992    0.862655
   30          1             0        0.363537   -0.544929    2.507995
   31          1             0       -1.287357   -1.008238    1.969344
   32          1             0       -3.438034    4.195165   -0.701245
   33          1             0       -2.699542    3.214920   -2.003931
   34          1             0       -5.299307    2.508626   -0.551912
   35          1             0       -5.188202    3.214043   -2.173862
   36          1             0       -4.551016    1.591503   -1.873822
   37          1             0       -4.819226   -0.803150   -0.393929
   38          1             0       -3.386570   -1.077995   -1.425912
   39          1             0       -4.075444   -3.160840   -0.227633
   40          1             0       -2.458848   -2.641712    0.272240
   41          1             0       -3.855645   -2.342548    1.325400
 --------------------------------------------------------------------
     1 basis functions        1 primitive gaussians
     1 alpha electrons        1 beta electrons
 
 Harmonic frequencies (cm**-1), IR intensities (km*mol⁻¹),
 Raman scattering activities (A**4/amu), Raman depolarization ratios,
 reduced masses (AMU), force constants (mDyne/A) and normal coordinates:
                      1                      2                      3
                        a                      a                      a 
 Frequencies --    50.5029                56.0131                59.3374
 Red. masses --    26.4649                23.0822                23.0222
 Frc consts  --     0.0000                 0.0000                 0.0000
 IR Inten    --     1.9773                 1.8430                 6.8704
 Raman Activ --     0.0000                 0.0000                 0.0000
 Depolar     --     0.0000                 0.0000                 0.0000
 Atom AN      X      Y      Z        X      Y      Z        X      Y      Z
   1   6    -0.08  -0.01  -0.11     0.05   0.03   0.01     0.01  -0.12  -0.09
   2   6    -0.13  -0.03  -0.12     0.02   0.04  -0.03     0.04  -0.10  -0.11
   3   8    -0.17  -0.00  -0.10     0.00   0.05  -0.07     0.06  -0.15  -0.21
   4  15    -0.20   0.05  -0.10    -0.04   0.09  -0.07    -0.05  -0.04  -0.07
   5  16    -0.11   0.18  -0.19    -0.37   0.18   0.07    -0.40   0.27  -0.00
   6   8    -0.17   0.00  -0.06     0.14   0.15   0.01     0.09  -0.08   0.14
   7   6    -0.10   0.04  -0.05     0.06   0.10   0.04     0.05  -0.03   0.23
   8   6    -0.05   0.02  -0.03     0.01   0.10  -0.02     0.02  -0.02   0.21
   9  16    -0.18   0.03   0.08     0.04  -0.11  -0.28    -0.04  -0.08  -0.20
  10   6    -0.04  -0.03   0.13    -0.02  -0.19  -0.09     0.01  -0.07  -0.09
  11  16    -0.09  -0.02   0.36     0.02  -0.26   0.06     0.19  -0.07  -0.08
  12  15     0.20  -0.03   0.11     0.02  -0.08   0.04     0.05   0.06   0.03
  13  16     0.57   0.01   0.21    -0.05  -0.41   0.09    -0.07   0.44  -0.08
  14   8     0.08  -0.04  -0.00     0.28   0.06  -0.04    -0.08  -0.03   0.18
  15   6     0.09  -0.07  -0.04     0.20   0.05  -0.00    -0.06   0.01   0.17
  16   6     0.09  -0.08  -0.06     0.16   0.10   0.07    -0.04  -0.02   0.11
  17   8     0.10  -0.05  -0.04    -0.19   0.16   0.04     0.17  -0.09   0.01
  18   6     0.10  -0.02  -0.09    -0.13   0.09   0.09     0.12  -0.05  -0.01
  19   6     0.03  -0.03  -0.07    -0.05   0.10   0.09     0.07  -0.06   0.00
  20   1    -0.02  -0.00  -0.03     0.02   0.00   0.00    -0.00  -0.04  -0.02
  21   1    -0.02  -0.01  -0.04     0.02   0.01   0.01     0.00  -0.03  -0.02
  22   1    -0.02   0.00  -0.03     0.01   0.02   0.01     0.00  -0.04  -0.03
  23   1    -0.04  -0.02  -0.04     0.00   0.00  -0.01     0.01  -0.03  -0.03
  24   1    -0.04  -0.01  -0.03     0.01   0.02  -0.01     0.02  -0.02  -0.03
  25   1    -0.03   0.02  -0.02     0.03   0.03   0.02     0.03  -0.02   0.08
  26   1    -0.03   0.02  -0.02     0.01   0.02   0.02    -0.00   0.00   0.07
  27   1    -0.01   0.00  -0.01    -0.00   0.03  -0.01    -0.01  -0.00   0.05
  28   1    -0.01  -0.00  -0.00     0.01   0.04  -0.01     0.02  -0.01   0.05
  29   1    -0.00   0.01  -0.01    -0.01   0.02  -0.00     0.00  -0.00   0.07
  30   1     0.00  -0.02   0.03    -0.01  -0.07  -0.02     0.00  -0.03  -0.02
  31   1    -0.01  -0.01   0.04    -0.01  -0.06  -0.04    -0.00  -0.01  -0.03
  32   1     0.02  -0.02  -0.02     0.07   0.02  -0.00    -0.03  -0.00   0.06
  33   1     0.03  -0.03  -0.01     0.04   0.01  -0.01    -0.01   0.01   0.05
  34   1     0.02  -0.02  -0.02     0.06   0.03   0.03    -0.02  -0.02   0.02
  35   1     0.03  -0.03  -0.02     0.04   0.03   0.03    -0.01  -0.01   0.03
  36   1     0.03  -0.02  -0.01     0.03   0.03   0.02     0.00  -0.00   0.03
  37   1     0.03   0.00  -0.04    -0.04   0.01   0.04     0.04  -0.01  -0.01
  38   1     0.05  -0.01  -0.02    -0.05   0.02   0.02     0.04  -0.02  -0.00
  39   1     0.01  -0.00  -0.03    -0.02   0.02   0.03     0.01  -0.01   0.00
  40   1     0.01  -0.02  -0.01    -0.01   0.04   0.01     0.02  -0.03   0.01
  41   1    -0.00  -0.00  -0.03     0.00   0.03   0.03     0.02  -0.01  -0.00
                      4                      5                      6
                        a                      a                      a 
 Frequencies --    64.1984                70.8193                72.7823
 Red. masses --    23.1056                24.6358                16.3966
 Frc consts  --     0.0000                 0.0000                 0.0000
 IR Inten    --     0.8056                 4.5761                 1.6458
 Raman Activ --     0.0000                 0.0000                 0.0000
 Depolar     --     0.0000                 0.0000                 0.0000
 Atom AN      X      Y      Z        X      Y      Z        X      Y      Z
   1   6     0.19  -0.03  -0.05    -0.13  -0.07   0.03     0.01   0.03   0.33
   2   6     0.25  -0.01  -0.05    -0.11  -0.03  -0.05     0.07   0.14   0.14
   3   8     0.27  -0.03  -0.15    -0.05  -0.11  -0.06     0.09   0.07  -0.10
   4  15     0.18   0.02  -0.11     0.10   0.03   0.06    -0.02   0.11  -0.09
   5  16     0.14   0.05  -0.11     0.32   0.47  -0.19    -0.02   0.20  -0.11
   6   8     0.08  -0.11   0.02     0.06  -0.02   0.08    -0.06   0.00  -0.01
   7   6     0.01  -0.10   0.10    -0.00  -0.06   0.07    -0.20  -0.10   0.04
   8   6    -0.06  -0.06   0.11    -0.07  -0.06  -0.01    -0.35  -0.04  -0.04
   9  16     0.06   0.25  -0.27     0.23  -0.25   0.32    -0.03   0.15  -0.07
  10   6     0.02  -0.02  -0.04    -0.03  -0.10   0.07     0.07   0.08   0.00
  11  16    -0.34   0.02   0.28    -0.07  -0.20  -0.00     0.20   0.10  -0.10
  12  15    -0.21  -0.01   0.17    -0.07  -0.03  -0.03     0.14  -0.14   0.00
  13  16     0.02  -0.00   0.24    -0.08   0.07  -0.05    -0.05  -0.21  -0.04
  14   8    -0.20  -0.02   0.06     0.03   0.00   0.06    -0.04  -0.15  -0.01
  15   6    -0.02  -0.01  -0.04     0.07   0.09   0.08     0.04  -0.06   0.00
  16   6    -0.00   0.03  -0.18     0.05   0.16   0.03    -0.00   0.04  -0.02
  17   8    -0.18  -0.03   0.04    -0.13   0.01  -0.09     0.31  -0.22   0.15
  18   6    -0.09  -0.03  -0.03    -0.13   0.06  -0.15    -0.00   0.01   0.07
  19   6    -0.06  -0.03  -0.05    -0.16   0.02  -0.21    -0.19  -0.09  -0.04
  20   1     0.04  -0.01  -0.01    -0.03  -0.04   0.01    -0.01  -0.04   0.09
  21   1     0.05  -0.00  -0.00    -0.04  -0.01   0.02    -0.00   0.03   0.14
  22   1     0.06  -0.02  -0.03    -0.04  -0.02   0.02     0.00   0.01   0.10
  23   1     0.07  -0.00  -0.00    -0.02   0.00  -0.03     0.02   0.03   0.04
  24   1     0.09   0.00  -0.01    -0.05   0.01  -0.01     0.03   0.09   0.04
  25   1     0.01  -0.05   0.04     0.00  -0.02   0.02    -0.05  -0.04   0.02
  26   1    -0.00  -0.03   0.03    -0.00  -0.03   0.03    -0.06  -0.05   0.03
  27   1    -0.02  -0.00   0.02    -0.02  -0.03  -0.00    -0.10  -0.01  -0.02
  28   1    -0.01  -0.02   0.03    -0.02  -0.00  -0.01    -0.10   0.01  -0.03
  29   1    -0.03  -0.02   0.05    -0.03  -0.03  -0.01    -0.12  -0.03  -0.01
  30   1     0.02  -0.01  -0.02    -0.03  -0.01   0.04     0.03   0.01  -0.00
  31   1     0.02  -0.04  -0.01    -0.01  -0.04  -0.00     0.02   0.03   0.01
  32   1    -0.01   0.00  -0.02     0.03   0.02   0.04     0.03  -0.02   0.01
  33   1     0.02  -0.01   0.01     0.02   0.03   0.03     0.01  -0.02   0.00
  34   1    -0.03   0.01  -0.07     0.01   0.04   0.00    -0.00   0.02  -0.01
  35   1     0.02   0.01  -0.07     0.03   0.06   0.01     0.01   0.02  -0.00
  36   1     0.00   0.01  -0.05     0.01   0.05  -0.00    -0.02   0.01  -0.01
  37   1    -0.03  -0.02  -0.02    -0.03   0.02  -0.04     0.01   0.06   0.04
  38   1    -0.01   0.00  -0.00    -0.03   0.03  -0.04    -0.02   0.01   0.01
  39   1    -0.01  -0.01  -0.02    -0.05   0.02  -0.07    -0.08   0.01  -0.03
  40   1    -0.02  -0.00  -0.01    -0.05   0.00  -0.06    -0.06  -0.06  -0.01
  41   1    -0.02  -0.02  -0.02    -0.05  -0.01  -0.06    -0.06  -0.04  -0.01
                      7                      8                      9
                        a                      a                      a 
 Frequencies --    70.1719                76.1182                72.8522
 Red. masses --    14.1484                14.3368                13.1550
 Frc consts  --     0.0000                 0.0000                 0.0000
 IR Inten    --     5.2456                 4.1579                 3.2545
 Raman Activ --     0.0000                 0.0000                 0.0000
 Depolar     --     0.0000                 0.0000                 0.0000
 Atom AN      X      Y      Z        X      Y      Z        X      Y      Z
   1   6     0.34   0.03  -0.36     0.31  -0.13   0.26    -0.18   0.02   0.04
   2   6     0.08  -0.14  -0.18     0.07  -0.09   0.03    -0.12   0.04   0.04
   3   8    -0.07   0.09   0.14    -0.06  -0.01  -0.06    -0.10  -0.01  -0.00
   4  15     0.00   0.10   0.15    -0.16   0.02  -0.03    -0.06  -0.07  -0.08
   5  16    -0.14   0.04   0.26    -0.06   0.18  -0.14     0.02  -0.16  -0.10
   6   8     0.07   0.20   0.03    -0.18  -0.06  -0.00    -0.02  -0.02  -0.09
   7   6    -0.02   0.04  -0.10    -0.00   0.05  -0.04     0.12   0.13  -0.02
   8   6    -0.10  -0.00  -0.27     0.17  -0.08  -0.08     0.26   0.15   0.18
   9  16     0.05  -0.02   0.15    -0.15   0.04   0.15    -0.04  -0.10  -0.01
  10   6     0.01   0.00   0.06    -0.04   0.07   0.09     0.03  -0.03  -0.00
  11  16     0.02  -0.02   0.01    -0.07   0.06  -0.01     0.12  -0.03   0.00
  12  15    -0.01  -0.09   0.04    -0.08  -0.03  -0.01    -0.02  -0.01   0.14
  13  16    -0.10   0.04  -0.01    -0.23  -0.10  -0.04    -0.17   0.08   0.08
  14   8    -0.14  -0.12   0.06     0.02   0.00   0.01    -0.16  -0.06   0.08
  15   6     0.06  -0.00   0.00     0.10   0.08   0.01     0.19   0.06  -0.07
  16   6     0.02   0.14  -0.12     0.09   0.15  -0.07     0.22   0.19  -0.42
  17   8     0.15  -0.19   0.08    -0.10   0.01  -0.02     0.15  -0.12   0.18
  18   6    -0.02  -0.03  -0.00     0.13  -0.14   0.00    -0.03   0.05   0.08
  19   6    -0.14  -0.09  -0.09     0.42  -0.11  -0.02    -0.15  -0.03  -0.02
  20   1     0.12   0.05  -0.10     0.12  -0.08   0.07    -0.06   0.00   0.01
  21   1     0.12  -0.03  -0.15     0.11  -0.05   0.09    -0.05   0.01   0.02
  22   1     0.10   0.04  -0.09     0.09   0.02   0.11    -0.05  -0.00   0.00
  23   1     0.02  -0.07  -0.07     0.02  -0.08  -0.03    -0.03   0.02   0.02
  24   1    -0.01  -0.09  -0.06    -0.00   0.02   0.01    -0.02   0.02   0.01
  25   1    -0.01   0.03  -0.04     0.01   0.05  -0.02     0.02   0.02  -0.01
  26   1     0.00  -0.03  -0.01    -0.02   0.03  -0.01     0.04   0.08  -0.03
  27   1    -0.03  -0.02  -0.07     0.04  -0.06  -0.02     0.08   0.06   0.05
  28   1    -0.03   0.03  -0.10     0.06  -0.04  -0.03     0.07   0.00   0.08
  29   1    -0.04  -0.02  -0.10     0.08   0.00  -0.04     0.10   0.07   0.07
  30   1     0.00   0.01   0.02    -0.00   0.03   0.02     0.01  -0.01  -0.00
  31   1     0.00   0.00   0.02    -0.01   0.02   0.04     0.01   0.00   0.01
  32   1     0.04  -0.00   0.00     0.04   0.02   0.02     0.05   0.02  -0.02
  33   1     0.04  -0.02   0.02     0.04   0.03   0.01     0.12   0.01   0.02
  34   1    -0.02   0.06  -0.05     0.02   0.04  -0.03     0.00   0.06  -0.16
  35   1     0.04   0.06  -0.04     0.04   0.06  -0.02     0.13   0.07  -0.15
  36   1    -0.01   0.04  -0.03     0.02   0.05  -0.02     0.07   0.05  -0.12
  37   1     0.00   0.03   0.01     0.02  -0.10   0.01    -0.00   0.05   0.04
  38   1    -0.01   0.00  -0.00     0.03  -0.02  -0.00    -0.02   0.02   0.02
  39   1    -0.06  -0.01  -0.04     0.15  -0.06  -0.00    -0.06   0.01  -0.03
  40   1    -0.04  -0.05  -0.03     0.13   0.02  -0.02    -0.05  -0.03  -0.01
  41   1    -0.04  -0.03  -0.02     0.13  -0.05  -0.00    -0.04  -0.03  -0.01
                     10                     11                     12
                        a                      a                      a 
 Frequencies --    80.7013                73.3169                87.0769
 Red. masses --    13.3777                11.4884                13.6205
 Frc consts  --     0.0000                 0.0000                 0.0000
 IR Inten    --     0.4998                 0.9135                 5.0231
 Raman Activ --     0.0000                 0.0000                 0.0000
 Depolar     --     0.0000                 0.0000                 0.0000
 Atom AN      X      Y      Z        X      Y      Z        X      Y      Z
   1   6     0.00   0.13  -0.13     0.38  -0.05   0.11     0.24  -0.06   0.24
   2   6    -0.01   0.07  -0.00     0.09  -0.08  -0.03     0.00  -0.03   0.03
   3   8    -0.05   0.14   0.09    -0.06   0.07   0.01    -0.08   0.05   0.03
   4  15    -0.01   0.08  -0.01    -0.08   0.02  -0.05    -0.01   0.03  -0.02
   5  16     0.19  -0.15  -0.04     0.10  -0.07  -0.12     0.04   0.08  -0.06
   6   8    -0.05   0.08  -0.08    -0.11   0.00  -0.06     0.05   0.12  -0.08
   7   6    -0.19  -0.01   0.02     0.06   0.15  -0.01    -0.06   0.01  -0.08
   8   6    -0.35   0.24   0.30     0.23   0.20   0.29    -0.16   0.07  -0.09
   9  16     0.03  -0.02  -0.07    -0.08   0.01   0.02     0.10  -0.22   0.03
  10   6    -0.02  -0.10   0.00    -0.02  -0.01   0.04    -0.04  -0.10  -0.05
  11  16    -0.09  -0.18   0.05    -0.08  -0.04   0.02     0.06  -0.14  -0.04
  12  15     0.01  -0.10  -0.08     0.06  -0.08  -0.10    -0.06   0.10   0.03
  13  16    -0.08   0.10  -0.15     0.06  -0.00  -0.12     0.05   0.27   0.03
  14   8     0.06  -0.06   0.05     0.06  -0.06  -0.02    -0.06   0.06   0.01
  15   6     0.13   0.06   0.07    -0.06  -0.03   0.07    -0.07  -0.09  -0.08
  16   6     0.08   0.19   0.04    -0.12   0.00   0.24     0.10  -0.36  -0.28
  17   8    -0.04  -0.06  -0.12     0.06  -0.08  -0.08    -0.08   0.11   0.01
  18   6     0.13  -0.20  -0.02    -0.12   0.05  -0.09     0.00  -0.00   0.09
  19   6     0.22  -0.10   0.15    -0.37   0.03  -0.03    -0.08   0.09   0.30
  20   1    -0.00   0.06  -0.03     0.14  -0.04   0.03     0.11  -0.05   0.07
  21   1     0.01   0.03  -0.05     0.13  -0.04   0.02     0.08  -0.03   0.07
  22   1     0.00   0.03  -0.05     0.11   0.04   0.07     0.07   0.03   0.11
  23   1    -0.01   0.02   0.01     0.02  -0.08  -0.05     0.00  -0.05  -0.04
  24   1     0.00  -0.01  -0.00    -0.01  -0.00  -0.01    -0.04   0.03   0.01
  25   1    -0.09  -0.08   0.01    -0.01   0.02  -0.01    -0.02  -0.01  -0.02
  26   1    -0.01  -0.00  -0.03     0.04   0.09  -0.05    -0.00  -0.02  -0.02
  27   1    -0.06   0.14   0.08     0.09   0.09   0.09    -0.04   0.03  -0.03
  28   1    -0.14   0.07   0.12     0.05   0.01   0.13    -0.06   0.04  -0.03
  29   1    -0.13   0.05   0.11     0.09   0.08   0.09    -0.07   0.00  -0.03
  30   1    -0.01  -0.03   0.00    -0.00   0.00   0.01    -0.03  -0.03   0.00
  31   1    -0.00  -0.04  -0.00    -0.00  -0.01   0.02    -0.02  -0.03  -0.03
  32   1     0.06   0.01   0.03     0.01  -0.01   0.02    -0.10  -0.03  -0.03
  33   1     0.04   0.01   0.02    -0.05  -0.01  -0.00     0.01   0.01   0.00
  34   1     0.02   0.06   0.01    -0.00   0.01   0.09    -0.00  -0.14  -0.10
  35   1     0.04   0.07   0.01    -0.05   0.00   0.09     0.02  -0.13  -0.10
  36   1     0.00   0.05   0.01    -0.06  -0.00   0.07     0.10  -0.10  -0.08
  37   1     0.03  -0.09  -0.03    -0.02   0.07  -0.04    -0.00  -0.00  -0.01
  38   1     0.05  -0.08   0.00    -0.02  -0.01  -0.02     0.03  -0.04   0.04
  39   1     0.08  -0.06   0.07    -0.13   0.03  -0.01    -0.02   0.01   0.11
  40   1     0.07  -0.01   0.05    -0.12  -0.03   0.02    -0.03   0.01   0.11
  41   1     0.06   0.01   0.04    -0.12   0.04  -0.01    -0.04   0.07   0.08
                     13                     14                     15
                        a                      a                      a 
 Frequencies --    87.9108               118.6613               126.4188
 Red. masses --    12.6927                19.8807                17.0181
 Frc consts  --     0.0000                 0.0000                 0.0000
 IR Inten    --     0.4782                 8.2024                 8.7659
 Raman Activ --     0.0000                 0.0000                 0.0000
 Depolar     --     0.0000                 0.0000                 0.0000
 Atom AN      X      Y      Z        X      Y      Z        X      Y      Z
   1   6     0.10   0.03  -0.10     0.08  -0.09   0.12     0.04   0.18  -0.20
   2   6     0.03  -0.02  -0.03    -0.08  -0.05  -0.08     0.25   0.03   0.26
   3   8    -0.04   0.05   0.03    -0.08  -0.05  -0.03     0.09   0.14   0.09
   4  15    -0.04   0.03  -0.00     0.04  -0.05  -0.07    -0.14   0.04   0.03
   5  16     0.06  -0.07  -0.03    -0.09  -0.08   0.01     0.05   0.15  -0.10
   6   8    -0.06   0.02  -0.03     0.15   0.10  -0.08    -0.26  -0.10   0.01
   7   6    -0.09   0.01   0.03     0.01   0.01  -0.02    -0.08   0.01  -0.04
   8   6    -0.13   0.12   0.18    -0.13   0.18   0.12     0.10  -0.09   0.01
   9  16    -0.02  -0.01   0.02     0.12  -0.20   0.07    -0.06  -0.12  -0.01
  10   6     0.00  -0.01   0.02     0.04   0.05  -0.09    -0.09  -0.03  -0.07
  11  16     0.18   0.01   0.01     0.15   0.08  -0.25     0.25  -0.06  -0.31
  12  15     0.04   0.05   0.14    -0.16   0.07   0.07    -0.12  -0.02   0.04
  13  16    -0.27  -0.08   0.08     0.35  -0.16   0.29     0.21  -0.08   0.16
  14   8     0.12   0.08   0.07    -0.26  -0.00  -0.01    -0.08  -0.03   0.13
  15   6    -0.04  -0.09   0.03    -0.14   0.05  -0.04    -0.05   0.06   0.16
  16   6     0.09  -0.37  -0.01    -0.24   0.24   0.02     0.02   0.01  -0.03
  17   8    -0.02   0.08   0.10    -0.09   0.03   0.06    -0.16   0.02  -0.03
  18   6    -0.06   0.19  -0.06    -0.00   0.01  -0.01    -0.01  -0.05  -0.05
  19   6     0.17   0.02  -0.48     0.15  -0.02  -0.13    -0.06  -0.01   0.04
  20   1     0.03   0.02  -0.03     0.06  -0.06   0.03    -0.09   0.13  -0.05
  21   1     0.04  -0.01  -0.04     0.03  -0.03   0.03     0.04   0.03  -0.05
  22   1     0.03   0.02  -0.03     0.02   0.00   0.08     0.04   0.03  -0.17
  23   1     0.00  -0.02  -0.00    -0.01  -0.04  -0.08     0.03   0.02   0.21
  24   1     0.01  -0.02  -0.01    -0.07   0.02  -0.02     0.20  -0.06   0.07
  25   1    -0.04  -0.03   0.01    -0.02  -0.04  -0.00    -0.03   0.02  -0.02
  26   1    -0.01   0.01  -0.01     0.03  -0.00  -0.02    -0.03   0.02  -0.02
  27   1    -0.02   0.07   0.05    -0.01   0.10   0.03     0.03  -0.05   0.01
  28   1    -0.05   0.03   0.07    -0.06   0.06   0.05     0.03  -0.05   0.02
  29   1    -0.04   0.03   0.06    -0.07   0.03   0.05     0.06  -0.00  -0.01
  30   1    -0.00  -0.01   0.01     0.00   0.02  -0.02    -0.05  -0.02  -0.00
  31   1    -0.01   0.01  -0.00     0.01   0.03  -0.03    -0.05   0.02  -0.04
  32   1    -0.07  -0.03   0.00     0.01   0.02  -0.02    -0.04  -0.00   0.08
  33   1    -0.01   0.01   0.01    -0.04  -0.03  -0.02     0.01   0.06   0.06
  34   1     0.02  -0.14  -0.01    -0.06   0.10   0.01    -0.02  -0.03  -0.03
  35   1    -0.00  -0.13  -0.01    -0.05   0.08   0.00     0.02   0.01  -0.01
  36   1     0.09  -0.10  -0.01    -0.11   0.06   0.02     0.04   0.02  -0.03
  37   1    -0.02   0.03   0.05    -0.01  -0.02   0.02    -0.01  -0.02  -0.05
  38   1    -0.07   0.14  -0.04    -0.01   0.04  -0.01     0.03  -0.03  -0.00
  39   1     0.06   0.03  -0.19     0.06  -0.01  -0.05    -0.01  -0.01   0.01
  40   1     0.06   0.04  -0.19     0.05   0.02  -0.06    -0.02  -0.00   0.04
  41   1     0.08  -0.09  -0.12     0.06  -0.04  -0.03    -0.04   0.01   0.00
                     16                     17                     18
                        a                      a                      a 
 Frequencies --   134.0056               135.8024               148.6789
 Red. masses --    16.4094                16.7696                15.3051
 Frc consts  --     0.0000                 0.0000                 0.0000
 IR Inten    --     3.8489                 6.9385                 8.4503
 Raman Activ --     0.0000                 0.0000                 0.0000
 Depolar     --     0.0000                 0.0000                 0.0000
 Atom AN      X      Y      Z        X      Y      Z        X      Y      Z
   1   6    -0.06  -0.03   0.02    -0.04   0.03  -0.02    -0.05  -0.11   0.03
   2   6     0.00   0.05  -0.09     0.25   0.01   0.23    -0.10  -0.12   0.02
   3   8     0.08  -0.04  -0.17     0.18  -0.01  -0.09    -0.06  -0.11   0.18
   4  15     0.07   0.01  -0.15     0.05  -0.07  -0.13     0.08  -0.14   0.23
   5  16    -0.26  -0.17   0.07    -0.33   0.09  -0.00     0.03   0.32   0.14
   6   8     0.09   0.02  -0.09     0.00  -0.02  -0.17     0.02   0.00  -0.00
   7   6     0.02  -0.01  -0.04    -0.00  -0.10  -0.30     0.03  -0.21  -0.41
   8   6    -0.05   0.07   0.02     0.01   0.09   0.07     0.05   0.05   0.11
   9  16     0.07   0.11   0.27     0.13  -0.16   0.31    -0.08   0.15  -0.25
  10   6     0.20   0.20   0.14     0.08  -0.01   0.13    -0.04   0.03  -0.11
  11  16     0.01   0.18  -0.12    -0.12  -0.05   0.15    -0.05   0.10   0.00
  12  15    -0.08  -0.11  -0.00     0.03   0.02  -0.01     0.02   0.02  -0.03
  13  16     0.00  -0.07   0.02    -0.08   0.14  -0.07     0.01  -0.13  -0.00
  14   8     0.10  -0.04   0.17    -0.00   0.02  -0.11     0.00   0.00   0.05
  15   6     0.05   0.08   0.27     0.01  -0.09  -0.19    -0.04   0.09   0.14
  16   6     0.21  -0.11  -0.03    -0.09   0.02   0.04     0.07  -0.03  -0.05
  17   8    -0.23  -0.00  -0.17     0.05   0.01   0.03     0.06  -0.03  -0.02
  18   6     0.01  -0.11  -0.19    -0.03   0.05   0.05     0.04  -0.01  -0.02
  19   6    -0.15  -0.02   0.03     0.05   0.03  -0.02    -0.01  -0.01  -0.00
  20   1    -0.01  -0.03   0.00    -0.11   0.04  -0.00     0.01  -0.03   0.01
  21   1    -0.03   0.01   0.02    -0.00   0.01   0.03    -0.03  -0.03  -0.01
  22   1    -0.02  -0.02   0.02     0.01  -0.02  -0.10    -0.02  -0.04   0.03
  23   1     0.01   0.02  -0.04     0.03   0.02   0.18    -0.02  -0.03  -0.02
  24   1    -0.01   0.04  -0.03     0.19  -0.02   0.07    -0.06  -0.04   0.00
  25   1    -0.00  -0.02  -0.01    -0.09  -0.08  -0.13    -0.15  -0.12  -0.21
  26   1     0.02  -0.01  -0.02     0.08  -0.04  -0.15     0.16  -0.10  -0.23
  27   1    -0.00   0.04   0.00     0.08   0.08   0.05     0.15   0.09   0.09
  28   1    -0.02   0.02   0.01    -0.07   0.02   0.09    -0.11   0.03   0.14
  29   1    -0.03   0.01   0.01    -0.01   0.01   0.00    -0.00  -0.02  -0.03
  30   1     0.09   0.10   0.01     0.03   0.03   0.03    -0.01  -0.01  -0.03
  31   1     0.08   0.05   0.09     0.03  -0.02   0.05    -0.01   0.01  -0.04
  32   1    -0.06  -0.01   0.14     0.05   0.00  -0.10    -0.05   0.00   0.09
  33   1     0.04   0.12   0.10    -0.02  -0.09  -0.07     0.00   0.10   0.05
  34   1     0.03  -0.12  -0.04    -0.00   0.06   0.03     0.00  -0.06  -0.03
  35   1     0.05  -0.02   0.01    -0.03  -0.01   0.00     0.01   0.00  -0.00
  36   1     0.13  -0.00  -0.06    -0.07  -0.02   0.05     0.06   0.01  -0.05
  37   1     0.00  -0.04  -0.14    -0.01   0.01   0.05     0.01   0.00  -0.01
  38   1     0.07  -0.06  -0.03    -0.04   0.03   0.00     0.02  -0.01  -0.00
  39   1    -0.01  -0.03   0.00     0.01   0.01  -0.00    -0.01   0.00  -0.00
  40   1    -0.04  -0.01   0.08     0.02   0.02  -0.03    -0.01  -0.01   0.00
  41   1    -0.10   0.03  -0.01     0.04  -0.01   0.00    -0.00   0.00  -0.00
                     19                     20                     21
                        a                      a                      a 
 Frequencies --   157.8199               157.7731               181.5852
 Red. masses --    14.2850                13.3734                17.0115
 Frc consts  --     0.0000                 0.0000                 0.0000
 IR Inten    --     2.6374                 8.8168                31.0807
 Raman Activ --     0.0000                 0.0000                 0.0000
 Depolar     --     0.0000                 0.0000                 0.0000
 Atom AN      X      Y      Z        X      Y      Z        X      Y      Z
   1   6     0.02   0.08   0.04     0.01   0.08   0.06    -0.04  -0.11  -0.00
   2   6    -0.06   0.15  -0.17    -0.10   0.13  -0.15     0.02  -0.18   0.19
   3   8     0.09   0.06  -0.05     0.04   0.06   0.02    -0.13  -0.07   0.12
   4  15     0.04   0.13   0.02     0.03   0.10   0.06    -0.05  -0.15   0.05
   5  16    -0.07  -0.04   0.13    -0.03   0.04   0.13     0.10   0.10  -0.10
   6   8    -0.20  -0.12   0.05    -0.19  -0.10   0.05     0.21   0.14  -0.01
   7   6    -0.08  -0.08  -0.06    -0.07  -0.10  -0.11     0.09   0.07   0.03
   8   6     0.08  -0.12   0.08     0.08  -0.12   0.06    -0.07   0.12  -0.08
   9  16     0.10   0.08   0.04     0.06   0.08  -0.07    -0.23   0.13  -0.12
  10   6     0.00  -0.01   0.02     0.04  -0.01  -0.00     0.15   0.13   0.02
  11  16    -0.06  -0.09  -0.15     0.25  -0.03  -0.09     0.03   0.13  -0.15
  12  15    -0.05  -0.17  -0.12    -0.06  -0.05   0.19    -0.09  -0.21   0.04
  13  16     0.27   0.20  -0.11    -0.12   0.15   0.15     0.10   0.27   0.01
  14   8     0.02  -0.11   0.00     0.04   0.01   0.01     0.11  -0.08   0.02
  15   6     0.04   0.01   0.08     0.18  -0.23  -0.27     0.20  -0.16  -0.09
  16   6     0.08  -0.02  -0.04    -0.01   0.01   0.10     0.10  -0.04   0.11
  17   8    -0.05  -0.01   0.06    -0.23   0.02  -0.04    -0.22  -0.02  -0.00
  18   6    -0.37   0.04   0.28     0.10  -0.08  -0.19    -0.23  -0.07   0.08
  19   6     0.11  -0.04  -0.02    -0.09  -0.03  -0.02    -0.00  -0.08  -0.03
  20   1     0.08  -0.00   0.01     0.08   0.00   0.01    -0.08  -0.01   0.00
  21   1    -0.03   0.04  -0.02    -0.02   0.03  -0.02     0.01  -0.05   0.02
  22   1    -0.02   0.02   0.09    -0.02   0.02   0.09     0.01  -0.03  -0.07
  23   1     0.01   0.05  -0.13     0.00   0.04  -0.13    -0.02  -0.06   0.12
  24   1    -0.10   0.07  -0.05    -0.12   0.06  -0.04     0.08  -0.08   0.06
  25   1    -0.05  -0.02  -0.04    -0.07  -0.03  -0.07     0.04   0.02   0.02
  26   1     0.01  -0.02  -0.05     0.02  -0.03  -0.07     0.01   0.00   0.03
  27   1     0.06  -0.04   0.05     0.07  -0.04   0.05    -0.05   0.05  -0.04
  28   1    -0.00  -0.05   0.06    -0.01  -0.05   0.06    -0.01   0.06  -0.05
  29   1     0.05  -0.02  -0.01     0.05  -0.02  -0.02    -0.05   0.02   0.00
  30   1     0.00   0.01   0.01     0.01  -0.01   0.00     0.09   0.05  -0.04
  31   1     0.01  -0.01   0.01     0.00   0.01  -0.01     0.06   0.04   0.07
  32   1    -0.01  -0.01   0.06     0.14  -0.01  -0.20     0.10  -0.02  -0.08
  33   1     0.02   0.04   0.03     0.04  -0.23  -0.09     0.05  -0.12  -0.03
  34   1     0.01  -0.03  -0.02     0.02   0.13   0.06     0.05   0.05   0.05
  35   1     0.02   0.01  -0.00     0.02  -0.03  -0.01     0.03  -0.03   0.01
  36   1     0.04   0.01  -0.03    -0.09  -0.05   0.11    -0.02  -0.04   0.08
  37   1    -0.11  -0.00   0.26     0.03  -0.04  -0.16    -0.07  -0.04   0.08
  38   1    -0.26   0.05   0.02     0.12  -0.04  -0.02    -0.12   0.00   0.00
  39   1    -0.01  -0.01   0.03     0.01  -0.02  -0.03     0.00  -0.03   0.00
  40   1     0.04   0.03  -0.15    -0.03  -0.01   0.08     0.01   0.01  -0.05
  41   1     0.16  -0.07   0.04    -0.11   0.02  -0.03     0.04  -0.05   0.01
                     22                     23                     24
                        a                      a                      a 
 Frequencies --   216.6873               238.1460               254.1543
 Red. masses --    14.2787                17.7735                13.8871
 Frc consts  --     0.0000                 0.0000                 0.0000
 IR Inten    --    20.9876                13.5372                 5.9334
 Raman Activ --     0.0000                 0.0000                 0.0000
 Depolar     --     0.0000                 0.0000                 0.0000
 Atom AN      X      Y      Z        X      Y      Z        X      Y      Z
   1   6     0.13   0.25  -0.02    -0.05  -0.10   0.01    -0.05  -0.15   0.01
   2   6    -0.16   0.10   0.08     0.04  -0.05  -0.01     0.02  -0.11  -0.01
   3   8    -0.21   0.18   0.35     0.04  -0.06  -0.08    -0.08  -0.04  -0.12
   4  15     0.04  -0.22  -0.09    -0.05   0.07   0.08    -0.13   0.22   0.11
   5  16    -0.15   0.15  -0.14     0.08  -0.01   0.06     0.09  -0.05   0.13
   6   8     0.03  -0.17  -0.07    -0.03   0.06   0.06    -0.22   0.06   0.11
   7   6     0.00  -0.13   0.11    -0.01   0.05  -0.03    -0.12   0.09   0.00
   8   6     0.01  -0.17   0.07     0.00   0.04  -0.03     0.01  -0.01  -0.00
   9  16     0.07  -0.14  -0.11    -0.14   0.17  -0.05     0.15  -0.07  -0.16
  10   6     0.43   0.04   0.01     0.21  -0.09   0.22     0.42  -0.03   0.01
  11  16    -0.08   0.04   0.10     0.33  -0.22   0.16    -0.13  -0.14  -0.09
  12  15     0.03   0.01  -0.02     0.19  -0.10  -0.02    -0.15   0.08  -0.02
  13  16    -0.02  -0.02  -0.04    -0.04  -0.04  -0.13     0.03   0.03   0.06
  14   8    -0.04  -0.02  -0.02    -0.21  -0.23   0.04     0.10   0.17  -0.15
  15   6    -0.06   0.02   0.02    -0.15  -0.11   0.05    -0.04   0.14  -0.07
  16   6    -0.04   0.01  -0.04    -0.20   0.09  -0.17     0.01  -0.01   0.02
  17   8    -0.00   0.02  -0.04    -0.17   0.19  -0.15     0.08  -0.07   0.12
  18   6    -0.02   0.04  -0.03    -0.07   0.13  -0.09     0.07  -0.03   0.04
  19   6     0.02   0.06  -0.01     0.08   0.23   0.04    -0.04  -0.09  -0.03
  20   1     0.11   0.13  -0.00    -0.03  -0.04   0.00    -0.17  -0.11   0.00
  21   1     0.05   0.03  -0.09    -0.02  -0.01   0.03     0.07  -0.06   0.15
  22   1     0.03   0.10   0.05    -0.01  -0.04  -0.01     0.04   0.02  -0.12
  23   1    -0.04   0.01  -0.01     0.01  -0.01   0.01    -0.01  -0.05   0.03
  24   1    -0.09  -0.00   0.02     0.02  -0.01  -0.00     0.05  -0.02  -0.00
  25   1     0.03  -0.04   0.05    -0.02   0.02  -0.02    -0.04   0.04  -0.01
  26   1    -0.03  -0.02   0.05     0.01   0.00  -0.02    -0.03   0.02  -0.01
  27   1    -0.04  -0.05  -0.01     0.02   0.01   0.01     0.09  -0.06   0.07
  28   1     0.04  -0.08  -0.00    -0.02   0.03   0.00    -0.07   0.06   0.04
  29   1     0.02  -0.02   0.06    -0.00  -0.00  -0.03     0.02  -0.03  -0.12
  30   1     0.22   0.07  -0.08     0.12  -0.02   0.02     0.23   0.07  -0.09
  31   1     0.17  -0.01   0.13     0.08  -0.02   0.13     0.18  -0.04   0.15
  32   1    -0.03  -0.00   0.02    -0.03  -0.04   0.04    -0.03   0.03  -0.00
  33   1    -0.02   0.03   0.01    -0.03  -0.01   0.03    -0.03   0.07  -0.03
  34   1    -0.02  -0.02  -0.01    -0.08  -0.01  -0.07     0.04  -0.06   0.02
  35   1    -0.01   0.02   0.00    -0.01   0.10  -0.02    -0.05  -0.01   0.04
  36   1    -0.01   0.01  -0.03    -0.09   0.05  -0.11     0.03   0.01  -0.03
  37   1    -0.00   0.01  -0.01    -0.02   0.02  -0.02     0.02  -0.00  -0.01
  38   1    -0.01   0.01  -0.01    -0.03   0.03  -0.03     0.04  -0.00   0.02
  39   1     0.01   0.01   0.01     0.04   0.03   0.05     0.04  -0.02  -0.08
  40   1     0.01   0.03   0.00     0.03   0.10   0.00    -0.00  -0.00   0.06
  41   1     0.01   0.03  -0.00     0.04   0.10   0.02    -0.09  -0.07  -0.03
                     25                     26                     27
                        a                      a                      a 
 Frequencies --   242.1632               229.5367               236.7589
 Red. masses --    10.4584                 6.4577                 7.4418
 Frc consts  --     0.0000                 0.0000                 0.0000
 IR Inten    --     9.1527                 3.1310                 5.3698
 Raman Activ --     0.0000                 0.0000                 0.0000
 Depolar     --     0.0000                 0.0000                 0.0000
 Atom AN      X      Y      Z        X      Y      Z        X      Y      Z
   1   6     0.04   0.15  -0.01     0.04   0.07   0.00    -0.04  -0.04   0.01
   2   6     0.04   0.13  -0.01    -0.08   0.03  -0.00     0.11   0.00   0.02
   3   8     0.12   0.03  -0.03    -0.14   0.05  -0.06     0.15  -0.04  -0.03
   4  15    -0.10  -0.04  -0.05    -0.05   0.09  -0.07    -0.09   0.00   0.07
   5  16     0.05  -0.05  -0.15     0.01  -0.09  -0.07     0.05   0.02   0.01
   6   8     0.25   0.08   0.15     0.11   0.04   0.13    -0.06   0.04   0.03
   7   6     0.12  -0.08   0.06     0.03  -0.07   0.08    -0.02   0.07  -0.01
   8   6     0.01  -0.04   0.01     0.04  -0.12   0.04    -0.02   0.07  -0.05
   9  16    -0.34  -0.05   0.08     0.05  -0.08   0.00    -0.12  -0.08  -0.02
  10   6    -0.03  -0.03   0.13    -0.04   0.05  -0.09     0.15  -0.02   0.05
  11  16     0.06  -0.11  -0.03    -0.08   0.14   0.02    -0.13  -0.12  -0.11
  12  15    -0.06  -0.02   0.02     0.06   0.03  -0.03    -0.08   0.15  -0.09
  13  16     0.01   0.07   0.03    -0.01  -0.09  -0.04     0.03  -0.12  -0.00
  14   8     0.09   0.07  -0.16    -0.12  -0.08   0.20    -0.10   0.08   0.17
  15   6    -0.05   0.08  -0.06     0.07  -0.10   0.07     0.03   0.02   0.05
  16   6    -0.03   0.02  -0.03     0.05  -0.04   0.04     0.07  -0.06   0.06
  17   8    -0.02  -0.02   0.10     0.03   0.01  -0.12     0.14  -0.04  -0.05
  18   6     0.03  -0.04   0.05    -0.03   0.04  -0.06     0.02   0.04  -0.05
  19   6    -0.03  -0.09  -0.02     0.04   0.11   0.02     0.02   0.07  -0.00
  20   1     0.18   0.11  -0.00    -0.20  -0.06   0.00     0.26   0.09   0.00
  21   1    -0.09   0.07  -0.15     0.18  -0.05   0.19    -0.22   0.07  -0.24
  22   1    -0.05  -0.04   0.13     0.10   0.17  -0.18    -0.13  -0.21   0.22
  23   1     0.02   0.05  -0.02    -0.03  -0.01   0.01     0.04   0.02   0.01
  24   1    -0.01   0.04  -0.00    -0.00   0.01   0.00     0.03  -0.00   0.01
  25   1    -0.00  -0.02  -0.01    -0.01  -0.02   0.00    -0.00   0.03  -0.00
  26   1     0.07  -0.06   0.01     0.03  -0.04   0.02    -0.01   0.02  -0.00
  27   1     0.25  -0.09   0.18     0.26  -0.13   0.20    -0.00   0.01  -0.01
  28   1    -0.21   0.22   0.09    -0.20   0.18   0.10    -0.01   0.03  -0.02
  29   1    -0.05  -0.17  -0.29    -0.01  -0.17  -0.30    -0.01   0.01  -0.02
  30   1     0.02  -0.00   0.01    -0.03   0.00  -0.01     0.11   0.05  -0.04
  31   1    -0.00   0.00   0.07    -0.02   0.02  -0.04     0.08  -0.02   0.10
  32   1    -0.03   0.01   0.02     0.04  -0.01  -0.03     0.01   0.02  -0.03
  33   1    -0.03   0.06  -0.03     0.04  -0.08   0.03     0.03  -0.04   0.02
  34   1     0.05  -0.12   0.02    -0.06   0.16  -0.03    -0.10   0.27  -0.04
  35   1    -0.08   0.07   0.10     0.11  -0.10  -0.13     0.15  -0.21  -0.24
  36   1     0.00   0.06  -0.13     0.00  -0.09   0.18     0.04  -0.15   0.32
  37   1     0.01  -0.01  -0.01    -0.01   0.02   0.01     0.01   0.02   0.00
  38   1     0.03  -0.00   0.02    -0.03   0.00  -0.03    -0.01   0.00  -0.02
  39   1     0.06  -0.02  -0.08    -0.07   0.02   0.10    -0.05   0.02   0.06
  40   1    -0.00   0.00   0.07     0.00  -0.00  -0.08    -0.00  -0.01  -0.06
  41   1    -0.09  -0.08  -0.03     0.12   0.09   0.04     0.08   0.07   0.02
                     28                     29                     30
                        a                      a                      a 
 Frequencies --   253.3181               264.2941               296.8594
 Red. masses --     8.6566                 9.5373                12.9334
 Frc consts  --     0.0000                 0.0000                 0.0000
 IR Inten    --     1.7235                 6.2483                 3.0769
 Raman Activ --     0.0000                 0.0000                 0.0000
 Depolar     --     0.0000                 0.0000                 0.0000
 Atom AN      X      Y      Z        X      Y      Z        X      Y      Z
   1   6     0.04   0.10  -0.00     0.03   0.08   0.01    -0.01  -0.07  -0.00
   2   6    -0.07   0.09  -0.07    -0.04   0.08  -0.05    -0.01  -0.09   0.06
   3   8     0.02   0.01   0.02     0.05   0.00   0.00    -0.12   0.02   0.07
   4  15     0.06  -0.05  -0.02     0.01  -0.03   0.00     0.08  -0.02  -0.05
   5  16     0.00   0.02  -0.02     0.02   0.01  -0.01    -0.07   0.00  -0.02
   6   8     0.16   0.01   0.01     0.12   0.03   0.04    -0.08  -0.07  -0.10
   7   6     0.07  -0.11  -0.05     0.05  -0.08  -0.04    -0.02   0.06   0.06
   8   6     0.01  -0.03   0.01     0.01  -0.02   0.01    -0.00   0.01  -0.00
   9  16    -0.21   0.17   0.07    -0.21   0.12   0.06     0.20   0.13  -0.02
  10   6    -0.06  -0.07   0.17     0.04  -0.07   0.18    -0.03  -0.01   0.01
  11  16    -0.02  -0.25  -0.13     0.15  -0.20  -0.03     0.29   0.06   0.23
  12  15    -0.06   0.02  -0.09    -0.11   0.16   0.02     0.08   0.01   0.02
  13  16     0.08  -0.02  -0.07    -0.03  -0.02   0.12    -0.03   0.04  -0.03
  14   8    -0.00   0.02   0.01     0.07   0.20  -0.09     0.19   0.11  -0.19
  15   6    -0.05   0.05   0.05    -0.06   0.13  -0.08    -0.18   0.14   0.04
  16   6    -0.01  -0.01   0.01    -0.02  -0.00  -0.01    -0.12   0.06  -0.10
  17   8     0.04   0.04   0.14     0.04  -0.11  -0.12    -0.14   0.02  -0.12
  18   6     0.04   0.07   0.09    -0.01  -0.14  -0.06    -0.11  -0.19   0.09
  19   6     0.00   0.01  -0.01    -0.04  -0.13  -0.01    -0.09  -0.27  -0.02
  20   1    -0.16  -0.05  -0.00    -0.12  -0.04   0.00     0.04   0.01   0.00
  21   1     0.15  -0.03   0.16     0.11  -0.02   0.12    -0.04  -0.01  -0.05
  22   1     0.09   0.17  -0.14     0.06   0.12  -0.10    -0.02  -0.06   0.03
  23   1    -0.01   0.03  -0.05     0.00   0.03  -0.04    -0.01  -0.04   0.04
  24   1    -0.06   0.03  -0.02    -0.04   0.03  -0.02     0.02  -0.04   0.02
  25   1    -0.01  -0.05  -0.03    -0.01  -0.03  -0.03     0.03   0.02   0.04
  26   1     0.05  -0.05  -0.03     0.04  -0.04  -0.02    -0.05   0.04   0.04
  27   1    -0.09   0.05  -0.07    -0.08   0.04  -0.06     0.08  -0.04   0.06
  28   1     0.08  -0.10  -0.02     0.07  -0.08  -0.02    -0.07   0.08   0.02
  29   1     0.00   0.04   0.14     0.00   0.04   0.11    -0.01  -0.05  -0.11
  30   1     0.00   0.00   0.03     0.04  -0.00   0.03    -0.05  -0.05   0.04
  31   1    -0.01  -0.02   0.07     0.02  -0.02   0.08    -0.03   0.00  -0.07
  32   1    -0.02   0.01   0.02    -0.03   0.03  -0.02    -0.09   0.01   0.08
  33   1    -0.01   0.03   0.01    -0.03   0.05  -0.03    -0.07   0.13  -0.00
  34   1    -0.10   0.19  -0.05     0.00  -0.00   0.00    -0.17   0.22  -0.10
  35   1     0.10  -0.14  -0.18    -0.03  -0.03  -0.01     0.10  -0.12  -0.24
  36   1     0.02  -0.09   0.22     0.02  -0.00   0.01    -0.01  -0.08   0.19
  37   1     0.01   0.01   0.01     0.00  -0.03   0.00    -0.03  -0.06   0.06
  38   1     0.03   0.03   0.03    -0.02  -0.05  -0.02    -0.07  -0.06   0.01
  39   1     0.24  -0.03  -0.21    -0.33   0.03   0.24    -0.01  -0.05  -0.06
  40   1     0.04   0.14   0.24    -0.07  -0.23  -0.31    -0.03  -0.07   0.01
  41   1    -0.27  -0.13  -0.09     0.32   0.11   0.10    -0.06  -0.13  -0.01
                     31                     32                     33
                        a                      a                      a 
 Frequencies --   322.6142               331.9773               335.5014
 Red. masses --    21.1111                14.7564                14.6896
 Frc consts  --     0.0000                 0.0000                 0.0000
 IR Inten    --     3.1516                 1.2556                 1.9438
 Raman Activ --     0.0000                 0.0000                 0.0000
 Depolar     --     0.0000                 0.0000                 0.0000
 Atom AN      X      Y      Z        X      Y      Z        X      Y      Z
   1   6    -0.03  -0.09  -0.00     0.00   0.06  -0.00     0.00   0.01  -0.00
   2   6    -0.05  -0.12   0.07     0.02   0.14  -0.17     0.00   0.01  -0.00
   3   8    -0.15   0.03   0.17     0.38  -0.12   0.13     0.01  -0.01  -0.01
   4  15     0.21  -0.12  -0.10     0.08  -0.32   0.14    -0.01   0.00   0.01
   5  16    -0.13   0.04  -0.03     0.01   0.15   0.09     0.01  -0.00   0.01
   6   8    -0.09  -0.16  -0.22    -0.25  -0.21  -0.17    -0.01   0.00   0.01
   7   6     0.01   0.09   0.11     0.04   0.23   0.05     0.00   0.00  -0.00
   8   6    -0.02   0.05  -0.02    -0.08   0.25  -0.12     0.00   0.00  -0.00
   9  16     0.17   0.47   0.07    -0.16  -0.19  -0.02    -0.00  -0.05  -0.01
  10   6    -0.09  -0.07   0.16     0.03   0.01  -0.04    -0.02   0.03  -0.05
  11  16    -0.05  -0.32  -0.23    -0.01   0.08   0.04    -0.15   0.04  -0.11
  12  15    -0.12   0.03  -0.04     0.03  -0.01   0.01     0.01  -0.40   0.11
  13  16     0.04  -0.02   0.03    -0.01   0.00  -0.00     0.01   0.16  -0.00
  14   8    -0.07   0.01   0.05     0.01  -0.01  -0.00     0.24  -0.15  -0.24
  15   6     0.05  -0.01  -0.04     0.00  -0.01   0.00    -0.10   0.01   0.10
  16   6     0.04  -0.03   0.04     0.00   0.00  -0.00    -0.09   0.04  -0.07
  17   8     0.09  -0.03   0.11    -0.01  -0.00  -0.03    -0.13   0.06   0.40
  18   6     0.10   0.09  -0.04    -0.02  -0.02   0.00     0.25   0.15  -0.06
  19   6     0.04   0.11   0.00    -0.00  -0.01   0.01     0.03   0.14  -0.05
  20   1     0.01  -0.01   0.00    -0.13  -0.07  -0.00     0.00   0.00  -0.00
  21   1    -0.02  -0.02  -0.02     0.09  -0.00   0.14     0.00   0.00  -0.00
  22   1    -0.02  -0.04   0.01     0.05   0.11  -0.09     0.00   0.00  -0.00
  23   1    -0.02  -0.04   0.04     0.06   0.10  -0.16     0.00   0.00  -0.00
  24   1     0.00  -0.05   0.02    -0.12   0.05  -0.05    -0.00   0.00  -0.00
  25   1     0.08   0.03   0.08     0.09   0.08   0.07    -0.00   0.00  -0.00
  26   1    -0.08   0.08   0.07    -0.07   0.13   0.05     0.00  -0.00  -0.00
  27   1     0.10  -0.05   0.09     0.04   0.05   0.02    -0.00   0.00  -0.00
  28   1    -0.11   0.15   0.02    -0.09   0.21  -0.04     0.00  -0.00  -0.00
  29   1    -0.04  -0.07  -0.17    -0.09  -0.02  -0.13    -0.00   0.00   0.00
  30   1    -0.05  -0.00   0.07     0.03   0.00  -0.03    -0.00   0.02  -0.02
  31   1    -0.03  -0.05   0.00     0.01   0.02   0.02    -0.00   0.00  -0.01
  32   1     0.02   0.01  -0.04    -0.00  -0.00   0.00    -0.05  -0.04   0.13
  33   1     0.02  -0.04  -0.01    -0.00   0.00   0.00    -0.06   0.11   0.01
  34   1     0.06  -0.06   0.04    -0.01   0.01  -0.00    -0.12   0.12  -0.08
  35   1    -0.04   0.02   0.07     0.01  -0.00  -0.01     0.08  -0.04  -0.13
  36   1     0.01   0.02  -0.04    -0.00  -0.00   0.01    -0.02  -0.03   0.09
  37   1     0.03   0.03  -0.04    -0.01  -0.00   0.01     0.07   0.02  -0.15
  38   1     0.06   0.03  -0.00    -0.01  -0.01  -0.00     0.20   0.07   0.03
  39   1    -0.03   0.03   0.04     0.01  -0.01  -0.00    -0.16   0.09   0.10
  40   1     0.00   0.00  -0.03     0.00   0.00   0.01    -0.02  -0.09  -0.13
  41   1     0.05   0.07   0.01    -0.01  -0.01  -0.00     0.14   0.13   0.03
                     34                     35                     36
                        a                      a                      a 
 Frequencies --   381.8702               409.6314               425.5613
 Red. masses --    13.9577                12.4602                17.6352
 Frc consts  --     0.0000                 0.0000                 0.0000
 IR Inten    --    24.5091                 7.8387                21.5826
 Raman Activ --     0.0000                 0.0000                 0.0000
 Depolar     --     0.0000                 0.0000                 0.0000
 Atom AN      X      Y      Z        X      Y      Z        X      Y      Z
   1   6    -0.00  -0.00  -0.00     0.15   0.32  -0.01     0.01   0.02   0.00
   2   6     0.00   0.00  -0.01    -0.26   0.02   0.23    -0.02  -0.00   0.02
   3   8     0.00   0.00   0.01    -0.11  -0.38  -0.42    -0.03  -0.02  -0.04
   4  15     0.00  -0.00   0.00    -0.05  -0.09   0.10     0.05   0.02  -0.01
   5  16     0.00   0.00   0.00     0.03  -0.03   0.07     0.01   0.00   0.03
   6   8    -0.00   0.00  -0.00    -0.12  -0.17   0.17    -0.01  -0.01  -0.01
   7   6    -0.00   0.00   0.00     0.15   0.02  -0.04     0.01  -0.00   0.00
   8   6    -0.00   0.00   0.00    -0.05   0.16  -0.09     0.00   0.00  -0.00
   9  16    -0.01  -0.00   0.00     0.15   0.11  -0.03    -0.05   0.03   0.03
  10   6     0.04  -0.01   0.02     0.02  -0.00   0.00    -0.00   0.00  -0.03
  11  16    -0.03  -0.01   0.06     0.02  -0.02   0.02    -0.28  -0.08  -0.30
  12  15     0.05   0.16  -0.17    -0.03  -0.00  -0.01     0.30   0.11   0.12
  13  16     0.11  -0.07  -0.28     0.01  -0.00  -0.01    -0.06   0.00   0.16
  14   8    -0.18  -0.06   0.19    -0.02  -0.00  -0.01     0.38   0.16   0.24
  15   6     0.06  -0.08   0.02     0.00   0.01  -0.01    -0.08  -0.31   0.13
  16   6     0.04  -0.01   0.03     0.01  -0.01   0.01    -0.23   0.08  -0.21
  17   8    -0.23   0.42   0.19    -0.00  -0.00   0.01     0.06   0.07  -0.15
  18   6     0.26  -0.01   0.26     0.00  -0.00  -0.00     0.00  -0.04   0.07
  19   6    -0.14  -0.31  -0.10    -0.00   0.00   0.00    -0.03  -0.10   0.01
  20   1    -0.00  -0.00  -0.00     0.12   0.23   0.01     0.01   0.02   0.00
  21   1    -0.00   0.00   0.00     0.12  -0.04  -0.15     0.01  -0.00  -0.02
  22   1    -0.00  -0.00   0.00     0.06   0.19   0.03     0.00   0.01   0.00
  23   1     0.00   0.00  -0.00    -0.09  -0.00   0.12    -0.01  -0.01   0.02
  24   1    -0.00  -0.00  -0.00     0.02   0.04   0.07     0.01   0.00   0.01
  25   1    -0.00   0.00   0.00     0.02   0.02  -0.03     0.00  -0.00   0.00
  26   1    -0.00   0.00   0.00     0.06   0.00  -0.03    -0.00   0.00   0.00
  27   1     0.00  -0.00   0.00    -0.04   0.10  -0.06     0.00   0.00   0.00
  28   1    -0.00   0.00   0.00    -0.01   0.10  -0.06    -0.00   0.00  -0.00
  29   1     0.00   0.00  -0.00    -0.09  -0.00   0.02    -0.00  -0.00  -0.00
  30   1     0.02   0.01  -0.00    -0.01  -0.01   0.01     0.02   0.06  -0.03
  31   1     0.02  -0.01   0.02     0.00  -0.01  -0.02     0.02  -0.01   0.04
  32   1     0.04  -0.00  -0.04     0.00   0.00  -0.00    -0.02  -0.06  -0.02
  33   1     0.04  -0.08   0.02     0.00   0.00  -0.00    -0.03  -0.12   0.03
  34   1     0.03  -0.03   0.02     0.01  -0.00   0.01    -0.15   0.02  -0.12
  35   1    -0.00   0.02   0.04    -0.00  -0.01   0.00     0.08   0.17  -0.04
  36   1    -0.00   0.01  -0.02     0.01  -0.00   0.01    -0.17   0.05  -0.16
  37   1     0.07  -0.04  -0.01     0.00   0.00  -0.00     0.00  -0.00   0.05
  38   1     0.14   0.01   0.10     0.00   0.00   0.00    -0.04  -0.02   0.01
  39   1    -0.20   0.07  -0.10    -0.00   0.00   0.00    -0.01  -0.00  -0.03
  40   1    -0.08  -0.26  -0.11    -0.00  -0.00  -0.00    -0.01  -0.04   0.00
  41   1     0.01  -0.16  -0.01     0.00   0.00   0.00    -0.02  -0.06  -0.00
                     37                     38                     39
                        a                      a                      a 
 Frequencies --   452.5147               478.3691               497.3255
 Red. masses --    20.5755                19.3581                22.7667
 Frc consts  --     0.0000                 0.0000                 0.0000
 IR Inten    --    66.4395               170.0213               106.1096
 Raman Activ --     0.0000                 0.0000                 0.0000
 Depolar     --     0.0000                 0.0000                 0.0000
 Atom AN      X      Y      Z        X      Y      Z        X      Y      Z
   1   6     0.05   0.08  -0.00     0.02   0.09  -0.00    -0.00  -0.02   0.00
   2   6    -0.09  -0.02   0.10    -0.06   0.03   0.01     0.01  -0.01  -0.00
   3   8    -0.10  -0.15  -0.23     0.23  -0.23  -0.00    -0.08   0.07  -0.02
   4  15     0.36   0.07  -0.09    -0.31  -0.29   0.22     0.11   0.09  -0.08
   5  16     0.13   0.11   0.37    -0.04  -0.01  -0.16     0.03   0.02   0.10
   6   8     0.06   0.13  -0.43     0.14   0.38  -0.18    -0.03  -0.11   0.00
   7   6    -0.25   0.06   0.04    -0.31   0.11   0.00     0.08  -0.03   0.00
   8   6     0.05  -0.16   0.10     0.05  -0.14   0.08    -0.01   0.02  -0.02
   9  16    -0.33  -0.14  -0.01     0.26   0.14  -0.02    -0.10  -0.10  -0.03
  10   6    -0.02  -0.04  -0.00     0.00   0.04   0.03    -0.00   0.03   0.01
  11  16     0.00   0.03  -0.00     0.04  -0.01   0.06     0.19   0.09   0.25
  12  15     0.03  -0.01   0.01    -0.14   0.00  -0.06    -0.49  -0.00  -0.18
  13  16    -0.00   0.00   0.01     0.04  -0.02  -0.07     0.14  -0.07  -0.28
  14   8    -0.06  -0.03  -0.04     0.11   0.07   0.09     0.28   0.23   0.25
  15   6     0.01   0.05  -0.02    -0.01  -0.08   0.03    -0.01  -0.19   0.07
  16   6     0.03  -0.01   0.03    -0.05   0.01  -0.04    -0.11   0.02  -0.10
  17   8    -0.01   0.00  -0.01     0.02  -0.04   0.05     0.04  -0.18   0.20
  18   6    -0.01  -0.00  -0.00     0.00   0.01  -0.02    -0.01   0.01  -0.06
  19   6     0.00  -0.00  -0.00     0.00   0.02  -0.00     0.03   0.08  -0.00
  20   1     0.04   0.08   0.00     0.01   0.04   0.00    -0.00  -0.01   0.00
  21   1     0.04  -0.02  -0.06     0.04  -0.01  -0.02    -0.01   0.00   0.01
  22   1     0.02   0.05   0.01     0.02   0.07  -0.01    -0.01  -0.02   0.00
  23   1    -0.04  -0.02   0.07     0.01   0.05  -0.05    -0.01  -0.02   0.02
  24   1     0.04   0.01   0.03    -0.07   0.01   0.00     0.02  -0.00  -0.00
  25   1     0.02  -0.00   0.08    -0.05   0.02   0.03     0.02  -0.01   0.00
  26   1    -0.14   0.05   0.05    -0.10   0.02   0.02     0.02  -0.00  -0.00
  27   1     0.05  -0.13   0.08     0.04  -0.13   0.08    -0.01   0.03  -0.02
  28   1     0.00  -0.10   0.07     0.02  -0.13   0.07    -0.01   0.03  -0.01
  29   1     0.12   0.02  -0.06     0.15   0.05  -0.04    -0.03  -0.02   0.01
  30   1     0.03  -0.01  -0.03    -0.03  -0.01   0.04    -0.01  -0.04   0.01
  31   1    -0.00   0.02   0.05    -0.01  -0.01  -0.05    -0.01   0.03  -0.01
  32   1     0.00   0.01   0.01     0.00  -0.01  -0.02     0.00  -0.02  -0.06
  33   1     0.00   0.02  -0.00    -0.00  -0.04   0.01    -0.00  -0.12   0.02
  34   1     0.02  -0.00   0.02    -0.03   0.00  -0.03    -0.08  -0.00  -0.06
  35   1    -0.01  -0.02   0.00     0.02   0.04  -0.00     0.05   0.10  -0.01
  36   1     0.02  -0.01   0.02    -0.04   0.01  -0.04    -0.09   0.03  -0.10
  37   1    -0.00  -0.00  -0.00     0.00   0.00  -0.01    -0.00   0.01  -0.04
  38   1    -0.00  -0.00  -0.00     0.01   0.01  -0.00     0.03   0.02  -0.00
  39   1     0.00  -0.00   0.00     0.00  -0.00   0.01     0.02  -0.01   0.04
  40   1     0.00   0.00  -0.00     0.00   0.01   0.00     0.01   0.05   0.00
  41   1     0.00   0.00   0.00     0.00   0.01  -0.00     0.02   0.06   0.00
                     40                     41                     42
                        a                      a                      a 
 Frequencies --   612.7019               619.8129               655.7008
 Red. masses --    25.0027                25.7408                18.3585
 Frc consts  --     0.0000                 0.0000                 0.0000
 IR Inten    --   183.4785                73.2055                 7.3042
 Raman Activ --     0.0000                 0.0000                 0.0000
 Depolar     --     0.0000                 0.0000                 0.0000
 Atom AN      X      Y      Z        X      Y      Z        X      Y      Z
   1   6    -0.00   0.00   0.00    -0.00   0.01   0.00    -0.00  -0.00  -0.00
   2   6     0.05   0.04  -0.04     0.10   0.08  -0.09    -0.02  -0.01   0.01
   3   8    -0.06   0.08  -0.06    -0.12   0.19  -0.15     0.01  -0.01   0.01
   4  15    -0.21  -0.09  -0.08    -0.49  -0.22  -0.14     0.03   0.06   0.04
   5  16     0.11   0.07   0.20     0.22   0.14   0.41    -0.03  -0.01  -0.04
   6   8     0.05  -0.06  -0.11     0.11  -0.11  -0.22     0.00  -0.02  -0.02
   7   6     0.07  -0.05   0.01     0.14  -0.11   0.02     0.01  -0.01  -0.00
   8   6    -0.00  -0.01   0.01    -0.00  -0.03   0.02    -0.00  -0.00  -0.00
   9  16     0.06  -0.01  -0.04     0.14   0.04  -0.04     0.14  -0.20  -0.33
  10   6    -0.02   0.13   0.04    -0.04   0.06   0.08    -0.15  -0.28   0.70
  11  16     0.06  -0.04   0.10    -0.04  -0.03  -0.06    -0.05   0.38  -0.16
  12  15    -0.23   0.01  -0.46     0.14  -0.01   0.24    -0.01  -0.04  -0.02
  13  16    -0.13   0.10   0.47     0.05  -0.04  -0.21    -0.01   0.00   0.03
  14   8     0.10  -0.26  -0.14    -0.06   0.11   0.06    -0.00   0.02   0.01
  15   6     0.06  -0.15   0.09    -0.03   0.08  -0.05     0.00  -0.01   0.01
  16   6     0.02  -0.00   0.01    -0.01   0.00  -0.01     0.00   0.00  -0.00
  17   8     0.15   0.15  -0.19    -0.07  -0.06   0.07     0.02   0.02  -0.04
  18   6     0.13   0.08   0.10    -0.06  -0.04  -0.04     0.02   0.01   0.02
  19   6    -0.01   0.01  -0.01     0.00  -0.01   0.00    -0.00  -0.00  -0.00
  20   1    -0.00  -0.02  -0.00    -0.00  -0.05  -0.00     0.00   0.00  -0.00
  21   1    -0.02   0.02   0.02    -0.04   0.05   0.04     0.00  -0.01  -0.01
  22   1    -0.01  -0.02   0.01    -0.01  -0.04   0.01     0.00   0.00  -0.00
  23   1     0.00  -0.00   0.01     0.00  -0.01   0.01    -0.00  -0.00  -0.00
  24   1     0.03   0.01  -0.01     0.07   0.03  -0.03    -0.01  -0.00   0.00
  25   1     0.04  -0.02   0.02     0.08  -0.04   0.04     0.01  -0.00   0.00
  26   1    -0.00   0.00   0.01     0.00   0.00   0.02    -0.00   0.00   0.00
  27   1     0.00   0.01  -0.00     0.00   0.03  -0.01     0.00   0.00  -0.00
  28   1    -0.01   0.01  -0.00    -0.01   0.02  -0.00    -0.00   0.00  -0.00
  29   1    -0.02  -0.02   0.01    -0.05  -0.04   0.02    -0.00  -0.00   0.00
  30   1    -0.01   0.00   0.02    -0.02   0.02   0.03    -0.02  -0.06   0.16
  31   1    -0.01   0.02  -0.01    -0.01  -0.01  -0.00    -0.06  -0.05   0.15
  32   1     0.02  -0.06   0.08    -0.01   0.03  -0.04     0.00   0.00  -0.01
  33   1     0.00   0.01   0.01    -0.00  -0.00  -0.01     0.00  -0.01   0.00
  34   1    -0.02   0.02  -0.01     0.01  -0.01   0.01    -0.00  -0.00  -0.00
  35   1     0.06   0.04   0.00    -0.03  -0.02  -0.00     0.00   0.00  -0.00
  36   1    -0.03   0.00  -0.01     0.02  -0.00   0.01    -0.00   0.00  -0.00
  37   1     0.04   0.03   0.06    -0.02  -0.01  -0.03     0.01   0.00   0.01
  38   1    -0.01  -0.01   0.01     0.00   0.00  -0.01    -0.00  -0.00   0.00
  39   1    -0.03   0.06  -0.06     0.01  -0.03   0.02    -0.01   0.01  -0.01
  40   1    -0.02  -0.05  -0.00     0.01   0.02  -0.00    -0.00  -0.01  -0.00
  41   1    -0.02  -0.04  -0.01     0.01   0.02   0.00    -0.00  -0.01  -0.00
                     43                     44                     45
                        a                      a                      a 
 Frequencies --   684.2863               725.7566               726.6730
 Red. masses --    16.2995                19.7706                19.5691
 Frc consts  --     0.0000                 0.0000                 0.0000
 IR Inten    --    39.2609               375.2555                57.9317
 Raman Activ --     0.0000                 0.0000                 0.0000
 Depolar     --     0.0000                 0.0000                 0.0000
 Atom AN      X      Y      Z        X      Y      Z        X      Y      Z
   1   6    -0.00  -0.01  -0.00     0.01   0.03   0.00     0.01   0.03   0.00
   2   6    -0.03  -0.03   0.03     0.08   0.07  -0.09     0.09   0.08  -0.10
   3   8     0.03  -0.04   0.04    -0.15   0.12  -0.11    -0.17   0.13  -0.12
   4  15     0.09   0.09   0.01     0.19  -0.38  -0.12     0.19  -0.39  -0.10
   5  16    -0.03  -0.02  -0.05     0.02   0.02   0.05     0.02   0.02   0.05
   6   8    -0.01  -0.01   0.02    -0.08   0.12   0.30    -0.08   0.12   0.30
   7   6    -0.02   0.01  -0.01    -0.16   0.12   0.00    -0.16   0.12   0.00
   8   6    -0.00   0.00  -0.00    -0.00   0.05  -0.03    -0.00   0.05  -0.03
   9  16     0.08  -0.21  -0.25     0.00  -0.00  -0.01     0.02  -0.01  -0.04
  10   6    -0.28   0.73   0.22    -0.01   0.03   0.01    -0.03   0.00   0.09
  11  16     0.02  -0.33   0.07     0.01   0.00   0.01    -0.01   0.01  -0.02
  12  15     0.05   0.01   0.07    -0.04  -0.46  -0.01     0.06   0.43  -0.02
  13  16     0.01  -0.01  -0.04    -0.01   0.01   0.04     0.01  -0.01  -0.02
  14   8    -0.01   0.01   0.02    -0.05   0.25   0.20     0.04  -0.23  -0.18
  15   6    -0.01   0.03  -0.02    -0.06   0.17  -0.09     0.06  -0.16   0.09
  16   6    -0.01  -0.00  -0.00    -0.05   0.00  -0.03     0.05  -0.00   0.03
  17   8    -0.01  -0.00   0.01     0.11   0.11  -0.21    -0.11  -0.11   0.22
  18   6    -0.01  -0.01  -0.01     0.13   0.07   0.09    -0.13  -0.08  -0.09
  19   6    -0.00  -0.01  -0.01     0.01   0.03   0.01    -0.01  -0.04  -0.01
  20   1     0.00   0.01   0.00     0.00  -0.05  -0.00     0.00  -0.06  -0.00
  21   1     0.01  -0.02  -0.01    -0.04   0.06   0.05    -0.04   0.07   0.05
  22   1     0.00   0.01  -0.00    -0.01  -0.02   0.02    -0.01  -0.03   0.02
  23   1    -0.00  -0.00  -0.00    -0.01  -0.01   0.04    -0.01  -0.01   0.05
  24   1    -0.02  -0.01   0.01     0.09   0.02  -0.02     0.10   0.02  -0.03
  25   1    -0.01   0.00  -0.00    -0.12   0.04  -0.06    -0.12   0.04  -0.06
  26   1    -0.00   0.00  -0.00     0.03  -0.01  -0.03     0.03  -0.01  -0.03
  27   1     0.00  -0.00   0.00    -0.01  -0.04   0.01    -0.01  -0.05   0.01
  28   1    -0.00  -0.00   0.00     0.02  -0.03  -0.01     0.02  -0.03  -0.01
  29   1     0.00   0.00  -0.00     0.07   0.06  -0.04     0.07   0.06  -0.04
  30   1     0.02   0.19  -0.02    -0.01  -0.01   0.01     0.00   0.01   0.01
  31   1    -0.02   0.12   0.14    -0.00   0.00  -0.01    -0.01  -0.00   0.02
  32   1    -0.00   0.01  -0.01    -0.00   0.08  -0.11     0.00  -0.07   0.10
  33   1    -0.00   0.00  -0.00    -0.00  -0.04  -0.02     0.00   0.03   0.02
  34   1     0.01  -0.00   0.00     0.01  -0.03   0.01    -0.01   0.02  -0.01
  35   1    -0.02  -0.01  -0.00    -0.07  -0.05  -0.01     0.07   0.05   0.01
  36   1     0.01  -0.00   0.00     0.04  -0.00   0.01    -0.04   0.00  -0.01
  37   1    -0.00  -0.00  -0.00     0.04   0.02   0.08    -0.04  -0.02  -0.09
  38   1     0.00   0.00  -0.00    -0.03  -0.00   0.00     0.03   0.00  -0.00
  39   1    -0.00  -0.00   0.01    -0.04   0.08  -0.06     0.04  -0.08   0.07
  40   1     0.00   0.00  -0.00    -0.02  -0.06   0.01     0.02   0.06  -0.01
  41   1     0.01   0.00   0.00    -0.03  -0.04  -0.01     0.03   0.04   0.01
                     46                     47                     48
                        a                      a                      a 
 Frequencies --   754.4403               761.4544               791.9572
 Red. masses --    22.8337                22.0457                 5.8864
 Frc consts  --     0.0000                 0.0000                 0.0000
 IR Inten    --   302.2040               305.0403                11.7675
 Raman Activ --     0.0000                 0.0000                 0.0000
 Depolar     --     0.0000                 0.0000                 0.0000
 Atom AN      X      Y      Z        X      Y      Z        X      Y      Z
   1   6    -0.00   0.00   0.00    -0.02  -0.08  -0.01    -0.00  -0.00   0.00
   2   6     0.01   0.01  -0.01    -0.16  -0.14   0.18    -0.00  -0.00   0.00
   3   8    -0.01  -0.00  -0.01     0.28  -0.15   0.27     0.00   0.01  -0.00
   4  15    -0.01   0.02   0.04    -0.14   0.04  -0.67    -0.02  -0.03  -0.02
   5  16    -0.01  -0.00  -0.02     0.12   0.07   0.23     0.00  -0.00   0.00
   6   8     0.01  -0.01  -0.03    -0.03   0.04   0.24     0.00   0.02  -0.01
   7   6     0.01  -0.01  -0.00    -0.10   0.08   0.01     0.01  -0.01   0.01
   8   6    -0.00  -0.01   0.00     0.01   0.05  -0.03     0.00  -0.00   0.00
   9  16    -0.00  -0.01  -0.01     0.03   0.01   0.01     0.12   0.07   0.07
  10   6     0.02   0.01   0.01    -0.00  -0.03   0.03    -0.47  -0.19  -0.17
  11  16     0.00   0.00   0.03    -0.01   0.02  -0.01     0.12   0.09   0.05
  12  15     0.39  -0.11  -0.56     0.03   0.01  -0.03    -0.00  -0.04  -0.05
  13  16    -0.08   0.06   0.28    -0.00   0.00   0.01    -0.00   0.00   0.02
  14   8    -0.06   0.20   0.21    -0.00   0.01   0.01    -0.01   0.02  -0.01
  15   6    -0.05   0.13  -0.06     0.00   0.00  -0.00     0.00  -0.01   0.03
  16   6    -0.05   0.00  -0.03    -0.00  -0.00  -0.00     0.01   0.00   0.01
  17   8    -0.17  -0.12   0.35    -0.01  -0.01   0.03     0.00   0.01   0.02
  18   6    -0.17  -0.09  -0.11    -0.01  -0.01  -0.01    -0.01  -0.01  -0.01
  19   6    -0.01  -0.05  -0.01    -0.00  -0.00  -0.00    -0.01  -0.01  -0.01
  20   1     0.00  -0.00  -0.00    -0.01   0.10   0.01    -0.00   0.00   0.00
  21   1    -0.00   0.00   0.00     0.07  -0.12  -0.10     0.00  -0.00  -0.00
  22   1    -0.00   0.00   0.00     0.02   0.04  -0.04     0.00   0.00  -0.00
  23   1     0.00   0.00   0.00     0.02   0.02  -0.09    -0.00  -0.00  -0.00
  24   1     0.01  -0.00  -0.00    -0.20  -0.02   0.05    -0.00   0.00   0.00
  25   1     0.01  -0.00   0.01    -0.10   0.02  -0.05    -0.00  -0.00  -0.00
  26   1    -0.00   0.00   0.00     0.03  -0.01  -0.03     0.01  -0.00  -0.00
  27   1     0.00   0.00  -0.00    -0.01  -0.03   0.00    -0.00  -0.00  -0.00
  28   1    -0.00   0.00   0.00     0.02  -0.01  -0.01     0.00   0.00  -0.00
  29   1    -0.01  -0.01   0.00     0.04   0.04  -0.03    -0.00  -0.01   0.00
  30   1    -0.02  -0.02   0.02    -0.01  -0.01   0.01     0.32   0.20  -0.42
  31   1    -0.01   0.02  -0.03    -0.01  -0.01  -0.02     0.12  -0.16   0.54
  32   1     0.01   0.07  -0.11    -0.00   0.00  -0.00     0.02   0.01  -0.01
  33   1     0.00  -0.05  -0.01     0.00  -0.00   0.00    -0.01  -0.03   0.00
  34   1     0.01  -0.03   0.00     0.00  -0.00   0.00    -0.01  -0.01  -0.01
  35   1    -0.06  -0.04  -0.01    -0.00  -0.00   0.00     0.01   0.00  -0.00
  36   1     0.04  -0.00   0.01    -0.00  -0.00   0.00     0.02   0.01  -0.01
  37   1    -0.05  -0.03  -0.15    -0.00  -0.00  -0.01    -0.00   0.00  -0.01
  38   1     0.07  -0.00   0.01     0.00  -0.00   0.00     0.00  -0.00  -0.00
  39   1     0.05  -0.11   0.08     0.00  -0.01   0.01     0.00  -0.01   0.01
  40   1     0.02   0.09  -0.02     0.00   0.01  -0.00     0.00   0.01  -0.00
  41   1     0.05   0.04   0.01     0.00   0.00   0.00     0.00   0.01  -0.00
                     49                     50                     51
                        a                      a                      a 
 Frequencies --   816.7703               817.7656               820.1364
 Red. masses --     2.6503                 2.9424                 2.6615
 Frc consts  --     0.0000                 0.0000                 0.0000
 IR Inten    --     4.5560                 1.8980                 4.2038
 Raman Activ --     0.0000                 0.0000                 0.0000
 Depolar     --     0.0000                 0.0000                 0.0000
 Atom AN      X      Y      Z        X      Y      Z        X      Y      Z
   1   6    -0.00  -0.00  -0.00     0.08   0.01   0.08    -0.02  -0.01  -0.02
   2   6    -0.01  -0.00  -0.00     0.21  -0.01   0.18    -0.06  -0.00  -0.03
   3   8     0.01  -0.00   0.00    -0.16   0.02  -0.13     0.05   0.00   0.02
   4  15    -0.00   0.00   0.01     0.03  -0.04   0.07    -0.02   0.03   0.04
   5  16    -0.00  -0.00  -0.00    -0.01  -0.00  -0.01    -0.00  -0.00  -0.00
   6   8    -0.00  -0.00  -0.03    -0.01   0.00  -0.04    -0.02  -0.02  -0.18
   7   6     0.01   0.01   0.04     0.02   0.02   0.06     0.05   0.09   0.25
   8   6     0.00   0.00   0.02     0.00   0.00   0.03     0.01   0.03   0.11
   9  16     0.00   0.00   0.00     0.00   0.00  -0.01    -0.00  -0.00   0.00
  10   6    -0.02  -0.01  -0.01     0.00   0.00   0.00     0.01   0.01   0.00
  11  16     0.00   0.01   0.00    -0.00  -0.00   0.00    -0.00  -0.00  -0.00
  12  15     0.02  -0.04  -0.04     0.00   0.00  -0.01    -0.00   0.01   0.01
  13  16    -0.00  -0.00   0.01    -0.00  -0.00   0.00     0.00   0.00  -0.00
  14   8    -0.02   0.08   0.16     0.00  -0.00   0.00     0.00  -0.01  -0.03
  15   6     0.10  -0.11  -0.23     0.00   0.00   0.00    -0.02   0.02   0.04
  16   6     0.03  -0.06  -0.09     0.00   0.00  -0.00    -0.00   0.01   0.01
  17   8    -0.01  -0.00   0.02    -0.00   0.00   0.01     0.00  -0.00  -0.01
  18   6     0.03  -0.01  -0.03     0.01  -0.00  -0.01    -0.01   0.00   0.01
  19   6     0.01  -0.01  -0.01     0.00  -0.00  -0.00    -0.00   0.00   0.01
  20   1     0.01  -0.01  -0.00    -0.23   0.33   0.04     0.05  -0.07  -0.01
  21   1     0.00  -0.00   0.00    -0.11   0.07  -0.10     0.03  -0.02   0.02
  22   1    -0.00   0.01   0.01     0.04  -0.30  -0.31    -0.01   0.07   0.07
  23   1    -0.00   0.01   0.01     0.15  -0.21  -0.40    -0.03   0.05   0.09
  24   1     0.01  -0.01  -0.00    -0.35   0.28   0.06     0.08  -0.06  -0.01
  25   1    -0.06  -0.05  -0.01    -0.08  -0.07  -0.02    -0.36  -0.30  -0.08
  26   1     0.06   0.01  -0.05     0.08   0.02  -0.06     0.35   0.08  -0.28
  27   1    -0.04  -0.06   0.00    -0.06  -0.08   0.00    -0.24  -0.35   0.01
  28   1     0.04   0.03  -0.05     0.05   0.04  -0.07     0.21   0.20  -0.30
  29   1    -0.00  -0.01  -0.02    -0.00  -0.02  -0.03    -0.01  -0.07  -0.13
  30   1     0.01   0.00  -0.02    -0.00  -0.00   0.00    -0.00  -0.00   0.01
  31   1     0.00  -0.01   0.02    -0.00   0.00  -0.00    -0.00   0.00  -0.01
  32   1    -0.39  -0.17   0.20     0.01   0.00  -0.00     0.06   0.03  -0.03
  33   1     0.20   0.41   0.09    -0.00  -0.01  -0.00    -0.03  -0.07  -0.01
  34   1     0.27   0.27   0.19    -0.00  -0.00  -0.00    -0.04  -0.04  -0.03
  35   1    -0.08   0.07   0.11    -0.00  -0.00  -0.00     0.01  -0.01  -0.02
  36   1    -0.41  -0.10   0.06     0.01   0.00  -0.00     0.07   0.02  -0.01
  37   1     0.00  -0.03   0.06     0.00  -0.01   0.01    -0.00   0.01  -0.03
  38   1    -0.05   0.04  -0.03    -0.01   0.01  -0.01     0.02  -0.02   0.01
  39   1    -0.01  -0.00   0.02    -0.00  -0.00   0.00     0.01   0.00  -0.01
  40   1    -0.01  -0.04   0.04    -0.00  -0.01   0.01     0.00   0.02  -0.02
  41   1    -0.03   0.05  -0.02    -0.01   0.01  -0.00     0.01  -0.02   0.01
                     52                     53                     54
                        a                      a                      a 
 Frequencies --   825.8891               911.0641               912.3909
 Red. masses --     2.5996                12.9399                12.8421
 Frc consts  --     0.0000                 0.0000                 0.0000
 IR Inten    --     3.1814               637.4010                 1.4196
 Raman Activ --     0.0000                 0.0000                 0.0000
 Depolar     --     0.0000                 0.0000                 0.0000
 Atom AN      X      Y      Z        X      Y      Z        X      Y      Z
   1   6    -0.00  -0.00  -0.00    -0.04  -0.17  -0.01    -0.03  -0.13  -0.01
   2   6    -0.01   0.00  -0.01    -0.22  -0.11   0.10    -0.18  -0.09   0.08
   3   8     0.01   0.00   0.00     0.20   0.37  -0.17     0.16   0.29  -0.14
   4  15    -0.00   0.00  -0.00     0.07  -0.15   0.05     0.06  -0.13   0.03
   5  16     0.00   0.00   0.00    -0.00   0.00  -0.01    -0.00   0.00  -0.00
   6   8    -0.00   0.00  -0.01    -0.20   0.25  -0.03    -0.17   0.22  -0.03
   7   6     0.00   0.00   0.01     0.17  -0.07   0.04     0.15  -0.06   0.03
   8   6     0.00   0.00   0.00     0.00  -0.12   0.06     0.00  -0.11   0.05
   9  16    -0.00  -0.00  -0.00    -0.02  -0.02   0.00    -0.00  -0.01   0.00
  10   6     0.01  -0.00   0.00     0.03   0.02   0.00    -0.01  -0.01  -0.00
  11  16    -0.01  -0.00  -0.00    -0.00  -0.02   0.00    -0.00   0.02  -0.00
  12  15     0.03   0.02  -0.05    -0.01  -0.13   0.01     0.01   0.16  -0.02
  13  16    -0.00   0.00   0.01    -0.00   0.00   0.00     0.00  -0.00  -0.00
  14   8    -0.00  -0.01  -0.02    -0.19   0.24  -0.18     0.24  -0.30   0.22
  15   6    -0.01   0.02   0.04     0.02  -0.16   0.14    -0.02   0.20  -0.17
  16   6    -0.00   0.01   0.01     0.14  -0.02   0.09    -0.17   0.02  -0.11
  17   8    -0.07   0.05   0.15     0.15   0.22   0.06    -0.17  -0.25  -0.07
  18   6     0.17  -0.09  -0.20    -0.09  -0.08  -0.11     0.10   0.09   0.13
  19   6     0.07  -0.05  -0.08    -0.02  -0.09   0.00     0.03   0.11  -0.00
  20   1     0.01  -0.01  -0.00     0.02   0.06   0.00     0.02   0.05   0.00
  21   1     0.01  -0.00   0.00     0.08  -0.17  -0.12     0.07  -0.14  -0.09
  22   1    -0.00   0.01   0.01     0.02   0.05  -0.02     0.01   0.04  -0.01
  23   1    -0.01   0.01   0.02    -0.03   0.01  -0.00    -0.02   0.01  -0.00
  24   1     0.02  -0.01  -0.00    -0.02   0.07   0.03    -0.01   0.06   0.02
  25   1    -0.01  -0.01  -0.00     0.03   0.05  -0.02     0.03   0.05  -0.02
  26   1     0.01   0.00  -0.01     0.01   0.02   0.01     0.01   0.02   0.01
  27   1    -0.01  -0.01  -0.00    -0.01   0.04  -0.02    -0.01   0.04  -0.02
  28   1     0.01   0.01  -0.01    -0.02   0.03  -0.01    -0.02   0.03  -0.00
  29   1    -0.00  -0.00  -0.00    -0.11  -0.11   0.07    -0.10  -0.10   0.06
  30   1    -0.00   0.00   0.01    -0.02  -0.00   0.02     0.01  -0.01  -0.01
  31   1    -0.00   0.00  -0.00    -0.00   0.01  -0.03    -0.00   0.01   0.02
  32   1     0.06   0.03  -0.03    -0.06  -0.02  -0.01     0.08   0.03   0.02
  33   1    -0.03  -0.06  -0.01    -0.03   0.00   0.00     0.04   0.00  -0.00
  34   1    -0.04  -0.05  -0.03    -0.04   0.03  -0.03     0.05  -0.03   0.03
  35   1     0.01  -0.01  -0.01     0.18   0.11   0.03    -0.22  -0.14  -0.03
  36   1     0.06   0.01  -0.01    -0.05   0.01  -0.04     0.06  -0.02   0.05
  37   1     0.00  -0.19   0.44    -0.00   0.04  -0.03     0.00  -0.04   0.03
  38   1    -0.35   0.28  -0.19     0.01  -0.01  -0.01    -0.01   0.01   0.02
  39   1    -0.10  -0.02   0.12     0.04  -0.10   0.06    -0.04   0.11  -0.07
  40   1    -0.04  -0.26   0.30     0.01   0.04  -0.01    -0.01  -0.04   0.00
  41   1    -0.21   0.38  -0.11     0.02   0.01   0.01    -0.02  -0.02  -0.01
                     55                     56                     57
                        a                      a                      a 
 Frequencies --   930.3263               935.5375              1034.4987
 Red. masses --    12.0716                11.8176                 8.4856
 Frc consts  --     0.0000                 0.0000                 0.0000
 IR Inten    --   158.1727               100.9502               197.1693
 Raman Activ --     0.0000                 0.0000                 0.0000
 Depolar     --     0.0000                 0.0000                 0.0000
 Atom AN      X      Y      Z        X      Y      Z        X      Y      Z
   1   6    -0.00  -0.01  -0.00     0.04   0.18   0.01     0.04   0.42   0.07
   2   6    -0.01  -0.00   0.01     0.19   0.06  -0.08    -0.17  -0.53  -0.03
   3   8     0.01   0.03  -0.01    -0.13  -0.39   0.17     0.20   0.15  -0.08
   4  15    -0.00  -0.00   0.01     0.05  -0.01  -0.17     0.00  -0.00  -0.01
   5  16    -0.00  -0.00  -0.00     0.01   0.00   0.01     0.00   0.00   0.00
   6   8     0.01  -0.02   0.00    -0.32   0.43  -0.05    -0.06   0.04  -0.02
   7   6    -0.01   0.00  -0.00     0.27  -0.06   0.04     0.04  -0.14   0.07
   8   6    -0.00   0.01  -0.00     0.02  -0.26   0.13    -0.01   0.11  -0.06
   9  16     0.00   0.00   0.00     0.02   0.00  -0.02    -0.01  -0.01   0.00
  10   6    -0.00   0.01  -0.00     0.00   0.01   0.02     0.00   0.00  -0.00
  11  16     0.02  -0.01   0.01    -0.00  -0.00  -0.00    -0.00  -0.00   0.00
  12  15     0.14   0.01  -0.08     0.01  -0.00  -0.00     0.01   0.00  -0.00
  13  16    -0.00   0.00   0.01     0.00  -0.00  -0.00    -0.00   0.00   0.00
  14   8    -0.19   0.27  -0.18    -0.02   0.02  -0.02    -0.01   0.02  -0.02
  15   6    -0.02  -0.16   0.12    -0.00  -0.01   0.01     0.05  -0.02   0.04
  16   6     0.18  -0.01   0.11     0.02  -0.00   0.01    -0.04   0.00  -0.03
  17   8    -0.33  -0.49  -0.11    -0.01  -0.02  -0.00     0.03   0.04   0.04
  18   6     0.18   0.13   0.23     0.01   0.00   0.01    -0.04  -0.13  -0.02
  19   6     0.07   0.23   0.01     0.00   0.01   0.00     0.02   0.11  -0.01
  20   1     0.00   0.01   0.00    -0.02  -0.07  -0.00    -0.09  -0.06   0.01
  21   1     0.01  -0.01  -0.01    -0.08   0.18   0.12    -0.17   0.33   0.21
  22   1     0.00   0.00  -0.00    -0.02  -0.04   0.02    -0.05  -0.08   0.05
  23   1    -0.00   0.00  -0.00     0.03  -0.01  -0.00    -0.04  -0.21  -0.06
  24   1    -0.00   0.01   0.00    -0.00  -0.09  -0.02    -0.03  -0.20  -0.02
  25   1    -0.00  -0.00   0.00     0.04   0.10  -0.05     0.01  -0.05   0.02
  26   1    -0.00  -0.00   0.00     0.02   0.07  -0.02    -0.00  -0.05   0.04
  27   1     0.00  -0.00   0.00    -0.04   0.07  -0.05     0.03  -0.02   0.02
  28   1     0.00  -0.00   0.00    -0.03   0.10  -0.03     0.01  -0.04   0.01
  29   1     0.01   0.01  -0.00    -0.24  -0.24   0.14     0.09   0.10  -0.05
  30   1     0.00   0.01  -0.00    -0.00  -0.01   0.01    -0.00   0.00   0.00
  31   1    -0.00   0.01   0.00    -0.01   0.01  -0.00     0.00   0.00  -0.00
  32   1    -0.08  -0.02  -0.03    -0.01  -0.00  -0.00     0.02  -0.00   0.02
  33   1    -0.05  -0.01  -0.01    -0.00  -0.00  -0.00     0.02   0.00   0.01
  34   1    -0.05   0.02  -0.04    -0.00   0.00  -0.00     0.01  -0.01   0.01
  35   1     0.21   0.14   0.03     0.02   0.01   0.00    -0.05  -0.03  -0.01
  36   1    -0.05   0.02  -0.05    -0.00   0.00  -0.00     0.01  -0.01   0.01
  37   1     0.00  -0.11   0.04     0.00  -0.00   0.00    -0.01  -0.05   0.00
  38   1    -0.02  -0.01   0.03    -0.00  -0.00   0.00    -0.00  -0.05   0.00
  39   1    -0.10   0.26  -0.17    -0.00   0.01  -0.01    -0.03   0.09  -0.06
  40   1    -0.03  -0.11   0.01    -0.00  -0.00   0.00    -0.01  -0.02  -0.02
  41   1    -0.05  -0.05  -0.02    -0.00  -0.00  -0.00    -0.02  -0.02  -0.01
                     58                     59                     60
                        a                      a                      a 
 Frequencies --  1036.0387              1048.2159              1052.5929
 Red. masses --     8.3570                 9.3989                 9.4388
 Frc consts  --     0.0000                 0.0000                 0.0000
 IR Inten    --    67.6973               166.5012               138.0766
 Raman Activ --     0.0000                 0.0000                 0.0000
 Depolar     --     0.0000                 0.0000                 0.0000
 Atom AN      X      Y      Z        X      Y      Z        X      Y      Z
   1   6     0.01   0.11   0.02     0.00  -0.01  -0.00    -0.01  -0.12  -0.03
   2   6    -0.04  -0.14  -0.01     0.00   0.01   0.00     0.07   0.18   0.01
   3   8     0.06   0.04  -0.02    -0.00  -0.00   0.00    -0.07  -0.12   0.04
   4  15    -0.00  -0.00  -0.00     0.00   0.00   0.00     0.01  -0.01  -0.02
   5  16     0.00   0.00   0.00    -0.00  -0.00   0.00    -0.00  -0.00  -0.00
   6   8    -0.02   0.01  -0.01     0.00  -0.00   0.00    -0.27   0.25  -0.08
   7   6     0.01  -0.05   0.02    -0.00   0.00  -0.00     0.16  -0.51   0.24
   8   6    -0.00   0.04  -0.02     0.00  -0.00   0.00    -0.00   0.35  -0.16
   9  16     0.00  -0.00   0.00     0.00  -0.00   0.00     0.01   0.00  -0.01
  10   6    -0.00  -0.00  -0.01    -0.00  -0.00   0.00     0.00   0.00   0.00
  11  16     0.00   0.01   0.00    -0.01   0.01  -0.01    -0.00  -0.00  -0.00
  12  15    -0.01   0.00   0.00    -0.01   0.02  -0.00    -0.00   0.00  -0.00
  13  16     0.00  -0.00  -0.00    -0.00   0.00   0.00     0.00  -0.00  -0.00
  14   8     0.05  -0.09   0.09     0.12  -0.24   0.20    -0.00   0.00  -0.00
  15   6    -0.21   0.07  -0.16    -0.41   0.14  -0.32     0.00  -0.00   0.00
  16   6     0.18  -0.01   0.11     0.31  -0.01   0.18    -0.00   0.00  -0.00
  17   8    -0.12  -0.14  -0.14     0.09   0.12   0.09     0.00   0.00   0.00
  18   6     0.13   0.48   0.06    -0.07  -0.30  -0.03     0.00  -0.01   0.00
  19   6    -0.06  -0.38   0.03     0.02   0.21  -0.03    -0.00   0.01  -0.00
  20   1    -0.02  -0.02   0.00     0.00  -0.00  -0.00     0.03   0.00  -0.01
  21   1    -0.04   0.09   0.06     0.00  -0.00  -0.00     0.05  -0.09  -0.05
  22   1    -0.01  -0.02   0.01     0.00  -0.00  -0.00     0.01   0.02  -0.01
  23   1    -0.01  -0.06  -0.02    -0.00   0.00   0.00     0.02   0.07   0.01
  24   1    -0.01  -0.05  -0.01    -0.00   0.00   0.00    -0.00   0.04   0.01
  25   1     0.00  -0.02   0.01    -0.00   0.00  -0.00     0.03  -0.17   0.08
  26   1    -0.00  -0.02   0.01    -0.00   0.00  -0.00    -0.02  -0.16   0.12
  27   1     0.01  -0.01   0.01    -0.00   0.00  -0.00     0.08  -0.07   0.06
  28   1     0.00  -0.01   0.00    -0.00   0.00  -0.00     0.05  -0.10   0.02
  29   1     0.03   0.03  -0.02    -0.00  -0.00   0.00     0.26   0.27  -0.15
[...]
  33   1    -0.00   0.00   0.00     0.00  -0.00  -0.00    -0.00   0.00   0.00
  34   1     0.00  -0.00  -0.00    -0.00  -0.00   0.00     0.00  -0.00  -0.00
  35   1     0.00  -0.00   0.00     0.00  -0.00   0.00    -0.00   0.00  -0.00
  36   1    -0.00   0.01   0.01    -0.00  -0.00  -0.00     0.00   0.00   0.00
  37   1     0.93  -0.23  -0.02     0.02  -0.00  -0.00    -0.00   0.00   0.00
  38   1    -0.05   0.01   0.05    -0.00   0.00   0.00     0.00  -0.00  -0.00
  39   1    -0.01  -0.01  -0.01    -0.00  -0.00  -0.00     0.00   0.00   0.00
  40   1    -0.07   0.02   0.00     0.01  -0.00  -0.00    -0.00   0.00  -0.00
  41   1     0.00  -0.00   0.01    -0.00   0.00   0.01    -0.00  -0.00   0.00
                    103                    104                    105
                        a                      a                      a 
 Frequencies --  2974.4331              2977.5224              3006.0718
 Red. masses --     1.7248                 1.7261                 1.8491
 Frc consts  --     0.0000                 0.0000                 0.0000
 IR Inten    --    10.5319                 8.6721                13.9063
 Raman Activ --     0.0000                 0.0000                 0.0000
 Depolar     --     0.0000                 0.0000                 0.0000
 Atom AN      X      Y      Z        X      Y      Z        X      Y      Z
   1   6     0.00   0.00  -0.00    -0.00  -0.00   0.00     0.00   0.00  -0.00
   2   6    -0.00   0.00   0.00     0.00   0.00  -0.00     0.00  -0.00   0.00
   3   8    -0.00  -0.00   0.00     0.00   0.00  -0.00    -0.00  -0.00   0.00
   4  15    -0.00   0.00   0.00     0.00  -0.00   0.00     0.00   0.00  -0.00
   5  16    -0.00   0.00   0.00    -0.00   0.00   0.00    -0.00  -0.00  -0.00
   6   8     0.01  -0.01  -0.00     0.00  -0.00   0.00     0.00   0.00   0.00
   7   6     0.14  -0.07  -0.20     0.00  -0.00  -0.00    -0.00   0.00   0.00
   8   6    -0.01   0.01   0.02    -0.00   0.00  -0.00     0.00  -0.00  -0.00
   9  16    -0.00  -0.00  -0.00     0.00   0.00  -0.00     0.00  -0.00  -0.00
  10   6     0.00   0.00  -0.00    -0.00  -0.00  -0.00     0.25   0.10  -0.04
  11  16     0.00   0.00  -0.00     0.00   0.00   0.00     0.00   0.00  -0.00
  12  15    -0.00   0.00   0.00     0.00  -0.00  -0.00    -0.00   0.00  -0.00
  13  16     0.00  -0.00  -0.00     0.00  -0.00  -0.00     0.00   0.00  -0.00
  14   8     0.00  -0.00  -0.00    -0.00   0.01  -0.00     0.00  -0.00   0.00
  15   6     0.00  -0.00  -0.00    -0.02   0.23   0.10    -0.00   0.00   0.00
  16   6    -0.00   0.00   0.00     0.01  -0.04  -0.01     0.00   0.00   0.00
  17   8     0.00  -0.00  -0.00     0.00   0.00   0.00     0.00  -0.00   0.00
  18   6    -0.00   0.00   0.00     0.00  -0.00   0.00    -0.00   0.00   0.00
  19   6     0.00  -0.00  -0.00    -0.00   0.00  -0.00    -0.01   0.00  -0.01
  20   1     0.00  -0.00   0.00    -0.00   0.00  -0.00     0.00  -0.00   0.01
  21   1    -0.00  -0.00  -0.00    -0.00  -0.00   0.00    -0.00  -0.00   0.00
  22   1    -0.00   0.00  -0.00     0.00   0.00   0.00    -0.00   0.00  -0.00
  23   1     0.00  -0.00   0.00    -0.00   0.00  -0.00    -0.00   0.00  -0.00
  24   1    -0.00   0.00  -0.01     0.00  -0.00   0.01     0.00   0.00  -0.00
  25   1    -0.52   0.30   0.75    -0.00   0.00   0.00     0.00  -0.00  -0.00
  26   1     0.01  -0.02  -0.04    -0.00  -0.00  -0.00    -0.00   0.00  -0.00
  27   1     0.05  -0.03  -0.09    -0.00   0.00   0.00    -0.00   0.00   0.01
  28   1    -0.01  -0.00  -0.00     0.00   0.00   0.00    -0.00  -0.00  -0.00
  29   1     0.01  -0.01   0.01     0.00  -0.00   0.00     0.00  -0.00  -0.00
  30   1     0.00   0.00   0.00     0.00   0.00   0.00    -0.06   0.01  -0.11
  31   1    -0.00  -0.00   0.00    -0.00  -0.00   0.00    -0.83  -0.38   0.25
  32   1    -0.00   0.00   0.00     0.10  -0.87  -0.37     0.00  -0.00  -0.00
  33   1    -0.00  -0.00   0.00    -0.01   0.03   0.03     0.00   0.00  -0.00
  34   1     0.00   0.00  -0.00    -0.01  -0.01   0.01    -0.00  -0.00   0.00
  35   1    -0.00   0.00  -0.00    -0.01   0.01  -0.02    -0.00   0.00  -0.00
  36   1     0.00  -0.00  -0.00    -0.02   0.14   0.06     0.00  -0.00  -0.00
  37   1     0.00  -0.00  -0.00    -0.01   0.00   0.00     0.01  -0.00  -0.00
  38   1    -0.00   0.00  -0.00     0.00  -0.00  -0.00     0.00   0.00  -0.00
  39   1     0.00  -0.00  -0.00    -0.00  -0.00  -0.00    -0.00  -0.00  -0.00
  40   1    -0.00   0.00  -0.00     0.00  -0.00  -0.00     0.05  -0.01  -0.00
  41   1    -0.00  -0.00   0.00    -0.00   0.00   0.00    -0.01   0.00   0.02
                    106                    107                    108
                        a                      a                      a 
 Frequencies --  3013.4692              3024.0294              3028.0929
 Red. masses --     1.7468                 1.7573                 1.7136
 Frc consts  --     0.0000                 0.0000                 0.0000
 IR Inten    --    48.1243                48.8349                38.4731
 Raman Activ --     0.0000                 0.0000                 0.0000
 Depolar     --     0.0000                 0.0000                 0.0000
 Atom AN      X      Y      Z        X      Y      Z        X      Y      Z
   1   6    -0.00   0.00  -0.00    -0.00   0.00  -0.00     0.00  -0.00   0.00
   2   6    -0.00   0.00   0.00     0.00  -0.00   0.00     0.00   0.00   0.00
   3   8     0.00  -0.00   0.00     0.00   0.00  -0.00    -0.00  -0.00   0.00
   4  15     0.00   0.00   0.00    -0.00   0.00  -0.00     0.00   0.00   0.00
   5  16    -0.00  -0.00  -0.00     0.00  -0.00   0.00     0.00  -0.00  -0.00
   6   8    -0.00  -0.00   0.00     0.00  -0.00   0.00     0.00   0.00  -0.00
   7   6    -0.00  -0.00  -0.00     0.02  -0.01  -0.03    -0.00   0.00   0.00
   8   6     0.00   0.00   0.00     0.11  -0.09  -0.22     0.00   0.00   0.00
   9  16    -0.00  -0.00  -0.00    -0.00  -0.00   0.00     0.00  -0.00  -0.00
  10   6     0.00   0.00  -0.00    -0.00  -0.00   0.00     0.01   0.01  -0.00
  11  16    -0.00   0.00  -0.00    -0.00  -0.00  -0.00     0.00  -0.00  -0.00
  12  15    -0.00   0.00  -0.00     0.00   0.00   0.00     0.00  -0.00  -0.00
  13  16     0.00  -0.00   0.00     0.00   0.00  -0.00     0.00   0.00   0.00
  14   8     0.00  -0.00   0.00     0.00   0.00  -0.00     0.00  -0.00   0.00
  15   6     0.01  -0.04  -0.02     0.00  -0.00  -0.00    -0.00   0.00   0.00
  16   6     0.04  -0.23  -0.11    -0.00  -0.00   0.00    -0.00   0.00   0.00
  17   8     0.00  -0.00   0.00     0.00  -0.00   0.00    -0.00   0.00  -0.00
  18   6     0.00  -0.00   0.00    -0.00  -0.00   0.00     0.03  -0.01  -0.00
  19   6     0.00  -0.00  -0.00     0.00  -0.00  -0.00     0.24  -0.06  -0.01
  20   1    -0.00  -0.00   0.01     0.00  -0.00   0.01     0.00   0.00  -0.01
  21   1     0.00   0.00  -0.00    -0.00  -0.00  -0.00    -0.00  -0.00   0.00
  22   1     0.00  -0.00   0.00     0.00  -0.00   0.00    -0.01   0.00  -0.00
  23   1     0.00  -0.00   0.00    -0.00   0.00  -0.00     0.00  -0.00   0.00
  24   1     0.00  -0.00  -0.00     0.00   0.00  -0.00     0.00   0.00  -0.00
  25   1     0.00  -0.00   0.00    -0.06   0.04   0.08     0.00  -0.00  -0.00
  26   1     0.00   0.00   0.00     0.01   0.01   0.01     0.00   0.00   0.00
  27   1     0.00  -0.00  -0.01    -0.47   0.30   0.77     0.00  -0.00  -0.01
  28   1    -0.00  -0.00  -0.00     0.07   0.01   0.02    -0.00  -0.00  -0.00
  29   1    -0.00   0.00  -0.00     0.02  -0.02  -0.03    -0.00   0.00  -0.00
  30   1    -0.00   0.00  -0.00     0.00  -0.00   0.00     0.00   0.00   0.00
  31   1    -0.00  -0.00   0.00     0.01   0.00  -0.00    -0.04  -0.02   0.01
  32   1    -0.02   0.14   0.06    -0.00   0.00   0.00     0.00  -0.00  -0.00
  33   1    -0.01  -0.01   0.01    -0.00  -0.00   0.00    -0.00   0.00   0.00
  34   1    -0.02  -0.03   0.02     0.00  -0.00  -0.00     0.00   0.00  -0.00
  35   1     0.00  -0.03  -0.02    -0.00   0.00  -0.00    -0.00   0.00  -0.00
  36   1    -0.13   0.87   0.37    -0.00   0.01   0.00     0.00  -0.01  -0.00
  37   1    -0.01   0.00   0.00     0.00  -0.00  -0.00    -0.07   0.02   0.00
  38   1     0.00  -0.00  -0.01     0.00   0.00  -0.00    -0.00  -0.00   0.01
  39   1     0.00   0.00   0.00     0.00   0.00   0.00     0.04   0.01   0.01
  40   1    -0.01   0.00  -0.00    -0.01   0.00  -0.00    -0.94   0.22   0.02
  41   1    -0.00   0.00   0.01    -0.00   0.00   0.01     0.03  -0.00   0.00
                    109                    110                    111
                        a                      a                      a 
 Frequencies --  3033.6979              3040.9713              3044.4604
 Red. masses --     1.8721                 1.5112                 1.6748
 Frc consts  --     0.0000                 0.0000                 0.0000
 IR Inten    --    33.2985                27.6968                18.5569
 Raman Activ --     0.0000                 0.0000                 0.0000
 Depolar     --     0.0000                 0.0000                 0.0000
 Atom AN      X      Y      Z        X      Y      Z        X      Y      Z
   1   6    -0.10   0.03  -0.26    -0.20   0.06   0.01     0.00  -0.00   0.00
   2   6    -0.01   0.00  -0.03    -0.01   0.01   0.00     0.00  -0.00   0.00
   3   8     0.00   0.00  -0.00     0.00  -0.00  -0.00    -0.00  -0.00   0.00
   4  15    -0.00  -0.00  -0.00    -0.00  -0.00   0.00     0.00   0.00  -0.00
   5  16     0.00   0.00  -0.00    -0.00  -0.00  -0.00    -0.00  -0.00  -0.00
   6   8     0.00  -0.00  -0.00    -0.00   0.00  -0.00    -0.00   0.00  -0.00
   7   6    -0.00   0.00   0.00     0.00   0.00   0.00    -0.00   0.00   0.00
   8   6    -0.00   0.00   0.00     0.00   0.00   0.00    -0.00  -0.00  -0.00
   9  16    -0.00  -0.00  -0.00     0.00   0.00   0.00    -0.00  -0.00   0.00
  10   6    -0.00  -0.00   0.00     0.00   0.00  -0.00     0.00   0.00  -0.00
  11  16    -0.00  -0.00  -0.00    -0.00   0.00   0.00    -0.00   0.00  -0.00
  12  15     0.00   0.00   0.00     0.00  -0.00   0.00    -0.00  -0.00   0.00
  13  16    -0.00  -0.00  -0.00    -0.00   0.00   0.00    -0.00   0.00   0.00
  14   8    -0.00   0.00  -0.00     0.00   0.00   0.00     0.00   0.00  -0.00
  15   6    -0.00   0.00   0.00    -0.00  -0.00   0.00    -0.01   0.00   0.01
  16   6    -0.00   0.00  -0.00    -0.00   0.00   0.00    -0.15  -0.02   0.20
  17   8    -0.00  -0.00   0.00     0.00   0.00  -0.00     0.00  -0.00  -0.00
  18   6     0.00  -0.00   0.00     0.00  -0.00  -0.00     0.00   0.00  -0.00
  19   6     0.00   0.00   0.00     0.00  -0.00  -0.00    -0.00   0.00   0.01
  20   1     0.01  -0.07   0.89    -0.04   0.03  -0.35     0.00  -0.00   0.01
  21   1     0.01   0.03  -0.04    -0.08  -0.05   0.02     0.00   0.00  -0.00
  22   1     0.32  -0.07   0.07     0.84  -0.20   0.27    -0.01   0.00  -0.00
  23   1     0.02  -0.01   0.01     0.03  -0.01   0.02    -0.00   0.00  -0.00
  24   1    -0.00  -0.01   0.08    -0.00   0.00  -0.02    -0.00   0.00   0.00
  25   1     0.00  -0.00  -0.00    -0.00   0.00   0.00     0.00  -0.00  -0.00
  26   1    -0.00  -0.00  -0.00    -0.00  -0.00  -0.00     0.00   0.00   0.00
  27   1     0.00  -0.00  -0.00    -0.00   0.00   0.00     0.00  -0.00  -0.01
  28   1     0.00   0.00   0.00    -0.01  -0.00  -0.01     0.01   0.01   0.01
  29   1     0.00  -0.00   0.00     0.01  -0.01   0.00     0.00  -0.00   0.00
  30   1    -0.00   0.00  -0.00    -0.00   0.00  -0.00     0.00  -0.00   0.00
  31   1     0.01   0.00  -0.00    -0.01  -0.00   0.00    -0.00  -0.00   0.00
  32   1     0.00  -0.00  -0.00    -0.00   0.00   0.00     0.00  -0.01  -0.00
  33   1     0.00   0.00  -0.00     0.00  -0.00  -0.00     0.02  -0.00  -0.04
  34   1    -0.00   0.00   0.00     0.01   0.00  -0.01     0.54   0.06  -0.80
  35   1     0.00  -0.00   0.00     0.00  -0.00   0.00     0.01  -0.03   0.06
  36   1     0.00  -0.01  -0.00    -0.00   0.00   0.00    -0.02   0.04   0.05
  37   1    -0.00   0.00   0.00    -0.00   0.00  -0.00    -0.00   0.00  -0.00
  38   1    -0.00  -0.00   0.00    -0.00  -0.00   0.00    -0.00  -0.00   0.00
  39   1    -0.00  -0.00  -0.00     0.00   0.00   0.00    -0.00   0.00   0.00
  40   1    -0.01   0.00   0.00    -0.00   0.00  -0.00     0.00  -0.00   0.00
  41   1     0.00  -0.00  -0.01    -0.00   0.00   0.01     0.01  -0.00  -0.03
                    112                    113                    114
                        a                      a                      a 
 Frequencies --  3047.7678              3048.7615              3052.5806
 Red. masses --     1.6300                 1.7097                 1.7383
 Frc consts  --     0.0000                 0.0000                 0.0000
 IR Inten    --    19.7021                15.8721                10.5334
 Raman Activ --     0.0000                 0.0000                 0.0000
 Depolar     --     0.0000                 0.0000                 0.0000
 Atom AN      X      Y      Z        X      Y      Z        X      Y      Z
   1   6    -0.00  -0.00   0.00     0.00   0.00  -0.00     0.00   0.00   0.00
   2   6    -0.00   0.00   0.00    -0.00   0.00  -0.00     0.00  -0.00   0.00
   3   8    -0.00  -0.00   0.00     0.00   0.00  -0.00    -0.00   0.00   0.00
   4  15    -0.00  -0.00   0.00    -0.00  -0.00   0.00    -0.00   0.00  -0.00
   5  16    -0.00  -0.00  -0.00    -0.00   0.00   0.00    -0.00   0.00   0.00
   6   8     0.00   0.00  -0.00    -0.00  -0.00  -0.00     0.00  -0.00   0.00
   7   6    -0.01  -0.01  -0.01     0.00   0.00   0.00    -0.00   0.00  -0.00
   8   6    -0.15  -0.10  -0.14     0.02   0.01   0.02    -0.01   0.01  -0.01
   9  16     0.00  -0.00  -0.00     0.00  -0.00  -0.00    -0.00   0.00  -0.00
  10   6     0.00   0.00   0.00    -0.01  -0.00   0.00     0.00   0.00   0.00
  11  16    -0.00  -0.00   0.00    -0.00  -0.00   0.00    -0.00   0.00   0.00
  12  15    -0.00  -0.00   0.00    -0.00  -0.00  -0.00     0.00  -0.00  -0.00
  13  16    -0.00   0.00  -0.00     0.00   0.00  -0.00     0.00  -0.00  -0.00
  14   8    -0.00  -0.00  -0.00    -0.00   0.00  -0.00    -0.00  -0.00   0.00
  15   6     0.00  -0.00  -0.00    -0.00   0.00   0.00    -0.00   0.01  -0.01
  16   6     0.00   0.00  -0.00    -0.01   0.00   0.00    -0.11   0.15  -0.18
  17   8     0.00   0.00  -0.00     0.00   0.00   0.00    -0.00   0.00   0.00
  18   6     0.00  -0.00  -0.00     0.01   0.00  -0.02     0.00  -0.00   0.00
  19   6     0.01  -0.00  -0.03     0.08  -0.01  -0.24    -0.00  -0.00   0.00
  20   1    -0.00   0.00  -0.01     0.00  -0.00   0.01     0.00   0.00  -0.00
  21   1     0.00   0.00  -0.00     0.00   0.00  -0.00    -0.00  -0.00   0.00
  22   1     0.01  -0.00   0.00    -0.00   0.00  -0.00    -0.00   0.00  -0.00
  23   1     0.00  -0.00   0.00     0.00  -0.00   0.00    -0.00   0.00  -0.00
  24   1    -0.00   0.00  -0.00     0.00  -0.00   0.00     0.00   0.00  -0.00
  25   1    -0.00   0.00   0.00     0.00  -0.00  -0.00    -0.00   0.00   0.00
  26   1     0.02   0.02   0.03    -0.00  -0.00  -0.00     0.00   0.00   0.00
  27   1     0.02  -0.04  -0.08     0.00   0.00   0.00    -0.00   0.00   0.00
  28   1     0.62   0.35   0.64    -0.07  -0.04  -0.07     0.00   0.00   0.00
  29   1    -0.09   0.06  -0.05     0.02  -0.01   0.01     0.04  -0.04   0.02
  30   1    -0.00  -0.00  -0.00    -0.00  -0.00  -0.00    -0.00   0.00  -0.00
  31   1     0.00   0.00  -0.00     0.02   0.01  -0.01    -0.00  -0.00   0.00
  32   1    -0.00   0.00   0.00     0.00  -0.00  -0.00     0.00  -0.02  -0.01
  33   1    -0.00   0.00   0.00     0.00  -0.00  -0.00    -0.01   0.00   0.01
  34   1    -0.01  -0.00   0.01     0.02   0.00  -0.03    -0.04   0.02   0.02
  35   1     0.00  -0.00   0.00     0.01  -0.01   0.01     0.44  -0.56   0.64
  36   1    -0.00   0.00   0.00     0.00  -0.01  -0.00    -0.01   0.03  -0.02
  37   1    -0.00   0.00  -0.00    -0.01   0.00  -0.00    -0.00   0.00   0.00
  38   1    -0.00   0.00   0.00    -0.02   0.00   0.04     0.00  -0.00  -0.00
  39   1     0.00   0.00  -0.00     0.00  -0.02  -0.04     0.00   0.01   0.00
  40   1    -0.00   0.00  -0.00     0.01  -0.01  -0.03    -0.00   0.00   0.00
  41   1    -0.04   0.01   0.11    -0.30   0.05   0.91     0.00  -0.00  -0.01
                    115                    116                    117
                        a                      a                      a 
 Frequencies --  3054.2311              3057.3715              3060.6451
 Red. masses --     1.7752                 1.7752                 1.7393
 Frc consts  --     0.0000                 0.0000                 0.0000
 IR Inten    --    10.1736                15.1052                 7.6934
 Raman Activ --     0.0000                 0.0000                 0.0000
 Depolar     --     0.0000                 0.0000                 0.0000
 Atom AN      X      Y      Z        X      Y      Z        X      Y      Z
   1   6     0.00   0.00  -0.00     0.17   0.18  -0.08    -0.01  -0.01   0.01
   2   6     0.00  -0.00   0.00     0.01   0.00  -0.01    -0.00  -0.00   0.00
   3   8    -0.00   0.00   0.00    -0.00   0.00   0.00     0.00  -0.00  -0.00
   4  15     0.00  -0.00  -0.00     0.00  -0.00   0.00    -0.00   0.00  -0.00
   5  16    -0.00  -0.00  -0.00    -0.00   0.00   0.00     0.00   0.00  -0.00
   6   8     0.00   0.00   0.00    -0.00   0.00  -0.00     0.00   0.00  -0.00
   7   6    -0.01   0.00  -0.00    -0.00  -0.00  -0.00    -0.00  -0.00  -0.00
   8   6    -0.18   0.17  -0.08     0.00  -0.00  -0.00    -0.00  -0.00  -0.00
   9  16     0.00  -0.00  -0.00    -0.00  -0.00  -0.00    -0.00   0.00   0.00
  10   6     0.00  -0.00   0.00    -0.00  -0.00  -0.00     0.00   0.00  -0.00
  11  16    -0.00   0.00  -0.00     0.00   0.00  -0.00    -0.00  -0.00  -0.00
  12  15     0.00   0.00   0.00    -0.00   0.00   0.00    -0.00  -0.00   0.00
  13  16    -0.00   0.00  -0.00     0.00  -0.00  -0.00    -0.00  -0.00   0.00
  14   8     0.00   0.00  -0.00     0.00   0.00  -0.00     0.00   0.00  -0.00
  15   6     0.00  -0.00  -0.00    -0.00  -0.00   0.00    -0.00  -0.00  -0.00
  16   6     0.01  -0.01   0.01    -0.00  -0.00   0.00    -0.00  -0.00  -0.00
  17   8    -0.00   0.00  -0.00     0.00   0.00  -0.00    -0.00   0.00  -0.00
  18   6     0.00  -0.00   0.00     0.00   0.00   0.00     0.01   0.00   0.01
  19   6    -0.00  -0.00   0.00     0.01   0.01   0.01     0.13   0.18   0.13
  20   1     0.00   0.00   0.00     0.03   0.02   0.04    -0.00  -0.00  -0.01
  21   1    -0.00  -0.01   0.00    -0.60  -0.69   0.28     0.03   0.03  -0.01
  22   1    -0.01   0.00  -0.00    -0.04   0.04  -0.03     0.00  -0.00   0.00
  23   1    -0.00   0.00  -0.00    -0.01   0.00  -0.00     0.00  -0.00   0.00
  24   1    -0.00   0.00  -0.00     0.00  -0.00   0.02    -0.00   0.00  -0.00
  25   1     0.01  -0.01  -0.02     0.00   0.00  -0.00    -0.00   0.00   0.00
  26   1     0.01   0.01   0.01     0.00   0.00   0.00     0.00   0.00   0.00
  27   1    -0.02   0.02  -0.02     0.00  -0.00  -0.00    -0.00   0.00   0.00
  28   1     0.04   0.06   0.06     0.00   0.00   0.00     0.01   0.00   0.01
  29   1     0.62  -0.68   0.25    -0.01   0.01  -0.00     0.00  -0.00   0.00
  30   1    -0.00   0.00  -0.00     0.00   0.00   0.00     0.00   0.00  -0.00
  31   1     0.00   0.00  -0.00     0.00   0.00  -0.00    -0.00  -0.00  -0.00
  32   1    -0.00   0.00   0.00     0.00   0.00   0.00    -0.00   0.00   0.00
  33   1     0.00  -0.00  -0.00     0.00   0.00  -0.00     0.00   0.00  -0.00
  34   1    -0.00  -0.00   0.00     0.00   0.00  -0.00    -0.00   0.00   0.00
  35   1    -0.03   0.04  -0.04    -0.00   0.00  -0.00     0.00  -0.00   0.01
  36   1     0.00   0.00   0.00    -0.00   0.00   0.00    -0.00   0.01   0.00
  37   1    -0.00   0.00   0.00     0.00   0.00   0.00    -0.01   0.00   0.00
  38   1     0.00   0.00  -0.00     0.00   0.00  -0.00     0.00  -0.00  -0.01
  39   1     0.00   0.00   0.00    -0.02  -0.03  -0.02    -0.50  -0.68  -0.47
  40   1    -0.00   0.00   0.00     0.00   0.00   0.00    -0.00   0.03   0.02
  41   1     0.00  -0.00  -0.01     0.00   0.00   0.00     0.02   0.02   0.00
