
                                 *****************
                                 * O   R   C   A *
                                 *****************

                                            #,                                       
                                            ###                                      
                                            ####                                     
                                            #####                                    
                                            ######                                   
                                           ########,                                 
                                     ,,################,,,,,                         
                               ,,#################################,,                 
                          ,,##########################################,,             
                       ,#########################################, ''#####,          
                    ,#############################################,,   '####,        
                  ,##################################################,,,,####,       
                ,###########''''           ''''###############################       
              ,#####''   ,,,,##########,,,,          '''####'''          '####       
            ,##' ,,,,###########################,,,                        '##       
           ' ,,###''''                  '''############,,,                           
         ,,##''                                '''############,,,,        ,,,,,,###''
      ,#''                                            '''#######################'''  
     '                                                          ''''####''''         
             ,#######,   #######,   ,#######,      ##                                
            ,#'     '#,  ##    ##  ,#'     '#,    #''#        ,####,   ,####,        
            ##       ##  ##   ,#'  ##            #'  '#       #'       #'  '#        
            ##       ##  #######   ##           ,######,      #####,   #    #        
            '#,     ,#'  ##    ##  '#,     ,#' ,#      #,     #,   #   #,  ,#        
             '#######'   ##     ##  '#######'  #'      '#     '####' # '####'        



                #########################################################
                #                        -***-                          #
                #          Department of theory and spectroscopy        #
                #                                                       #
                #                      Frank Neese                      #
                #                                                       #
                #     Directorship, Architecture, Infrastructure        #
                #                    SHARK, DRIVERS                     #
                #        Core code/Algorithms in most modules           #
                #                                                       #
                #        Max Planck Institute fuer Kohlenforschung      #
                #                Kaiser Wilhelm Platz 1                 #
                #                 D-45470 Muelheim/Ruhr                 #
                #                      Germany                          #
                #                                                       #
                #                  All rights reserved                  #
                #                        -***-                          #
                #########################################################


                         Program Version 6.0.0  -   RELEASE  -


 With contributions from (in alphabetic order):
   Daniel Aravena         : Magnetic Suceptibility
   Michael Atanasov       : Ab Initio Ligand Field Theory (pilot matlab implementation)
   Alexander A. Auer      : GIAO ZORA, VPT2 properties, NMR spectrum
   Ute Becker             : All parallelization in ORCA, NUMFREQ, NUMCALC
   Giovanni Bistoni       : ED, misc. LED, open-shell LED, HFLD
   Martin Brehm           : Molecular dynamics
   Dmytro Bykov           : pre 5.0 version of the SCF Hessian
   Marcos Casanova-Páez   : Triplet and SCS-CIS(D). UHF-(DLPNO)-IP/EA/STEOM-CCSD. UHF-CVS-IP/STEOM-CCSD
   Vijay G. Chilkuri      : MRCI spin determinant printing, contributions to CSF-ICE
   Pauline Colinet        : FMM embedding
   Dipayan Datta          : RHF DLPNO-CCSD density
   Achintya Kumar Dutta   : EOM-CC, STEOM-CC
   Nicolas Foglia         : Exact transition moments, OPA infrastructure, MCD improvements
   Dmitry Ganyushin       : Spin-Orbit,Spin-Spin,Magnetic field MRCI
   Miquel Garcia          : C-PCM and meta-GGA Hessian, CCSD/C-PCM, Gaussian charge scheme
   Tiago L. C. Gouveia    : GS-ROHF, GS-ROCIS
   Yang Guo               : DLPNO-NEVPT2, F12-NEVPT2, CIM, IAO-localization
   Andreas Hansen         : Spin unrestricted coupled pair/coupled cluster methods
   Ingolf Harden          : AUTO-CI MPn and infrastructure 
   Benjamin Helmich-Paris : MC-RPA, TRAH-(SCF,CASSCF), AVAS, COSX integrals, SCF dyn. polar.
   Lee Huntington         : MR-EOM, pCC
   Robert Izsak           : Overlap fitted RIJCOSX, COSX-SCS-MP3, EOM
   Riya Kayal             : Wick's Theorem for AUTO-CI, AUTO-CI UHF-CCSDT
   Emily Kempfer          : AUTO-CI, RHF CISDT and CCSDT
   Christian Kollmar      : KDIIS, OOCD, Brueckner-CCSD(T), CCSD density, CASPT2, CASPT2-K, improved NEVPT2
   Axel Koslowski         : Symmetry handling
   Simone Kossmann        : Meta GGA functionals, TD-DFT gradient, OOMP2, (MP2 Hessian; deprecated post 5.0)
   Lucas Lang             : DCDCAS
   Marvin Lechner         : AUTO-CI (C++ implementation), FIC-MRCC
   Spencer Leger          : CASSCF response
   Dagmar Lenk            : GEPOL surface, SMD, ORCA-2-JSON
   Dimitrios Liakos       : Extrapolation schemes; Compound Job, initial MDCI parallelization
   Dimitrios Manganas     : Further ROCIS development; embedding schemes. LFT, Crystal Embedding
   Dimitrios Pantazis     : SARC Basis sets
   Anastasios Papadopoulos: AUTO-CI, single reference methods and gradients
   Taras Petrenko         : pre 6.0 DFT Hessian and TD-DFT gradient, (ASA, deprecated), ECA, 1-Electron XAS/XES, NRVS
   Peter Pinski           : DLPNO-MP2, DLPNO-MP2 Gradient
   Christoph Reimann      : Effective Core Potentials
   Marius Retegan         : Local ZFS, SOC
   Christoph Riplinger    : Optimizer, TS searches, QM/MM, DLPNO-CCSD(T), (RO)-DLPNO pert. Triples
   Michael Roemelt        : Original ROCIS implementation
   Masaaki Saitow         : Open-shell DLPNO-CCSD energy and density
   Barbara Sandhoefer     : DKH picture change effects
   Kantharuban Sivalingam : CASSCF convergence/infrastructure, NEVPT2 and variants, FIC-MRCI
   Bernardo de Souza      : ESD, SOC TD-DFT
   Georgi Stoychev        : AutoAux, RI-MP2 NMR, DLPNO-MP2 response, X2C
   Van Anh Tran           : RI-MP2 g-tensors
   Willem Van den Heuvel  : Paramagnetic NMR
   Zikuan Wang            : NOTCH, Electric field optimization 
   Frank Wennmohs         : Technical directorship and infrastructure
   Hang Xu                : AUTO-CI-Response properties 


 We gratefully acknowledge several colleagues who have allowed us to
 interface, adapt or use parts of their codes:
   Stefan Grimme, W. Hujo, H. Kruse, P. Pracht,  : VdW corrections, initial TS optimization,
                  C. Bannwarth, S. Ehlert,         DFT functionals, gCP, sTDA/sTD-DF
                  L. Wittmann, M. Mueller
   Ed Valeev, F. Pavosevic, A. Kumar             : LibInt (2-el integral package), F12 methods
   Garnet Chan, S. Sharma, J. Yang, R. Olivares  : DMRG
   Ulf Ekstrom                                   : XCFun DFT Library
   Mihaly Kallay                                 : mrcc  (arbitrary order and MRCC methods)
   Frank Weinhold                                : gennbo (NPA and NBO analysis)
   Simon Mueller                                 : openCOSMO-RS
   Christopher J. Cramer and Donald G. Truhlar   : smd solvation model
   Lars Goerigk                                  : TD-DFT with DH, B97 family of functionals
   V. Asgeirsson, H. Jonsson                     : NEB implementation
   FAccTs GmbH                                   : IRC, NEB, NEB-TS, DLPNO-Multilevel, CI-OPT
                                                   MM, QMMM, 2- and 3-layer-ONIOM, Crystal-QMMM,
                                                   LR-CPCM, SF, NACMEs, symmetry and pop. for TD-DFT,
                                                   nearIR, NL-DFT gradient (VV10), updates on ESD,
                                                   ML-optimized integration grids, MBIS, APM,
                                                   GOAT, DOCKER, SOLVATOR, interface openCOSMO-RS
   S Lehtola, MJT Oliveira, MAL Marques          : LibXC Library
   Liviu Ungur et al                             : ANISO software


 Your calculation uses the libint2 library for the computation of 2-el integrals
 For citations please refer to: http://libint.valeyev.net

 Your ORCA version has been built with support for libXC version: 6.2.2
 For citations please refer to: https://libxc.gitlab.io

 This ORCA versions uses:
   CBLAS   interface :  Fast vector & matrix operations
   LAPACKE interface :  Fast linear algebra routines
   SCALAPACK package :  Parallel linear algebra routines
   Shared memory     :  Shared parallel matrices
   BLAS/LAPACK       :  OpenBLAS 0.3.27  USE64BITINT DYNAMIC_ARCH NO_AFFINITY SkylakeX SINGLE_THREADED
        Core in use  :  SkylakeX
   Copyright (c) 2011-2014, The OpenBLAS Project


Your calculation utilizes the geometrical counterpoise correction gCP
Please cite in your paper:
H.Kruse, S. Grimme J.Chem.Phys., 136, (2012), 154101 
   

Your calculation utilizes the atom-pairwise dispersion correction
based on EEQ partial charges (D4)


Your calculation utilizes the SMD solvation module
Please cite in your paper:
A.V. Marenich, C.J. Cramer, D.G. Truhlar J. Phys. Chem. B, 113, (2009), 6378 

================================================================================

----- Orbital basis set information -----
Your calculation utilizes the basis: def2-mTZVPP
   Stefan Grimme, Andreas Hansen, Sebastian Ehlert, and Jan-Michael Mewes 
   J. Chem. Phys. 154, 064103 (2021). DOI: 10.1063/5.0040021

----- AuxJ basis set information -----
Your calculation utilizes the auxiliary basis: def2/J
   F. Weigend, Phys. Chem. Chem. Phys. 8, 1057 (2006).

================================================================================
                                        WARNINGS
                       Please study these warnings very carefully!
================================================================================

Using LibXC functional ID 497 : Re-regularized SCAN exchange by Furness et al
[ 1]  J. W. Furness, A. D. Kaplan, J. Ning, J. P. Perdew, and J. Sun.,  J. Phys. Chem. Lett. 11, 8208-8215 (2020)
[ 2]  J. W. Furness, A. D. Kaplan, J. Ning, J. P. Perdew, and J. Sun.,  J. Phys. Chem. Lett. 11, 9248-9248 (2020)
Using LibXC functional ID 498 : Re-regularized SCAN correlation by Furness et al
[ 1]  J. W. Furness, A. D. Kaplan, J. Ning, J. P. Perdew, and J. Sun.,  J. Phys. Chem. Lett. 11, 8208-8215 (2020)
[ 2]  J. W. Furness, A. D. Kaplan, J. Ning, J. P. Perdew, and J. Sun.,  J. Phys. Chem. Lett. 11, 9248-9248 (2020)
Using LibXC functional ID 497 : Re-regularized SCAN exchange by Furness et al
[ 1]  J. W. Furness, A. D. Kaplan, J. Ning, J. P. Perdew, and J. Sun.,  J. Phys. Chem. Lett. 11, 8208-8215 (2020)
[ 2]  J. W. Furness, A. D. Kaplan, J. Ning, J. P. Perdew, and J. Sun.,  J. Phys. Chem. Lett. 11, 9248-9248 (2020)
Using LibXC functional ID 498 : Re-regularized SCAN correlation by Furness et al
[ 1]  J. W. Furness, A. D. Kaplan, J. Ning, J. P. Perdew, and J. Sun.,  J. Phys. Chem. Lett. 11, 8208-8215 (2020)
[ 2]  J. W. Furness, A. D. Kaplan, J. Ning, J. P. Perdew, and J. Sun.,  J. Phys. Chem. Lett. 11, 9248-9248 (2020)

================================================================================
                                       INPUT FILE
================================================================================
NAME = sp_solv.inp
|  1> ! r2scan-3c def2/J RI DEFGRID2 scfconv6 printgap
|  2> %output
|  3>     printlevel normal
|  4> end
|  5> %cpcm
|  6>     smd true
|  7>     smdsolvent "water"
|  8> end
|  9> * xyz 0 1
| 10> C -0.6678461257 1.2508647728 3.20375e-05
| 11> C 0.6680565911 1.2507907461 0.0002780242
| 12> C 1.4470558586 -3.90482e-05 -0.0001207701
| 13> O 2.6688847629 3.78679e-05 -0.0001419988
| 14> C 0.6679992566 -1.250921097 5.4325e-05
| 15> C -0.6681249376 -1.2509633382 0.0001776538
| 16> C -1.4470386802 3.72783e-05 -0.0001923269
| 17> O -2.6689764998 0.0001435422 -0.0001159678
| 18> H -1.2421366976 2.165893287 0.0004116637
| 19> H 1.2425214244 2.1656963748 3.1979e-06
| 20> H 1.2424579028 -2.1658054182 0.0002344198
| 21> H -1.2426014578 -2.1659149482 0.0007174004
| 22> *
| 23> 
| 24>                          ****END OF INPUT****
================================================================================

                       ****************************
                       * Single Point Calculation *
                       ****************************

---------------------------------
CARTESIAN COORDINATES (ANGSTROEM)
---------------------------------
  C     -0.667846    1.250865    0.000032
  C      0.668057    1.250791    0.000278
  C      1.447056   -0.000039   -0.000121
  O      2.668885    0.000038   -0.000142
  C      0.667999   -1.250921    0.000054
  C     -0.668125   -1.250963    0.000178
  C     -1.447039    0.000037   -0.000192
  O     -2.668976    0.000144   -0.000116
  H     -1.242137    2.165893    0.000412
  H      1.242521    2.165696    0.000003
  H      1.242458   -2.165805    0.000234
  H     -1.242601   -2.165915    0.000717

----------------------------
CARTESIAN COORDINATES (A.U.)
----------------------------
  NO LB      ZA    FRAG     MASS         X           Y           Z
   0 C     6.0000    0    12.011   -1.262046    2.363792    0.000061
   1 C     6.0000    0    12.011    1.262444    2.363652    0.000525
   2 C     6.0000    0    12.011    2.734539   -0.000074   -0.000228
   3 O     8.0000    0    15.999    5.043461    0.000072   -0.000268
   4 C     6.0000    0    12.011    1.262336   -2.363898    0.000103
   5 C     6.0000    0    12.011   -1.262573   -2.363978    0.000336
   6 C     6.0000    0    12.011   -2.734507    0.000070   -0.000363
   7 O     8.0000    0    15.999   -5.043635    0.000271   -0.000219
   8 H     1.0000    0     1.008   -2.347298    4.092945    0.000778
   9 H     1.0000    0     1.008    2.348025    4.092573    0.000006
  10 H     1.0000    0     1.008    2.347905   -4.092779    0.000443
  11 H     1.0000    0     1.008   -2.348176   -4.092986    0.001356

--------------------------------
INTERNAL COORDINATES (ANGSTROEM)
--------------------------------
 C      0   0   0     0.000000000000     0.00000000     0.00000000
 C      1   0   0     1.335902741498     0.00000000     0.00000000
 C      2   1   0     1.473572255477   121.91724151     0.00000000
 O      3   2   1     1.221828906905   121.91046398   179.98639541
 C      3   2   1     1.473646877576   116.17103485   359.96270700
 C      5   3   2     1.336124200560   121.91670175     0.00000000
 C      6   5   3     1.473672045531   121.90592406     0.00000000
 O      7   6   5     1.221937826606   121.91271867   179.99799050
 H      1   2   3     1.080318002668   122.11638856   179.99444523
 H      2   1   3     1.080306544299   122.12133373   179.95132688
 H      5   3   2     1.080285189108   115.96027400   180.02793205
 H      6   5   3     1.080351800216   122.12555165   180.02575341

---------------------------
INTERNAL COORDINATES (A.U.)
---------------------------
 C      0   0   0     0.000000000000     0.00000000     0.00000000
 C      1   0   0     2.524490322987     0.00000000     0.00000000
 C      2   1   0     2.784648001396   121.91724151     0.00000000
 O      3   2   1     2.308922016560   121.91046398   179.98639541
 C      3   2   1     2.784789016726   116.17103485   359.96270700
 C      5   3   2     2.524908819962   121.91670175     0.00000000
 C      6   5   3     2.784836577270   121.90592406     0.00000000
 O      7   6   5     2.309127844965   121.91271867   179.99799050
 H      1   2   3     2.041505162587   122.11638856   179.99444523
 H      2   1   3     2.041483509408   122.12133373   179.95132688
 H      5   3   2     2.041443153945   115.96027400   180.02793205
 H      6   5   3     2.041569030696   122.12555165   180.02575341

---------------------
BASIS SET INFORMATION
---------------------
There are 3 groups of distinct atoms

 Group   1 Type C   : 11s6p1d contracted to 5s3p1d pattern {62111/411/1}
 Group   2 Type O   : 11s6p2d contracted to 5s3p2d pattern {62111/411/11}
 Group   3 Type H   : 4s1p contracted to 2s1p pattern {31/1}

Atom   0C    basis set group =>   1
Atom   1C    basis set group =>   1
Atom   2C    basis set group =>   1
Atom   3O    basis set group =>   2
Atom   4C    basis set group =>   1
Atom   5C    basis set group =>   1
Atom   6C    basis set group =>   1
Atom   7O    basis set group =>   2
Atom   8H    basis set group =>   3
Atom   9H    basis set group =>   3
Atom  10H    basis set group =>   3
Atom  11H    basis set group =>   3
---------------------------------
AUXILIARY/J BASIS SET INFORMATION
---------------------------------
There are 3 groups of distinct atoms

 Group   1 Type C   : 12s5p4d2f1g contracted to 6s4p3d1f1g pattern {711111/2111/211/2/1}
 Group   2 Type O   : 12s5p4d2f1g contracted to 6s4p3d1f1g pattern {711111/2111/211/2/1}
 Group   3 Type H   : 5s2p1d contracted to 3s1p1d pattern {311/2/1}

Atom   0C    basis set group =>   1
Atom   1C    basis set group =>   1
Atom   2C    basis set group =>   1
Atom   3O    basis set group =>   2
Atom   4C    basis set group =>   1
Atom   5C    basis set group =>   1
Atom   6C    basis set group =>   1
Atom   7O    basis set group =>   2
Atom   8H    basis set group =>   3
Atom   9H    basis set group =>   3
Atom  10H    basis set group =>   3
Atom  11H    basis set group =>   3

Checking for AutoStart:
The File: sp_solv.gbw exists
Trying to determine its content:
     ... Fine, the file contains calculation information
     ... Fine, the calculation information was read
     ... Fine, the file contains a basis set
     ... Fine, the basis set was read
     ... Fine, the file contains a geometry
     ... Fine, the geometry was read
     ... Fine, the file contains a set of orbitals
     ... Fine, the orbitals can be read
     => possible old guess file was deleted
     => GBW file was renamed to GES file
     => GES file is set as startup file
     => Guess is set to MORead
     ... now leaving AutoStart

------------------------------------------------------------------------------
                             ORCA STARTUP CALCULATIONS
                           -- RI-GTO INTEGRALS CHOSEN --
------------------------------------------------------------------------------
------------------------------------------------------------------------------
                   ___                                                        
                  /   \      - P O W E R E D   B Y -                         
                 /     \                                                     
                 |  |  |   _    _      __       _____    __    __             
                 |  |  |  | |  | |    /  \     |  _  \  |  |  /  |          
                  \  \/   | |  | |   /    \    | | | |  |  | /  /          
                 / \  \   | |__| |  /  /\  \   | |_| |  |  |/  /          
                |  |  |   |  __  | /  /__\  \  |    /   |      \           
                |  |  |   | |  | | |   __   |  |    \   |  |\   \          
                \     /   | |  | | |  |  |  |  | |\  \  |  | \   \       
                 \___/    |_|  |_| |__|  |__|  |_| \__\ |__|  \__/        
                                                                              
                      - O R C A' S   B I G   F R I E N D -                    
                                      &                                       
                       - I N T E G R A L  F E E D E R -                       
                                                                              
 v1 FN, 2020, v2 2021, v3 2022-2024                                           
------------------------------------------------------------------------------


----------------------
SHARK INTEGRAL PACKAGE
----------------------

Number of atoms                             ...     12
Number of basis functions                   ...    182
Number of shells                            ...     86
Maximum angular momentum                    ...      2
Integral batch strategy                     ... SHARK/LIBINT Hybrid
RI-J (if used) integral strategy            ... SPLIT-RIJ (Revised 2003 algorithm where possible)
Printlevel                                  ...      1
Contraction scheme used                     ... SEGMENTED contraction
Prescreening option                         ... SCHWARTZ
   Thresh                                   ... 1.000e-10
   Tcut                                     ... 1.000e-11
   Tpresel                                  ... 1.000e-11 
Coulomb Range Separation                    ... NOT USED
Exchange Range Separation                   ... NOT USED
Multipole approximations                    ... NOT USED
Finite Nucleus Model                        ... NOT USED
CABS basis                                  ... NOT available
Auxiliary Coulomb fitting basis             ... AVAILABLE
   # of basis functions in Aux-J            ...    436
   # of shells in Aux-J                     ...    140
   Maximum angular momentum in Aux-J        ...      4
Auxiliary J/K fitting basis                 ... NOT available
Auxiliary Correlation fitting basis         ... NOT available
Auxiliary 'external' fitting basis          ... NOT available

Checking pre-screening integrals            ... done (  0.0 sec) Dimension = 86
Check shell pair data                       ... done (  0.0 sec)
Shell pair information
Shell pair cut-off parameter TPreSel        ...   1.0e-11
Total number of shell pairs                 ...      3741
Shell pairs after pre-screening             ...      3438
Total number of primitive shell pairs       ...     14049
Primitive shell pairs kept                  ...      9323
          la=0 lb=0:   1025 shell pairs
          la=1 lb=0:   1252 shell pairs
          la=1 lb=1:    393 shell pairs
          la=2 lb=0:    444 shell pairs
          la=2 lb=1:    270 shell pairs
          la=2 lb=2:     54 shell pairs

Calculating one electron integrals          ... done (  0.0 sec)
Calculating RI/J V-Matrix + Cholesky decomp.... done (  1.1 sec)
Calculating Nuclear repulsion               ... done (  0.0 sec) ENN=    323.691164043511 Eh

Diagonalization of the overlap matrix:
Smallest eigenvalue                        ... 3.734e-05
Time for diagonalization                   ...    0.003 sec
Threshold for overlap eigenvalues          ... 1.000e-07
Number of eigenvalues below threshold      ... 0
Time for construction of square roots      ...    0.014 sec
Total time needed                          ...    0.024 sec

-------------------
DFT GRID GENERATION
-------------------

General Integration Accuracy     IntAcc      ... 4.388
Radial Grid Type                 RadialGrid  ... OptM3 with GC (2021)
Angular Grid (max. ang.)         AngularGrid ... 4 (Lebedev-302)
Angular grid pruning method      GridPruning ... 4 (adaptive)
Weight generation scheme         WeightScheme... mBecke (2022)
Basis function cutoff            BFCut       ... 1.0000e-10
Integration weight cutoff        WCut        ... 1.0000e-14
Partially contracted basis set               ... off
Rotationally invariant grid construction     ... off
Angular grids for H and He will be reduced by one unit
Diffuse basis detected: some atoms will have their outermost
                        angular grid increased by 1.

Total number of grid points                  ...    61796
Total number of batches                      ...      972
Average number of points per batch           ...       63
Average number of grid points per atom       ...     5150
Initializing property integral containers    ... done (  0.0 sec)

SHARK setup successfully completed in   4.1 seconds

Maximum memory used throughout the entire STARTUP-calculation: 28.5 MB
-------------------------------------------------------------------------------
                                 ORCA GUESS
                   Start orbitals & Density for SCF / CASSCF
-------------------------------------------------------------------------------

------------
SCF SETTINGS
------------
Hamiltonian:
 Density Functional     Method          .... DFT(GTOs)
  Functional kind                       .... Exchange
  Functional name                       .... Re-regularized SCAN exchange by Furness et al
  Functional family                     .... MGGA
  Functional refs                              
    [ 0] J. W. Furness, A. D. Kaplan, J. Ning, J. P. Perdew, and J. Sun.,  J. Phys. Chem. Lett. 11, 8208-8215 (2020), doi: 10.1021/acs.jpclett.0c02405
    [ 1] J. W. Furness, A. D. Kaplan, J. Ning, J. P. Perdew, and J. Sun.,  J. Phys. Chem. Lett. 11, 9248-9248 (2020), doi: 10.1021/acs.jpclett.0c03077
  Functional external parameters        .... 6
    Parameter  0 _c1        =  6.670000e-01 : c1 parameter        
    Parameter  1 _c2        =  8.000000e-01 : c2 parameter        
    Parameter  2 _d         =  1.240000e+00 : d parameter         
    Parameter  3 _k1        =  6.500000e-02 : k1 parameter        
    Parameter  4 _eta       =  1.000000e-03 : eta parameter       
    Parameter  5 _dp2       =  3.610000e-01 : dp2 parameter       
  Functional kind                       .... Correlation
  Functional name                       .... Re-regularized SCAN correlation by Furness et al
  Functional family                     .... MGGA
  Functional refs                              
    [ 0] J. W. Furness, A. D. Kaplan, J. Ning, J. P. Perdew, and J. Sun.,  J. Phys. Chem. Lett. 11, 8208-8215 (2020), doi: 10.1021/acs.jpclett.0c02405
    [ 1] J. W. Furness, A. D. Kaplan, J. Ning, J. P. Perdew, and J. Sun.,  J. Phys. Chem. Lett. 11, 9248-9248 (2020), doi: 10.1021/acs.jpclett.0c03077
  Functional external parameters        .... 1
    Parameter  0 _eta       =  1.000000e-03 : Regularization parameter
 Gradients option       PostSCFGGA      .... off
 RI-approximation to the Coulomb term is turned on
   Number of AuxJ basis functions       .... 436


General Settings:
 Integral files         IntName         .... sp_solv
 Hartree-Fock type      HFTyp           .... RHF
 Total Charge           Charge          ....    0
 Multiplicity           Mult            ....    1
 Number of Electrons    NEL             ....   56
 Basis Dimension        Dim             ....  182
 Nuclear Repulsion      ENuc            ....    323.6911640435 Eh

Convergence Acceleration:
 AO-DIIS                CNVDIIS         .... on
   Start iteration      DIISMaxIt       ....    12
   Startup error        DIISStart       ....  0.200000
   # of expansion vecs  DIISMaxEq       ....     5
   Bias factor          DIISBfac        ....   1.050
   Max. coefficient     DIISMaxC        ....  10.000
 MO-DIIS                CNVKDIIS        .... off
 Trust-Rad. Augm. Hess. CNVTRAH         .... auto
   Auto Start mean grad. ratio tolernc. ....  1.125000
   Auto Start start iteration           ....     1
   Auto Start num. interpolation iter.  ....    10
   Max. Number of Micro iterations      ....    24
   Max. Number of Macro iterations      .... Maxiter - #DIIS iter
   Number of Davidson start vectors     ....     2
   Converg. threshold    (grad. norm)   ....   3.330e-04
   Grad. Scal. Fac. for Micro threshold ....   0.100
   Minimum threshold for Micro iter.    ....   1.000e-02
   NR start threshold (gradient norm)   ....   1.000e-04
   Initial trust radius                 ....   0.400
   Minimum AH scaling param. (alpha)    ....   1.000
   Maximum AH scaling param. (alpha)    .... 1000.000
   Quad. conv. algorithm                .... NR
   White noise on init. David. guess    .... on
   Maximum white noise                  ....   0.010
   Pseudo random numbers                .... off
   Inactive MOs                         .... canonical
   Orbital update algorithm             .... Taylor
   Preconditioner                       .... Diag
   Full preconditioner red. dimension   ....   250
   COSX micro iterations for RIJONX calc.... off
 SOSCF                  CNVSOSCF        .... on
   Start iteration      SOSCFMaxIt      ....   150
   Startup grad/error   SOSCFStart      ....  0.003300
   Hessian update       SOSCFHessUp     .... L-BFGS
 Level Shifting         CNVShift        .... on
   Level shift para.    LevelShift      ....    0.2500
   Turn off err/grad.   ShiftErr        ....    0.0010
 Zerner damping         CNVZerner       .... off
 Static damping         CNVDamp         .... on
   Fraction old density DampFac         ....    0.7000
   Max. Damping (<1)    DampMax         ....    0.9800
   Min. Damping (>=0)   DampMin         ....    0.0000
   Turn off err/grad.   DampErr         ....    0.1000

SCF Procedure:
 Maximum # iterations   MaxIter         ....   125
 SCF integral mode      SCFMode         .... Direct
   Integral package                     .... SHARK and LIBINT hybrid scheme
 Reset frequency        DirectResetFreq ....    20
 Integral Threshold     Thresh          ....  1.000e-10 Eh
 Primitive CutOff       TCut            ....  1.000e-11 Eh

Convergence Tolerance:
 Convergence Check Mode ConvCheckMode   .... Total+1el-Energy
 Convergence forced     ConvForced      .... 0
 Energy Change          TolE            ....  1.000e-06 Eh
 1-El. energy change                    ....  1.000e-03 Eh
 Orbital Gradient       TolG            ....  3.330e-04
 Orbital Rotation angle TolX            ....  3.330e-04
 DIIS Error             TolErr          ....  1.000e-06

---------------------
INITIAL GUESS: MOREAD
---------------------
Guess MOs are being read from file: sp_solv.ges
Input Geometry matches current geometry (good)
Atom 0: N(Shells)= 9 and 6 - projection required
Input basis set needs projection
NBasis(read)= 120
NBasis(calc)= 182
Basis set overlap was calculated
Using GuessMode=FMatrix for the initial guess
C*T matrix was formed
Effective Fockian was calculated
Effective Fockian was diagonalized
Initial density was built
                      ------------------
                      INITIAL GUESS DONE (   0.3 sec)
                      ------------------
             **** ENERGY FILE WAS UPDATED (sp_solv.en.tmp) ****
Finished Guess after   0.6 sec
Maximum memory used throughout the entire GUESS-calculation: 12.5 MB

-------------------------------------------------------------------------------------------
                                      ORCA LEAN-SCF
                              memory conserving SCF solver
-------------------------------------------------------------------------------------------

--------------------
CPCM SOLVATION MODEL
--------------------
CPCM parameters:
  Epsilon                                         ...      78.3550
  Refrac                                          ...       1.3328
  Rsolv                                           ...       1.3000
  Surface type                                    ... GAUSSIAN VDW
  Discretization scheme                           ... Constant charge density
    Threshold for H atoms                         ...       5.0000 (charges/Ang^2)
    Threshold for non-H atoms                     ...       5.0000 (charges/Ang^2)
  Epsilon function type                           ...         CPCM
Solvent:                                          ... WATER
SMD-CDS solvent descriptors:
  Soln                                            ...       1.3328
  Soln25                                          ...       1.3323
  Sola                                            ...       0.0000
  Solb                                            ...       0.0000
  Solg                                            ...       0.0000
  Solc                                            ...       0.0000
  Solh                                            ...       0.0000
Radii:
  Scheme                                          ... Element-dependent radii
  Radius for C  used is    3.4960 Bohr (=   1.8500 Ang.)
  Radius for O  used is    2.8724 Bohr (=   1.5200 Ang.)
  Radius for H  used is    2.2677 Bohr (=   1.2000 Ang.)
Calculating surface                               ...        done! (  0.0s)
Cavity surface points                             ...          994
Cavity Volume                                     ...     697.2789
Cavity Surface-area                               ...     444.5709
Calculating surface distance matrix               ...        done! (  0.0s)
Performing Cholesky decomposition & store         ...        done! (  0.1s)
Overall time for CPCM initialization              ...                 0.1s

----------------------------------------D-I-I-S--------------------------------------------
Iteration    Energy (Eh)           Delta-E    RMSDP     MaxDP     DIISErr   Damp  Time(sec)
-------------------------------------------------------------------------------------------
               ***  Starting incremental Fock matrix formation  ***
    1    -381.2189118531626946     0.00e+00  9.08e-03  1.71e-01  6.24e-01  0.700   2.8
Warning: op=0 Small HOMO/LUMO gap (   0.082) - skipping pre-diagonalization
         Will do a full diagonalization
    2    -381.2710970082246149    -5.22e-02  7.03e-03  1.38e-01  4.40e-01  0.700   2.8
    3    -381.3079175735385888    -3.68e-02  4.98e-03  9.94e-02  3.09e-01  0.700   3.6
    4    -381.3337738848060781    -2.59e-02  3.52e-03  7.15e-02  2.16e-01  0.700   2.1
                               ***Turning on AO-DIIS***
    5    -381.3519443485291731    -1.82e-02  2.52e-03  5.22e-02  1.51e-01  0.700   2.4
    6    -381.3646694354696365    -1.27e-02  1.77e-03  3.67e-02  1.05e-01  0.700   1.8
    7    -381.3736217264491870    -8.95e-03  1.24e-03  2.57e-02  7.39e-02  0.700   1.7
    8    -381.3798949140963259    -6.27e-03  2.92e-03  6.07e-02  5.19e-02  0.000   2.5
                              *** Initializing SOSCF ***
---------------------------------------S-O-S-C-F--------------------------------------
Iteration    Energy (Eh)           Delta-E    RMSDP     MaxDP     MaxGrad    Time(sec)
--------------------------------------------------------------------------------------
    9    -381.3945680165051044    -1.47e-02  2.25e-05  5.43e-04  1.91e-04     1.7
               *** Restarting incremental Fock matrix formation ***
   10    -381.3945683483318589    -3.32e-07  2.28e-05  7.29e-04  4.46e-05     2.6
                  *** Gradient check signals convergence ***

               *****************************************************
               *                     SUCCESS                       *
               *           SCF CONVERGED AFTER  10 CYCLES          *
               *****************************************************


SMD CDS free energy correction energy :                 4.48630     Kcal/mol
Total Energy after SMD CDS correction =              -381.387418974 Eh
             **** ENERGY FILE WAS UPDATED (sp_solv.en.tmp) ****

----------------
TOTAL SCF ENERGY
----------------

Total Energy       :       -381.38741897366145 Eh          -10378.07928 eV

Components:
Nuclear Repulsion  :        323.69116404351075 Eh            8808.08437 eV
Electronic Energy  :       -705.06461070208707 Eh          -19185.78344 eV
One Electron Energy:      -1158.65966942251816 Eh          -31528.73249 eV
Two Electron Energy:        453.59505872043104 Eh           12342.94905 eV
CPCM Dielectric    :         -0.02112168975559 Eh              -0.57475 eV
SMD CDS (Gcds)     :          0.00714937467043 Eh               0.19454 eV

Virial components:
Potential Energy   :       -761.34789341391979 Eh          -20717.32943 eV
Kinetic Energy     :        379.96047444025834 Eh           10339.25015 eV
Virial Ratio       :          2.00375550782093

DFT components:
N(Alpha)           :       28.000010877732 electrons
N(Beta)            :       28.000010877732 electrons
N(Total)           :       56.000021755463 electrons
E(X)               :      -49.201823361818 Eh       
E(C)               :       -1.835686092085 Eh       
E(XC)              :      -51.037509453904 Eh       

CPCM Solvation Model Properties:
Surface-charge          :         -0.03900609386537
Corrected charge        :          0.00000000000000
Outlying charge corr.   :          0.00012935227741 Eh               0.00352 eV
Free-energy (cav+disp)  :          0.00714937467043 Eh               0.19454 eV

---------------
SCF CONVERGENCE
---------------

  Last Energy change         ...    3.3183e-07  Tolerance :   1.0000e-06
  Last MAX-Density change    ...    7.2853e-04  Tolerance :   1.0000e-05
  Last RMS-Density change    ...    2.2757e-05  Tolerance :   1.0000e-06
  Last DIIS Error            ...    1.9075e-04  Tolerance :   1.0000e-06
  Last Orbital Gradient      ...    4.4581e-05  Tolerance :   3.3300e-04
  Last Orbital Rotation      ...    7.8061e-05  Tolerance :   3.3300e-04


----------------
ORBITAL ENERGIES
----------------

  NO   OCC          E(Eh)            E(eV) 
   0   2.0000     -18.971072      -516.2291 
   1   2.0000     -18.971067      -516.2290 
   2   2.0000     -10.144125      -276.0357 
   3   2.0000     -10.144098      -276.0349 
   4   2.0000     -10.066656      -273.9276 
   5   2.0000     -10.066613      -273.9265 
   6   2.0000     -10.065941      -273.9082 
   7   2.0000     -10.065899      -273.9070 
   8   2.0000      -1.034484       -28.1497 
   9   2.0000      -1.032749       -28.1025 
  10   2.0000      -0.827199       -22.5092 
  11   2.0000      -0.753789       -20.5117 
  12   2.0000      -0.678773       -18.4704 
  13   2.0000      -0.604258       -16.4427 
  14   2.0000      -0.571340       -15.5470 
  15   2.0000      -0.481986       -13.1155 
  16   2.0000      -0.478706       -13.0263 
  17   2.0000      -0.452181       -12.3045 
  18   2.0000      -0.420129       -11.4323 
  19   2.0000      -0.419509       -11.4154 
  20   2.0000      -0.411978       -11.2105 
  21   2.0000      -0.392939       -10.6924 
  22   2.0000      -0.391398       -10.6505 
  23   2.0000      -0.362438        -9.8624 
  24   2.0000      -0.292349        -7.9552 
  25   2.0000      -0.276709        -7.5296 
  26   2.0000      -0.255626        -6.9559 
  27   2.0000      -0.243945        -6.6381 
  28   0.0000      -0.162696        -4.4272 
  29   0.0000      -0.049363        -1.3432 
  30   0.0000      -0.019856        -0.5403 
  31   0.0000       0.103708         2.8220 
  32   0.0000       0.103830         2.8253 
  33   0.0000       0.108867         2.9624 
  34   0.0000       0.123147         3.3510 
  35   0.0000       0.123822         3.3694 
  36   0.0000       0.145133         3.9493 
  37   0.0000       0.171102         4.6559 
  38   0.0000       0.174809         4.7568 
*Only the first 10 virtual orbitals were printed.

                    ********************************
                    * MULLIKEN POPULATION ANALYSIS *
                    ********************************

-----------------------
MULLIKEN ATOMIC CHARGES
-----------------------
   0 C :   -0.196847
   1 C :   -0.196830
   2 C :    0.380376
   3 O :   -0.408346
   4 C :   -0.196891
   5 C :   -0.196852
   6 C :    0.380309
   7 O :   -0.408377
   8 H :    0.210859
   9 H :    0.210853
  10 H :    0.210863
  11 H :    0.210884
Sum of atomic charges:    0.0000000

--------------------------------
MULLIKEN REDUCED ORBITAL CHARGES
--------------------------------
  0 C s       :     3.238337  s :     3.238337
      pz      :     0.920021  p :     2.924160
      px      :     0.986453
      py      :     1.017687
      dz2     :     0.003252  d :     0.034349
      dxz     :     0.005320
      dyz     :     0.001657
      dx2y2   :     0.009669
      dxy     :     0.014451

  1 C s       :     3.238319  s :     3.238319
      pz      :     0.920012  p :     2.924159
      px      :     0.986470
      py      :     1.017677
      dz2     :     0.003252  d :     0.034352
      dxz     :     0.005321
      dyz     :     0.001657
      dx2y2   :     0.009670
      dxy     :     0.014452

  2 C s       :     3.131631  s :     3.131631
      pz      :     0.749823  p :     2.395367
      px      :     0.767100
      py      :     0.878444
      dz2     :     0.004630  d :     0.092626
      dxz     :     0.016684
      dyz     :     0.005288
      dx2y2   :     0.022209
      dxy     :     0.043813

  3 O s       :     3.839113  s :     3.839113
      pz      :     1.357914  p :     4.541411
      px      :     1.319499
      py      :     1.863999
      dz2     :     0.003248  d :     0.027821
      dxz     :     0.008421
      dyz     :     0.001072
      dx2y2   :     0.010718
      dxy     :     0.004363

  4 C s       :     3.238451  s :     3.238451
      pz      :     0.920001  p :     2.924102
      px      :     0.986402
      py      :     1.017699
      dz2     :     0.003252  d :     0.034339
      dxz     :     0.005316
      dyz     :     0.001657
      dx2y2   :     0.009668
      dxy     :     0.014446

  5 C s       :     3.238440  s :     3.238440
      pz      :     0.920008  p :     2.924073
      px      :     0.986416
      py      :     1.017649
      dz2     :     0.003252  d :     0.034339
      dxz     :     0.005317
      dyz     :     0.001657
      dx2y2   :     0.009669
      dxy     :     0.014445

  6 C s       :     3.131755  s :     3.131755
      pz      :     0.749811  p :     2.395335
      px      :     0.767088
      py      :     0.878436
      dz2     :     0.004630  d :     0.092601
      dxz     :     0.016679
      dyz     :     0.005288
      dx2y2   :     0.022205
      dxy     :     0.043800

  7 O s       :     3.839134  s :     3.839134
      pz      :     1.357953  p :     4.541427
      px      :     1.319444
      py      :     1.864030
      dz2     :     0.003246  d :     0.027817
      dxz     :     0.008421
      dyz     :     0.001071
      dx2y2   :     0.010716
      dxy     :     0.004362

  8 H s       :     0.769675  s :     0.769675
      pz      :     0.003408  p :     0.019466
      px      :     0.005635
      py      :     0.010423

  9 H s       :     0.769681  s :     0.769681
      pz      :     0.003408  p :     0.019466
      px      :     0.005637
      py      :     0.010421

 10 H s       :     0.769669  s :     0.769669
      pz      :     0.003409  p :     0.019468
      px      :     0.005637
      py      :     0.010422

 11 H s       :     0.769651  s :     0.769651
      pz      :     0.003408  p :     0.019465
      px      :     0.005636
      py      :     0.010421


------------------------
MULLIKEN OVERLAP CHARGES
------------------------
B(  0-C ,  1-C ) :   0.0652 B(  0-C ,  4-C ) :   0.2985 B(  0-C ,  5-C ) :  -0.5378 
B(  0-C ,  6-C ) :   0.6815 B(  0-C ,  7-O ) :  -0.1927 B(  0-C ,  8-H ) :   0.7770 
B(  1-C ,  2-C ) :   0.6816 B(  1-C ,  3-O ) :  -0.1928 B(  1-C ,  4-C ) :  -0.5379 
B(  1-C ,  5-C ) :   0.2984 B(  1-C ,  9-H ) :   0.7770 B(  2-C ,  3-O ) :   1.0261 
B(  2-C ,  4-C ) :   0.6817 B(  2-C ,  9-H ) :  -0.0504 B(  2-C , 10-H ) :  -0.0504 
B(  3-O ,  4-C ) :  -0.1927 B(  4-C ,  5-C ) :   0.0659 B(  4-C , 10-H ) :   0.7770 
B(  5-C ,  6-C ) :   0.6818 B(  5-C ,  7-O ) :  -0.1927 B(  5-C , 11-H ) :   0.7770 
B(  6-C ,  7-O ) :   1.0259 B(  6-C ,  8-H ) :  -0.0504 B(  6-C , 11-H ) :  -0.0504 



                     *******************************
                     * LOEWDIN POPULATION ANALYSIS *
                     *******************************

----------------------
LOEWDIN ATOMIC CHARGES
----------------------
   0 C :   -0.086503
   1 C :   -0.086487
   2 C :    0.244712
   3 O :   -0.470319
   4 C :   -0.086475
   5 C :   -0.086484
   6 C :    0.244777
   7 O :   -0.470395
   8 H :    0.199292
   9 H :    0.199293
  10 H :    0.199283
  11 H :    0.199305

-------------------------------
LOEWDIN REDUCED ORBITAL CHARGES
-------------------------------
  0 C s       :     2.922544  s :     2.922544
      pz      :     0.908459  p :     3.088766
      px      :     1.101693
      py      :     1.078615
      dz2     :     0.006082  d :     0.075193
      dxz     :     0.009068
      dyz     :     0.002539
      dx2y2   :     0.024476
      dxy     :     0.033028

  1 C s       :     2.922519  s :     2.922519
      pz      :     0.908442  p :     3.088766
      px      :     1.101701
      py      :     1.078623
      dz2     :     0.006083  d :     0.075202
      dxz     :     0.009069
      dyz     :     0.002540
      dx2y2   :     0.024479
      dxy     :     0.033031

  2 C s       :     2.804946  s :     2.804946
      pz      :     0.720976  p :     2.750155
      px      :     0.993389
      py      :     1.035790
      dz2     :     0.012314  d :     0.200187
      dxz     :     0.028977
      dyz     :     0.008619
      dx2y2   :     0.052385
      dxy     :     0.097891

  3 O s       :     3.562454  s :     3.562454
      pz      :     1.342567  p :     4.680060
      px      :     1.514368
      py      :     1.823125
      dz2     :     0.028595  d :     0.227805
      dxz     :     0.039930
      dyz     :     0.003464
      dx2y2   :     0.066004
      dxy     :     0.089811

  4 C s       :     2.922598  s :     2.922598
      pz      :     0.908434  p :     3.088709
      px      :     1.101637
      py      :     1.078638
      dz2     :     0.006082  d :     0.075168
      dxz     :     0.009062
      dyz     :     0.002539
      dx2y2   :     0.024471
      dxy     :     0.033015

  5 C s       :     2.922621  s :     2.922621
      pz      :     0.908447  p :     3.088696
      px      :     1.101631
      py      :     1.078618
      dz2     :     0.006081  d :     0.075167
      dxz     :     0.009062
      dyz     :     0.002539
      dx2y2   :     0.024474
      dxy     :     0.033011

  6 C s       :     2.804996  s :     2.804996
      pz      :     0.720967  p :     2.750102
      px      :     0.993347
      py      :     1.035787
      dz2     :     0.012312  d :     0.200126
      dxz     :     0.028967
      dyz     :     0.008617
      dx2y2   :     0.052374
      dxy     :     0.097856

  7 O s       :     3.562539  s :     3.562539
      pz      :     1.342607  p :     4.680090
      px      :     1.514314
      py      :     1.823169
      dz2     :     0.028591  d :     0.227766
      dxz     :     0.039924
      dyz     :     0.003463
      dx2y2   :     0.065998
      dxy     :     0.089790

  8 H s       :     0.754417  s :     0.754417
      pz      :     0.007680  p :     0.046291
      px      :     0.013242
      py      :     0.025369

  9 H s       :     0.754415  s :     0.754415
      pz      :     0.007680  p :     0.046292
      px      :     0.013247
      py      :     0.025364

 10 H s       :     0.754420  s :     0.754420
      pz      :     0.007681  p :     0.046297
      px      :     0.013248
      py      :     0.025367

 11 H s       :     0.754404  s :     0.754404
      pz      :     0.007679  p :     0.046290
      px      :     0.013246
      py      :     0.025365


---------------------------------
LOEWDIN BOND ORDERS (THRESH 0.050000)
---------------------------------
B(  0-C ,  1-C ) :   1.8531 B(  0-C ,  2-C ) :   0.1053 B(  0-C ,  3-O ) :   0.0799 
B(  0-C ,  5-C ) :   0.0818 B(  0-C ,  6-C ) :   1.0284 B(  0-C ,  7-O ) :   0.2086 
B(  0-C ,  8-H ) :   0.8530 B(  0-C ,  9-H ) :   0.0602 B(  1-C ,  2-C ) :   1.0285 
B(  1-C ,  3-O ) :   0.2087 B(  1-C ,  4-C ) :   0.0818 B(  1-C ,  6-C ) :   0.1053 
B(  1-C ,  7-O ) :   0.0798 B(  1-C ,  8-H ) :   0.0602 B(  1-C ,  9-H ) :   0.8530 
B(  2-C ,  3-O ) :   2.2642 B(  2-C ,  4-C ) :   1.0285 B(  2-C ,  5-C ) :   0.1052 
B(  3-O ,  4-C ) :   0.2087 B(  3-O ,  5-C ) :   0.0799 B(  3-O ,  7-O ) :   0.0552 
B(  4-C ,  5-C ) :   1.8530 B(  4-C ,  6-C ) :   0.1053 B(  4-C ,  7-O ) :   0.0799 
B(  4-C , 10-H ) :   0.8531 B(  4-C , 11-H ) :   0.0602 B(  5-C ,  6-C ) :   1.0285 
B(  5-C ,  7-O ) :   0.2087 B(  5-C , 10-H ) :   0.0602 B(  5-C , 11-H ) :   0.8531 
B(  6-C ,  7-O ) :   2.2641 

------------------------------------------
LOEWDIN REDUCED ORBITAL POPULATIONS PER MO
-------------------------------------------
THRESHOLD FOR PRINTING IS 0.1%%
                      0         1         2         3         4         5   
                 -18.97107 -18.97107 -10.14413 -10.14410 -10.06666 -10.06661
                   2.00000   2.00000   2.00000   2.00000   2.00000   2.00000
                  --------  --------  --------  --------  --------  --------
 0 C  s               0.0       0.0       0.0       0.0       1.3      49.8
 1 C  s               0.0       0.0       0.0       0.0       1.2      47.3
 2 C  s               0.0       0.0       0.9      98.2       0.0       0.0
 3 O  s               1.1      98.8       0.0       0.0       0.0       0.0
 3 O  px              0.0       0.0       0.0       0.2       0.0       0.0
 3 O  dx2y2           0.0       0.0       0.0       0.3       0.0       0.0
 4 C  s               0.0       0.0       0.0       0.0      47.5       1.2
 5 C  s               0.0       0.0       0.0       0.0      49.6       1.3
 6 C  s               0.0       0.0      98.2       0.9       0.0       0.0
 7 O  s              98.8       1.1       0.0       0.0       0.0       0.0
 7 O  px              0.0       0.0       0.2       0.0       0.0       0.0
 7 O  dx2y2           0.0       0.0       0.3       0.0       0.0       0.0

                      6         7         8         9        10        11   
                 -10.06594 -10.06590  -1.03448  -1.03275  -0.82720  -0.75379
                   2.00000   2.00000   2.00000   2.00000   2.00000   2.00000
                  --------  --------  --------  --------  --------  --------
 0 C  s               0.0      48.5       1.0       0.3      12.3      14.8
 0 C  px              0.0       0.1       0.2       1.0       1.9       2.4
 0 C  py              0.0       0.0       0.7       0.4       1.2       0.4
 0 C  dz2             0.0       0.0       0.0       0.0       0.1       0.1
 0 C  dx2y2           0.0       0.0       0.0       0.0       0.0       0.1
 1 C  s               0.0      51.1       1.0       0.3      12.3      14.8
 1 C  px              0.0       0.1       0.2       1.0       1.9       2.4
 1 C  py              0.0       0.0       0.7       0.4       1.2       0.4
 1 C  dz2             0.0       0.0       0.0       0.0       0.1       0.1
 1 C  dx2y2           0.0       0.0       0.0       0.0       0.0       0.1
 2 C  s               0.0       0.0       9.5       7.8       4.2       0.0
 2 C  px              0.0       0.0       6.0       6.9       8.9       0.0
 2 C  py              0.0       0.0       0.0       0.0       0.0       8.4
 2 C  dz2             0.0       0.0       0.3       0.3       0.0       0.0
 2 C  dx2y2           0.0       0.0       0.6       0.6       0.1       0.0
 2 C  dxy             0.0       0.0       0.0       0.0       0.0       0.2
 3 O  s               0.0       0.0      27.8      26.3       2.4       0.0
 3 O  px              0.0       0.0       3.1       2.9       0.5       0.0
 3 O  py              0.0       0.0       0.0       0.0       0.0       0.3
 3 O  dz2             0.0       0.0       0.1       0.1       0.2       0.0
 3 O  dx2y2           0.0       0.0       0.2       0.2       0.2       0.0
 3 O  dxy             0.0       0.0       0.0       0.0       0.0       0.5
 4 C  s              50.9       0.0       1.0       0.3      12.3      14.8
 4 C  px              0.1       0.0       0.2       1.0       1.9       2.4
 4 C  py              0.0       0.0       0.7       0.4       1.2       0.4
 4 C  dz2             0.0       0.0       0.0       0.0       0.1       0.1
 4 C  dx2y2           0.0       0.0       0.0       0.0       0.0       0.1
 5 C  s              48.8       0.0       1.0       0.3      12.3      14.8
 5 C  px              0.1       0.0       0.2       1.0       1.9       2.4
 5 C  py              0.0       0.0       0.7       0.4       1.2       0.4
 5 C  dz2             0.0       0.0       0.0       0.0       0.1       0.1
 5 C  dx2y2           0.0       0.0       0.0       0.0       0.0       0.1
 6 C  s               0.0       0.0       8.9       8.4       4.2       0.0
 6 C  px              0.0       0.0       5.6       7.3       8.9       0.0
 6 C  py              0.0       0.0       0.0       0.0       0.0       8.4
 6 C  dz2             0.0       0.0       0.3       0.3       0.0       0.0
 6 C  dx2y2           0.0       0.0       0.5       0.6       0.1       0.0
 6 C  dxy             0.0       0.0       0.0       0.0       0.0       0.2
 7 O  s               0.0       0.0      26.0      28.1       2.4       0.0
 7 O  px              0.0       0.0       2.9       3.1       0.5       0.0
 7 O  py              0.0       0.0       0.0       0.0       0.0       0.3
 7 O  dz2             0.0       0.0       0.1       0.1       0.2       0.0
 7 O  dx2y2           0.0       0.0       0.2       0.2       0.2       0.0
 7 O  dxy             0.0       0.0       0.0       0.0       0.0       0.5
 8 H  s               0.0       0.0       0.1       0.0       1.1       2.2
 8 H  py              0.0       0.0       0.0       0.0       0.1       0.1
 9 H  s               0.0       0.0       0.1       0.0       1.1       2.2
 9 H  py              0.0       0.0       0.0       0.0       0.1       0.1
10 H  s               0.0       0.0       0.1       0.0       1.1       2.2
10 H  py              0.0       0.0       0.0       0.0       0.1       0.1
11 H  s               0.0       0.0       0.1       0.0       1.1       2.2
11 H  py              0.0       0.0       0.0       0.0       0.1       0.1

                     12        13        14        15        16        17   
                  -0.67877  -0.60426  -0.57134  -0.48199  -0.47871  -0.45218
                   2.00000   2.00000   2.00000   2.00000   2.00000   2.00000
                  --------  --------  --------  --------  --------  --------
 0 C  s               4.9       6.1       2.3       0.1       0.2       1.9
 0 C  px              4.5       5.8       2.9      10.9       5.2       1.5
 0 C  py              1.3       0.1      10.2       1.8       4.0       2.5
 0 C  dx2y2           0.2       0.0       0.2       0.1       0.0       0.0
 0 C  dxy             0.1       0.0       0.0       0.0       0.0       0.2
 1 C  s               4.9       6.1       2.3       0.1       0.2       1.9
 1 C  px              4.5       5.8       2.9      10.9       5.2       1.5
 1 C  py              1.3       0.1      10.2       1.8       4.0       2.5
 1 C  dx2y2           0.2       0.0       0.2       0.1       0.0       0.0
 1 C  dxy             0.1       0.0       0.0       0.0       0.0       0.2
 2 C  s               8.9       0.0       5.2       0.0       1.0       2.6
 2 C  px              7.6       0.0       2.1       0.0       2.4       1.7
 2 C  py              0.0      15.0       0.0      14.3       0.0       0.0
 2 C  dx2y2           0.4       0.0       0.0       0.0       0.2       0.1
 2 C  dxy             0.0       0.1       0.0       0.0       0.0       0.0
 3 O  s               4.8       0.0       2.4       0.0       5.9       4.2
 3 O  px              2.9       0.0       3.4       0.0      15.5      19.6
 3 O  py              0.0       2.4       0.0       8.3       0.0       0.0
 3 O  dz2             0.5       0.0       0.1       0.0       0.1       0.1
 3 O  dx2y2           0.8       0.0       0.6       0.0       0.1       0.3
 3 O  dxy             0.0       1.3       0.0       1.2       0.0       0.0
 4 C  s               4.9       6.1       2.3       0.1       0.2       1.9
 4 C  px              4.5       5.8       2.9      10.9       5.2       1.5
 4 C  py              1.3       0.1      10.2       1.9       4.0       2.5
 4 C  dx2y2           0.2       0.0       0.2       0.1       0.0       0.0
 4 C  dxy             0.1       0.0       0.0       0.0       0.0       0.2
 5 C  s               4.9       6.1       2.3       0.1       0.2       1.9
 5 C  px              4.5       5.8       2.9      10.9       5.2       1.5
 5 C  py              1.3       0.1      10.2       1.9       4.0       2.5
 5 C  dx2y2           0.2       0.0       0.2       0.1       0.0       0.0
 5 C  dxy             0.1       0.0       0.0       0.0       0.0       0.2
 6 C  s               8.9       0.0       5.2       0.0       1.0       2.6
 6 C  px              7.6       0.0       2.1       0.0       2.4       1.7
 6 C  py              0.0      15.0       0.0      14.3       0.0       0.0
 6 C  dx2y2           0.4       0.0       0.0       0.0       0.2       0.1
 6 C  dxy             0.0       0.1       0.0       0.0       0.0       0.0
 7 O  s               4.8       0.0       2.4       0.0       5.9       4.2
 7 O  px              2.9       0.0       3.4       0.0      15.5      19.6
 7 O  py              0.0       2.4       0.0       8.3       0.0       0.0
 7 O  dz2             0.5       0.0       0.1       0.0       0.1       0.1
 7 O  dx2y2           0.8       0.0       0.6       0.0       0.1       0.3
 7 O  dxy             0.0       1.3       0.0       1.2       0.0       0.0
 8 H  s               1.1       3.2       2.3       0.1       2.8       4.3
 8 H  px              0.0       0.0       0.1       0.1       0.0       0.0
 8 H  py              0.1       0.2       0.1       0.0       0.1       0.1
 9 H  s               1.1       3.2       2.3       0.1       2.8       4.3
 9 H  px              0.0       0.0       0.1       0.1       0.0       0.0
 9 H  py              0.1       0.2       0.1       0.0       0.1       0.1
10 H  s               1.1       3.2       2.3       0.1       2.8       4.3
10 H  px              0.0       0.0       0.1       0.1       0.0       0.0
10 H  py              0.1       0.2       0.1       0.0       0.1       0.1
11 H  s               1.1       3.2       2.3       0.1       2.8       4.3
11 H  px              0.0       0.0       0.1       0.1       0.0       0.0
11 H  py              0.1       0.2       0.1       0.0       0.1       0.1

                     18        19        20        21        22        23   
                  -0.42013  -0.41951  -0.41198  -0.39294  -0.39140  -0.36244
                   2.00000   2.00000   2.00000   2.00000   2.00000   2.00000
                  --------  --------  --------  --------  --------  --------
 0 C  s               0.0       0.3       0.2       0.0       0.3       0.6
 0 C  pz              7.2       0.0       0.0       1.3       0.0       0.0
 0 C  px              0.0       4.2       0.6       0.0      10.1       0.3
 0 C  py              0.0      12.5       6.9       0.0       0.0       6.3
 0 C  dx2y2           0.0       0.1       0.1       0.0       0.3       0.1
 0 C  dxy             0.0       0.0       0.3       0.0       0.0       0.6
 1 C  s               0.0       0.3       0.2       0.0       0.3       0.6
 1 C  pz              7.3       0.0       0.0       1.3       0.0       0.0
 1 C  px              0.0       4.2       0.5       0.0      10.1       0.3
 1 C  py              0.0      12.5       6.8       0.0       0.0       6.3
 1 C  dx2y2           0.0       0.1       0.1       0.0       0.3       0.1
 1 C  dxy             0.0       0.0       0.3       0.0       0.0       0.6
 2 C  s               0.0       0.0       1.1       0.0       0.7       0.0
 2 C  pz             18.1       0.0       0.0      17.8       0.0       0.0
 2 C  px              0.0       0.0       8.7       0.0       5.3       0.0
 2 C  py              0.0       2.1       0.0       0.0       0.0       7.7
 2 C  dxz             0.1       0.0       0.0       0.3       0.0       0.0
 2 C  dx2y2           0.0       0.0       0.0       0.0       0.6       0.0
 2 C  dxy             0.0       0.3       0.0       0.0       0.0       0.1
 3 O  s               0.0       0.0       2.6       0.0       1.7       0.0
 3 O  pz             16.2       0.0       0.0      28.0       0.0       0.0
 3 O  px              0.0       0.0      12.2       0.0      15.3       0.0
 3 O  py              0.0       0.1       0.0       0.0       0.0      14.3
 3 O  dz2             0.0       0.0       0.0       0.0       0.2       0.0
 3 O  dxz             1.0       0.0       0.0       1.0       0.0       0.0
 3 O  dx2y2           0.0       0.0       0.5       0.0       0.1       0.0
 3 O  dxy             0.0       0.0       0.0       0.0       0.0       0.2
 4 C  s               0.0       0.3       0.2       0.0       0.3       0.6
 4 C  pz              7.3       0.0       0.0       1.3       0.0       0.0
 4 C  px              0.0       4.2       0.6       0.0      10.1       0.3
 4 C  py              0.0      12.5       6.9       0.0       0.0       6.3
 4 C  dx2y2           0.0       0.1       0.1       0.0       0.3       0.1
 4 C  dxy             0.0       0.0       0.3       0.0       0.0       0.6
 5 C  s               0.0       0.3       0.2       0.0       0.3       0.6
 5 C  pz              7.2       0.0       0.0       1.3       0.0       0.0
 5 C  px              0.0       4.2       0.5       0.0      10.1       0.3
 5 C  py              0.0      12.6       6.8       0.0       0.0       6.3
 5 C  dx2y2           0.0       0.1       0.1       0.0       0.3       0.1
 5 C  dxy             0.0       0.0       0.3       0.0       0.0       0.6
 6 C  s               0.0       0.0       1.1       0.0       0.7       0.0
 6 C  pz             18.0       0.0       0.0      17.8       0.0       0.0
 6 C  px              0.0       0.0       8.7       0.0       5.3       0.0
 6 C  py              0.0       2.1       0.0       0.0       0.0       7.7
 6 C  dxz             0.1       0.0       0.0       0.3       0.0       0.0
 6 C  dx2y2           0.0       0.0       0.0       0.0       0.6       0.0
 6 C  dxy             0.0       0.3       0.0       0.0       0.0       0.1
 7 O  s               0.0       0.0       2.6       0.0       1.7       0.0
 7 O  pz             16.2       0.0       0.0      28.0       0.0       0.0
 7 O  px              0.0       0.0      12.2       0.0      15.3       0.0
 7 O  py              0.0       0.1       0.0       0.0       0.0      14.3
 7 O  dz2             0.0       0.0       0.0       0.0       0.2       0.0
 7 O  dxz             1.0       0.0       0.0       1.0       0.0       0.0
 7 O  dx2y2           0.0       0.0       0.5       0.0       0.1       0.0
 7 O  dxy             0.0       0.0       0.0       0.0       0.0       0.2
 8 H  s               0.0       6.4       4.3       0.0       2.3       5.9
 8 H  py              0.0       0.1       0.1       0.0       0.1       0.0
 9 H  s               0.0       6.4       4.3       0.0       2.3       5.9
 9 H  py              0.0       0.1       0.1       0.0       0.1       0.0
10 H  s               0.0       6.4       4.3       0.0       2.3       5.9
10 H  py              0.0       0.1       0.1       0.0       0.1       0.0
11 H  s               0.0       6.4       4.3       0.0       2.3       5.9
11 H  py              0.0       0.1       0.1       0.0       0.1       0.0

                     24        25        26        27        28        29   
                  -0.29235  -0.27671  -0.25563  -0.24395  -0.16270  -0.04936
                   2.00000   2.00000   2.00000   2.00000   0.00000   0.00000
                  --------  --------  --------  --------  --------  --------
 0 C  s               0.0       0.0       0.3       0.9       0.0       0.0
 0 C  pz             12.6      24.2       0.0       0.0       8.1      22.4
 0 C  px              0.0       0.0       3.0       0.5       0.0       0.0
 0 C  py              0.0       0.0       1.4       4.2       0.0       0.0
 0 C  dxz             0.2       0.2       0.0       0.0       0.3       0.6
 0 C  dxy             0.0       0.0       0.0       0.3       0.0       0.0
 1 C  s               0.0       0.0       0.3       0.9       0.0       0.0
 1 C  pz             12.6      24.2       0.0       0.0       8.1      22.4
 1 C  px              0.0       0.0       3.0       0.5       0.0       0.0
 1 C  py              0.0       0.0       1.4       4.2       0.0       0.0
 1 C  dxz             0.2       0.2       0.0       0.0       0.3       0.6
 1 C  dxy             0.0       0.0       0.0       0.3       0.0       0.0
 2 C  pz              0.2       0.0       0.0       0.0      11.5       0.0
 2 C  py              0.0       0.0       0.7       3.5       0.0       0.0
 2 C  dxz             1.1       0.0       0.0       0.0       1.2       0.0
 2 C  dyz             0.0       0.4       0.0       0.0       0.0       1.1
 2 C  dxy             0.0       0.0       1.9       2.2       0.0       0.0
 3 O  pz             22.9       0.0       0.0       0.0      17.8       0.0
 3 O  py              0.0       0.0      37.0      28.8       0.0       0.0
 3 O  dxz             0.1       0.0       0.0       0.0       2.3       0.0
 3 O  dyz             0.0       0.2       0.0       0.0       0.0       1.5
 3 O  dxy             0.0       0.0       0.7       0.7       0.0       0.0
 4 C  s               0.0       0.0       0.3       0.9       0.0       0.0
 4 C  pz             12.6      24.3       0.0       0.0       8.1      22.4
 4 C  px              0.0       0.0       3.0       0.5       0.0       0.0
 4 C  py              0.0       0.0       1.4       4.2       0.0       0.0
 4 C  dxz             0.2       0.2       0.0       0.0       0.3       0.6
 4 C  dxy             0.0       0.0       0.0       0.3       0.0       0.0
 5 C  s               0.0       0.0       0.3       0.9       0.0       0.0
 5 C  pz             12.6      24.3       0.0       0.0       8.1      22.4
 5 C  px              0.0       0.0       3.0       0.5       0.0       0.0
 5 C  py              0.0       0.0       1.4       4.2       0.0       0.0
 5 C  dxz             0.2       0.2       0.0       0.0       0.3       0.6
 5 C  dxy             0.0       0.0       0.0       0.3       0.0       0.0
 6 C  pz              0.2       0.0       0.0       0.0      11.5       0.0
 6 C  py              0.0       0.0       0.7       3.5       0.0       0.0
 6 C  dxz             1.1       0.0       0.0       0.0       1.2       0.0
 6 C  dyz             0.0       0.4       0.0       0.0       0.0       1.1
 6 C  dxy             0.0       0.0       1.9       2.2       0.0       0.0
 7 O  pz             22.9       0.0       0.0       0.0      17.9       0.0
 7 O  py              0.0       0.0      37.0      28.8       0.0       0.0
 7 O  dxz             0.1       0.0       0.0       0.0       2.3       0.0
 7 O  dyz             0.0       0.2       0.0       0.0       0.0       1.5
 7 O  dxy             0.0       0.0       0.7       0.7       0.0       0.0
 8 H  s               0.0       0.0       0.1       1.5       0.0       0.0
 8 H  pz              0.1       0.2       0.0       0.0       0.1       0.7
 9 H  s               0.0       0.0       0.1       1.5       0.0       0.0
 9 H  pz              0.1       0.2       0.0       0.0       0.1       0.7
10 H  s               0.0       0.0       0.1       1.5       0.0       0.0
10 H  pz              0.1       0.2       0.0       0.0       0.1       0.7
11 H  s               0.0       0.0       0.1       1.5       0.0       0.0
11 H  pz              0.1       0.2       0.0       0.0       0.1       0.7

                     30        31        32        33        34        35   
                  -0.01986   0.10371   0.10383   0.10887   0.12315   0.12382
                   0.00000   0.00000   0.00000   0.00000   0.00000   0.00000
                  --------  --------  --------  --------  --------  --------
 0 C  s               0.0       0.1      11.2       5.0       3.5       3.8
 0 C  pz              4.2      13.0       0.1       0.0       0.0       0.0
 0 C  px              0.0       0.0       0.6       0.5       6.7       2.5
 0 C  py              0.0       0.0       2.8       3.7       0.4      10.0
 0 C  dz2             0.0       0.0       0.0       0.7       0.0       0.0
 0 C  dxz             0.4       0.2       0.0       0.0       0.0       0.0
 0 C  dyz             0.6       0.4       0.0       0.0       0.0       0.0
 0 C  dx2y2           0.0       0.0       0.4       0.4       0.2       0.0
 0 C  dxy             0.0       0.0       0.3       0.3       0.0       1.2
 1 C  s               0.0       0.1      11.2       5.0       3.6       3.7
 1 C  pz              4.2      13.0       0.1       0.0       0.0       0.0
 1 C  px              0.0       0.0       0.6       0.5       6.8       2.4
 1 C  py              0.0       0.0       2.8       3.7       0.5       9.9
 1 C  dz2             0.0       0.0       0.0       0.7       0.0       0.0
 1 C  dxz             0.4       0.2       0.0       0.0       0.0       0.0
 1 C  dyz             0.6       0.4       0.0       0.0       0.0       0.0
 1 C  dx2y2           0.0       0.0       0.4       0.4       0.2       0.0
 1 C  dxy             0.0       0.0       0.3       0.3       0.0       1.2
 2 C  s               0.0       0.0       5.0       7.6       7.5       0.0
 2 C  pz             25.5      16.4       0.1       0.0       0.0       0.0
 2 C  px              0.0       0.0       1.7       4.7       9.1       0.0
 2 C  py              0.0       0.0       0.0       0.0       0.0       4.1
 2 C  dz2             0.0       0.0       0.3       0.9       1.0       0.0
 2 C  dxz             0.3       0.0       0.0       0.0       0.0       0.0
 2 C  dx2y2           0.0       0.0       1.0       1.0       0.2       0.0
 2 C  dxy             0.0       0.0       0.0       0.0       0.0       0.3
 3 O  s               0.0       0.0       0.0       3.1       4.3       0.0
 3 O  pz              9.6       2.4       0.0       0.0       0.0       0.0
 3 O  px              0.0       0.0       0.4       1.3       1.5       0.0
 3 O  py              0.0       0.0       0.0       0.0       0.0       0.2
 3 O  dz2             0.0       0.0       1.1       1.7       1.5       0.0
 3 O  dxz             3.8       2.1       0.0       0.0       0.0       0.0
 3 O  dx2y2           0.0       0.0       0.3       0.1       0.7       0.0
 3 O  dxy             0.0       0.0       0.0       0.0       0.0       0.8
 4 C  s               0.0       0.1      11.2       5.0       3.5       3.8
 4 C  pz              4.2      13.0       0.1       0.0       0.0       0.0
 4 C  px              0.0       0.0       0.6       0.5       6.7       2.5
 4 C  py              0.0       0.0       2.8       3.7       0.4      10.0
 4 C  dz2             0.0       0.0       0.0       0.7       0.0       0.0
 4 C  dxz             0.4       0.2       0.0       0.0       0.0       0.0
 4 C  dyz             0.6       0.4       0.0       0.0       0.0       0.0
 4 C  dx2y2           0.0       0.0       0.4       0.4       0.2       0.0
 4 C  dxy             0.0       0.0       0.3       0.3       0.0       1.2
 5 C  s               0.0       0.1      11.2       5.0       3.6       3.7
 5 C  pz              4.2      13.0       0.1       0.0       0.0       0.0
 5 C  px              0.0       0.0       0.6       0.5       6.8       2.4
 5 C  py              0.0       0.0       2.8       3.7       0.5       9.9
 5 C  dz2             0.0       0.0       0.0       0.7       0.0       0.0
 5 C  dxz             0.4       0.2       0.0       0.0       0.0       0.0
 5 C  dyz             0.6       0.4       0.0       0.0       0.0       0.0
 5 C  dx2y2           0.0       0.0       0.4       0.4       0.2       0.0
 5 C  dxy             0.0       0.0       0.3       0.3       0.0       1.2
 6 C  s               0.0       0.0       5.0       7.6       7.5       0.0
 6 C  pz             25.6      16.4       0.1       0.0       0.0       0.0
 6 C  px              0.0       0.0       1.7       4.7       9.1       0.0
 6 C  py              0.0       0.0       0.0       0.0       0.0       4.1
 6 C  dz2             0.0       0.0       0.3       0.9       1.0       0.0
 6 C  dxz             0.3       0.0       0.0       0.0       0.0       0.0
 6 C  dx2y2           0.0       0.0       1.0       1.0       0.2       0.0
 6 C  dxy             0.0       0.0       0.0       0.0       0.0       0.3
 7 O  s               0.0       0.0       0.0       3.1       4.3       0.0
 7 O  pz              9.6       2.4       0.0       0.0       0.0       0.0
 7 O  px              0.0       0.0       0.4       1.3       1.5       0.0
 7 O  py              0.0       0.0       0.0       0.0       0.0       0.2
 7 O  dz2             0.0       0.0       1.1       1.7       1.5       0.0
 7 O  dxz             3.8       2.1       0.0       0.0       0.0       0.0
 7 O  dx2y2           0.0       0.0       0.3       0.1       0.7       0.0
 7 O  dxy             0.0       0.0       0.0       0.0       0.0       0.8
 8 H  s               0.0       0.0       2.9       3.6       0.6       3.1
 8 H  pz              0.2       0.8       0.0       0.0       0.0       0.0
 8 H  px              0.0       0.0       0.2       0.0       0.3       0.8
 8 H  py              0.0       0.0       1.4       0.5       0.2       1.0
 9 H  s               0.0       0.0       2.9       3.6       0.6       3.1
 9 H  pz              0.2       0.8       0.0       0.0       0.0       0.0
 9 H  px              0.0       0.0       0.2       0.0       0.3       0.8
 9 H  py              0.0       0.0       1.4       0.5       0.2       1.0
10 H  s               0.0       0.0       2.9       3.6       0.6       3.1
10 H  pz              0.2       0.8       0.0       0.0       0.0       0.0
10 H  px              0.0       0.0       0.2       0.0       0.3       0.8
10 H  py              0.0       0.0       1.4       0.5       0.2       1.0
11 H  s               0.0       0.0       2.9       3.6       0.6       3.1
11 H  pz              0.2       0.8       0.0       0.0       0.0       0.0
11 H  px              0.0       0.0       0.2       0.0       0.3       0.8
11 H  py              0.0       0.0       1.4       0.5       0.2       1.0

                     36        37        38        39        40        41   
                   0.14513   0.17110   0.17481   0.20323   0.20447   0.21264
                   0.00000   0.00000   0.00000   0.00000   0.00000   0.00000
                  --------  --------  --------  --------  --------  --------
 0 C  s               1.2       2.0       3.8       5.3       0.0       1.5
 0 C  pz              0.0       0.0       0.0       0.0      14.8       0.0
 0 C  px              3.1       2.3       5.6       3.4       0.0       6.0
 0 C  py              4.7       5.8       6.7       7.0       0.0       0.2
 0 C  dz2             0.1       0.3       0.3       0.2       0.0       0.9
 0 C  dx2y2           0.6       0.7       0.1       0.1       0.0       0.0
 0 C  dxy             2.5       0.0       0.0       1.7       0.0       0.1
 1 C  s               1.2       2.0       3.8       5.3       0.0       1.5
 1 C  pz              0.0       0.0       0.0       0.0      14.8       0.0
 1 C  px              3.1       2.3       5.6       3.4       0.0       6.0
 1 C  py              4.7       5.8       6.7       7.0       0.0       0.2
 1 C  dz2             0.1       0.3       0.3       0.2       0.0       0.9
 1 C  dx2y2           0.6       0.7       0.1       0.1       0.0       0.0
 1 C  dxy             2.5       0.0       0.0       1.7       0.0       0.1
 2 C  s               8.7       2.0       0.0       0.0       0.0       4.9
 2 C  pz              0.0       0.0       0.0       0.0      18.9       0.0
 2 C  px              2.1       5.0       0.0       0.0       0.0      16.6
 2 C  py              0.0       0.0       3.6       4.1       0.0       0.0
 2 C  dz2             1.4       0.0       0.0       0.0       0.0       0.3
 2 C  dx2y2           0.0       1.7       0.0       0.0       0.0       0.1
 2 C  dxy             0.0       0.0       0.0       0.3       0.0       0.0
 3 O  s               0.3       1.4       0.0       0.0       0.0       4.1
 3 O  pz              0.0       0.0       0.0       0.0       1.1       0.0
 3 O  px              1.8       0.8       0.0       0.0       0.0       2.4
 3 O  py              0.0       0.0       4.8       1.1       0.0       0.0
 3 O  dz2             0.3       0.4       0.0       0.0       0.0       0.0
 3 O  dxz             0.0       0.0       0.0       0.0       0.3       0.0
 3 O  dx2y2           6.0       0.0       0.0       0.0       0.0       0.1
 3 O  dxy             0.0       0.0       0.1       0.5       0.0       0.0
 4 C  s               1.2       2.0       3.8       5.3       0.0       1.5
 4 C  pz              0.0       0.0       0.0       0.0      14.8       0.0
 4 C  px              3.1       2.3       5.6       3.4       0.0       6.0
 4 C  py              4.7       5.8       6.6       7.0       0.0       0.2
 4 C  dz2             0.1       0.3       0.3       0.2       0.0       0.9
 4 C  dx2y2           0.6       0.7       0.1       0.1       0.0       0.0
 4 C  dxy             2.5       0.0       0.0       1.7       0.0       0.1
 5 C  s               1.2       2.0       3.8       5.3       0.0       1.5
 5 C  pz              0.0       0.0       0.0       0.0      14.8       0.0
 5 C  px              3.1       2.3       5.6       3.4       0.0       6.0
 5 C  py              4.7       5.8       6.6       7.0       0.0       0.2
 5 C  dz2             0.1       0.3       0.3       0.2       0.0       0.9
 5 C  dx2y2           0.6       0.7       0.1       0.1       0.0       0.0
 5 C  dxy             2.5       0.0       0.0       1.7       0.0       0.1
 6 C  s               8.7       2.0       0.0       0.0       0.0       4.9
 6 C  pz              0.0       0.0       0.0       0.0      18.9       0.0
 6 C  px              2.1       5.0       0.0       0.0       0.0      16.6
 6 C  py              0.0       0.0       3.6       4.1       0.0       0.0
 6 C  dz2             1.4       0.0       0.0       0.0       0.0       0.3
 6 C  dx2y2           0.0       1.7       0.0       0.0       0.0       0.1
 6 C  dxy             0.0       0.0       0.0       0.3       0.0       0.0
 7 O  s               0.3       1.4       0.0       0.0       0.0       4.1
 7 O  pz              0.0       0.0       0.0       0.0       1.1       0.0
 7 O  px              1.8       0.8       0.0       0.0       0.0       2.4
 7 O  py              0.0       0.0       4.8       1.1       0.0       0.0
 7 O  dz2             0.3       0.4       0.0       0.0       0.0       0.0
 7 O  dxz             0.0       0.0       0.0       0.0       0.3       0.0
 7 O  dx2y2           6.1       0.0       0.0       0.0       0.0       0.1
 7 O  dxy             0.0       0.0       0.1       0.5       0.0       0.0
 8 H  s               1.2       6.4       2.6       3.6       0.0       1.7
 8 H  px              1.3       0.2       1.0       0.6       0.0       0.1
 8 H  py              0.0       1.7       0.7       0.0       0.0       0.3
 9 H  s               1.2       6.4       2.6       3.6       0.0       1.7
 9 H  px              1.3       0.2       1.0       0.6       0.0       0.1
 9 H  py              0.0       1.7       0.7       0.0       0.0       0.3
[...]
 9 H  s               2.7       0.8       0.1       0.4       2.1       0.3
 9 H  px              4.3       0.9       0.0       0.0       3.8       0.4
 9 H  py              9.4       2.6       0.1       2.2       5.7       1.8
10 H  s               2.7       0.8       0.1       0.4       2.2       0.3
10 H  px              4.3       0.9       0.0       0.0       3.8       0.4
10 H  py              9.5       2.5       0.1       2.1       5.8       1.8
11 H  s               2.7       0.8       0.1       0.4       2.1       0.3
11 H  px              4.3       0.9       0.0       0.0       3.8       0.4
11 H  py              9.5       2.5       0.1       2.2       5.7       1.8

                    168       169       170       171       172       173   
                   3.51889   3.63637   3.74214   3.85369   4.31627   4.44344
                   0.00000   0.00000   0.00000   0.00000   0.00000   0.00000
                  --------  --------  --------  --------  --------  --------
 0 C  s               0.3       0.3       0.4       0.3       0.0       0.1
 0 C  px              0.0       1.0       0.2       0.7       0.0       0.2
 0 C  py              0.6       0.4       2.0       1.1       0.0       0.2
 0 C  dz2             0.0       0.4       0.1       0.2       0.0       0.1
 0 C  dx2y2           1.3       4.2       1.0       2.2       0.0       0.2
 0 C  dxy             0.6       1.4       7.9       7.3       0.0       0.7
 1 C  s               0.3       0.3       0.4       0.3       0.0       0.1
 1 C  px              0.0       1.0       0.2       0.7       0.0       0.2
 1 C  py              0.6       0.4       2.0       1.1       0.0       0.2
 1 C  dz2             0.0       0.4       0.1       0.2       0.0       0.1
 1 C  dx2y2           1.3       4.2       1.0       2.2       0.0       0.2
 1 C  dxy             0.6       1.4       7.9       7.3       0.0       0.7
 2 C  s               0.0       0.0       0.0       1.5       3.1       2.7
 2 C  px              0.0       0.0       0.0       0.2       3.9       4.1
 2 C  py              0.2       0.2       2.0       0.0       0.0       0.0
 2 C  dz2             0.0       0.0       0.0       0.1       0.8       0.7
 2 C  dx2y2           0.0       0.0       0.0       1.9       2.4       3.4
 2 C  dxy            13.4       5.7       8.7       0.0       0.0       0.0
 3 O  s               0.0       0.0       0.0       1.8       9.6       8.9
 3 O  px              0.0       0.0       0.0       2.1      11.5      10.4
 3 O  py              6.2       4.1       0.9       0.0       0.0       0.0
 3 O  dz2             0.0       0.0       0.0       1.1       4.4       3.6
 3 O  dx2y2           0.0       0.0       0.0       0.7      13.8      11.8
 3 O  dxy            23.3      11.5       4.2       0.0       0.0       0.0
 4 C  s               0.3       0.3       0.4       0.3       0.0       0.1
 4 C  px              0.0       1.0       0.2       0.7       0.0       0.2
 4 C  py              0.6       0.4       2.0       1.1       0.0       0.2
 4 C  dz2             0.0       0.4       0.1       0.2       0.0       0.1
 4 C  dx2y2           1.3       4.2       1.0       2.2       0.0       0.2
 4 C  dxy             0.6       1.4       7.9       7.3       0.0       0.7
 5 C  s               0.3       0.3       0.4       0.3       0.0       0.1
 5 C  px              0.0       1.0       0.2       0.7       0.0       0.2
 5 C  py              0.6       0.4       2.0       1.1       0.0       0.2
 5 C  dz2             0.0       0.4       0.1       0.2       0.0       0.1
 5 C  dx2y2           1.3       4.2       1.0       2.2       0.0       0.2
 5 C  dxy             0.6       1.4       7.9       7.3       0.0       0.7
 6 C  s               0.0       0.0       0.0       1.5       3.1       2.7
 6 C  px              0.0       0.0       0.0       0.2       3.9       4.1
 6 C  py              0.2       0.2       2.0       0.0       0.0       0.0
 6 C  dz2             0.0       0.0       0.0       0.1       0.9       0.7
 6 C  dx2y2           0.0       0.0       0.0       1.9       2.4       3.4
 6 C  dxy            13.4       5.7       8.7       0.0       0.0       0.0
 7 O  s               0.0       0.0       0.0       1.8       9.6       8.9
 7 O  px              0.0       0.0       0.0       2.1      11.6      10.4
 7 O  py              6.3       4.0       0.9       0.0       0.0       0.0
 7 O  dz2             0.0       0.0       0.0       1.1       4.5       3.6
 7 O  dx2y2           0.0       0.0       0.0       0.7      13.8      11.8
 7 O  dxy            23.3      11.4       4.1       0.0       0.0       0.0
 8 H  s               0.1       1.5       1.6       2.6       0.0       0.3
 8 H  px              0.0       2.3       0.3       1.7       0.0       0.1
 8 H  py              0.4       2.7       3.6       4.2       0.0       0.4
 9 H  s               0.1       1.5       1.6       2.6       0.0       0.3
 9 H  px              0.0       2.3       0.3       1.7       0.0       0.1
 9 H  py              0.4       2.7       3.6       4.2       0.0       0.4
10 H  s               0.1       1.5       1.6       2.6       0.0       0.3
10 H  px              0.0       2.3       0.3       1.7       0.0       0.1
10 H  py              0.4       2.7       3.6       4.1       0.0       0.4
11 H  s               0.1       1.5       1.6       2.6       0.0       0.3
11 H  px              0.0       2.3       0.3       1.7       0.0       0.1
11 H  py              0.4       2.7       3.6       4.1       0.0       0.4

                    174       175       176       177       178       179   
                  21.46036  21.82824  22.07259  22.07377  22.21170  22.26108
                   0.00000   0.00000   0.00000   0.00000   0.00000   0.00000
                  --------  --------  --------  --------  --------  --------
 0 C  s              20.7      24.9       3.1       4.8      24.7      21.4
 1 C  s              20.7      24.9       4.2       3.7      24.7      21.4
 2 C  s               8.5       0.0      36.2      47.1       0.0       7.5
 3 O  s               0.0       0.0       0.1       0.1       0.0       0.0
 4 C  s              20.7      24.9       4.2       3.7      25.1      21.0
 5 C  s              20.7      24.9       3.1       4.8      25.1      21.0
 6 C  s               8.5       0.0      48.1      35.3       0.0       7.4
 7 O  s               0.0       0.0       0.2       0.1       0.0       0.0

                    180       181   
                  43.58300  43.61174
                   0.00000   0.00000
                  --------  --------
 3 O  s              49.9      50.0
 7 O  s              50.0      49.9


                      *****************************
                      * MAYER POPULATION ANALYSIS *
                      *****************************

  NA   - Mulliken gross atomic population
  ZA   - Total nuclear charge
  QA   - Mulliken gross atomic charge
  VA   - Mayer's total valence
  BVA  - Mayer's bonded valence
  FA   - Mayer's free valence

  ATOM       NA         ZA         QA         VA         BVA        FA
  0 C      6.1968     6.0000    -0.1968     3.7072     3.7072     0.0000
  1 C      6.1968     6.0000    -0.1968     3.7072     3.7072     0.0000
  2 C      5.6196     6.0000     0.3804     3.8814     3.8814     0.0000
  3 O      8.4083     8.0000    -0.4083     1.9557     1.9557    -0.0000
  4 C      6.1969     6.0000    -0.1969     3.7072     3.7072     0.0000
  5 C      6.1969     6.0000    -0.1969     3.7072     3.7072     0.0000
  6 C      5.6197     6.0000     0.3803     3.8813     3.8813     0.0000
  7 O      8.4084     8.0000    -0.4084     1.9556     1.9556     0.0000
  8 H      0.7891     1.0000     0.2109     0.9468     0.9468    -0.0000
  9 H      0.7891     1.0000     0.2109     0.9468     0.9468     0.0000
 10 H      0.7891     1.0000     0.2109     0.9468     0.9468     0.0000
 11 H      0.7891     1.0000     0.2109     0.9468     0.9468     0.0000

  Mayer bond orders larger than 0.100000
B(  0-C ,  1-C ) :   1.6689 B(  0-C ,  6-C ) :   1.0456 B(  0-C ,  8-H ) :   0.9212 
B(  1-C ,  2-C ) :   1.0456 B(  1-C ,  9-H ) :   0.9212 B(  2-C ,  3-O ) :   1.7590 
B(  2-C ,  4-C ) :   1.0456 B(  4-C ,  5-C ) :   1.6688 B(  4-C , 10-H ) :   0.9212 
B(  5-C ,  6-C ) :   1.0456 B(  5-C , 11-H ) :   0.9212 B(  6-C ,  7-O ) :   1.7589 


-------
TIMINGS
-------

Total SCF time: 0 days 0 hours 0 min 24 sec 

Total time                  ....      24.671 sec
Sum of individual times     ....      22.343 sec  ( 90.6%)

SCF preparation             ....       0.257 sec  (  1.0%)
Fock matrix formation       ....      20.102 sec  ( 81.5%)
  Startup                   ....       0.055 sec  (  0.3% of F)
  Split-RI-J                ....       2.545 sec  ( 12.7% of F)
  XC integration            ....      14.210 sec  ( 70.7% of F)
    XC Preparation          ....       0.000 sec  (  0.0% of XC)
    Basis function eval.    ....       1.728 sec  ( 12.2% of XC)
    Density eval.           ....       3.024 sec  ( 21.3% of XC)
    XC-Functional eval.     ....       1.261 sec  (  8.9% of XC)
    XC-Potential eval.      ....       3.850 sec  ( 27.1% of XC)
  CPCM terms                ....       2.777 sec  ( 13.8% of F)
Diagonalization             ....       0.000 sec  (  0.0%)
Density matrix formation    ....       0.252 sec  (  1.0%)
Total Energy calculation    ....       0.043 sec  (  0.2%)
Population analysis         ....       0.071 sec  (  0.3%)
Orbital Transformation      ....       0.044 sec  (  0.2%)
Orbital Orthonormalization  ....       0.000 sec  (  0.0%)
DIIS solution               ....       1.531 sec  (  6.2%)
  MO trafo                  ....       0.000 sec  (  0.0 % of DIIS)
  Orb grad                  ....       0.000 sec  (  0.0 % of DIIS)
  Energy W gradient         ....       0.000 sec  (  0.0 % of DIIS)
  DIIS error                ....       0.009 sec  (  0.6 % of DIIS)
  DIIS work                 ....       1.481 sec  ( 96.7 % of DIIS)
  Form Q                    ....       0.000 sec  (  0.0 % of DIIS)
  Form QpQm                 ....       0.000 sec  (  0.0 % of DIIS)
  Exp/Cayley                ....       0.000 sec  (  0.0 % of DIIS)
  Orb update                ....       0.000 sec  (  0.0 % of DIIS)
  Wake-sleep                ....       0.018 sec  (  1.2 % of DIIS)
SOSCF solution              ....       0.043 sec  (  0.2%)
  MO trafo                  ....       0.034 sec  ( 77.8 % of SOSCF)
  Orb grad                  ....       0.001 sec  (  1.4 % of SOSCF)
  Rot update                ....       0.000 sec  (  0.1 % of SOSCF)
  Step                      ....       0.009 sec  ( 20.6 % of SOSCF)
Finished LeanSCF after  24.8 sec

Maximum memory used throughout the entire LEANSCF-calculation: 18.8 MB


-------------------------------------------------------------------------------
                          DFT DISPERSION CORRECTION                            
                                                                               
                                DFTD4 V3.4.0                                   
-------------------------------------------------------------------------------
The R2SCAN3C composite method is recognized
Using three-body term ABC
Active option DFTDOPT                   ...         5   

-------------------------   ----------------
Dispersion correction           -0.003755483
-------------------------   ----------------

------------------   -----------------
gCP correction             0.003085860
------------------   -----------------

-------------------------   --------------------
FINAL SINGLE POINT ENERGY      -381.388088597286
-------------------------   --------------------


------------------------------------------------------------------------------
                              ORCA PROPERTY CALCULATIONS
------------------------------------------------------------------------------

GBWName                                 ... sp_solv.gbw
Number of atoms                         ...     12
Number of basis functions               ...    182
Max core memory                         ...   1024 MB

Electric properties:
Dipole moment                           ... YES
Quadrupole moment                       ...  NO
Static polarizability (Dipole/Dipole)   ...  NO
Static polarizability (Dipole/Quad.)    ...  NO
Static polarizability (Quad./Quad.)     ...  NO
Static polarizability (Velocity)        ...  NO

Atomic electric properties:
Dipole moment                           ...  NO
Quadrupole moment                       ...  NO
Static polarizability                   ...  NO

Choice of electric origin               ... Center of mass
Position of electric origin             ...     0.000000    -0.000000     0.000000

General magnetic properties:
Magnetizability                         ...  NO

EPR properties:
g-Tensor (aka g-matrix)                 ...  NO
Zero-Field splitting spin-orbit         ...  NO
Zero-field splitting spin-spin          ...  NO
Hyperfine couplings                     ...  NO (   0 nuclei)
Quadrupole couplings                    ...  NO (   0 nuclei)
Contact density                         ...  NO (   0 nuclei)

NMR properties:
Chemical shifts                         ...  NO (   0 nuclei)
Spin-rotation constants                 ...  NO (   0 nuclei)
Spin-spin couplings                     ...  NO (   0 nuclei,    0 pairs)

Choice of magnetic origin               ... GIAO
Position of magnetic origin             ...     0.000000     0.000000     0.000000

Properties with geometric perturbations:
SCF Hessian                             ...  NO
IR spectrum                             ...  NO
VCD spectrum                            ...  NO
X-ray spectroscopy properties:
SCF XES/XAS/RIXS spectra                ...  NO


-------------
DIPOLE MOMENT
-------------

Method             : SCF
Type of density    : Electron Density
Multiplicity       :   1
Irrep              :   0
Energy             :  -381.3874189736614539 Eh
Relativity type    : 
Basis              : AO
                                X                 Y                 Z
Electronic contribution:      0.000155512      -0.000104291      -0.000956280
Nuclear contribution   :      0.000224902      -0.000119936       0.001278365
                        -----------------------------------------
Total Dipole Moment    :      0.000380414      -0.000224227       0.000322085
                        -----------------------------------------
Magnitude (a.u.)       :      0.000546563
Magnitude (Debye)      :      0.001389253



--------------------
Rotational spectrum 
--------------------
 
Rotational constants in cm-1:             0.179168             0.055110             0.042146 
Rotational constants in MHz :          5371.324483          1652.153478          1263.512553 

Dipole components along the rotational axes: 
x,y,z [a.u.] :     0.000380    -0.000224     0.000322 
x,y,z [Debye]:     0.000967    -0.000570     0.000819 

 

Dipole moment calculation done in   0.0 sec 

Maximum memory used throughout the entire PROP-calculation: 11.0 MB

--------------------------------
SUGGESTED CITATIONS FOR THIS RUN
--------------------------------

Below you find a list of papers that are relevant to this ORCA run
We neither can nor want to force you to cite these papers, but we appreciate if you do
You receive ORCA, which is the product of decades of hard work by many enthusiastic individuals, for free
The only thing we kindly ask in return is that you cite our papers,
We deeply appreciate it, if you show your appreciation for ORCA by not just citing the generic ORCA reference.

Please note that relegating all ORCA citations to the supporting information does *not* help us.
SI sections are not indexed - citations you put there will not count into any citation statistics
But we need these citations in order to attract the funding resources that allow us to do what we are doing

Therefore, if you are a happy ORCA user, please consider citing a few of the papers listed below in the main body of your paper

In addition to the list printed below, the program has created the file sp_solv.bibtex that contains the list in bibtex format
You can import this file easily into all common literature databanks and citation aid programs


List of essential papers. We consider these as the minimum necessary citations

  1. Neese,F.
     Software update: the ORCA program system, version 5.0
     WIRES Comput. Molec. Sci., 2022 12(1)e1606
     doi.org/10.1002/wcms.1606
  2. Grimme,S.; Hansen,A.; Ehlert,S.; Mewes,J.
     r2SCAN-3c: A 'Swiss army knife' composite electronic-structure method
     J. Chem. Phys., 2021 154 064103
     doi.org/10.1063/5.0040021

List of papers to cite with high priority. The work reported in these papers was absolutely
necessary for this run to complete.
Our perspective: the developers of density functionals and basis sets usually get cited in chemistry papers
Good! But without the algorithms to do something with them, the functionals or basis sets would not do anything.
Hence, in our opinion, the algorithm design and method developments papers are equally worthy of getting cited

  1. Neese,F.
     An improvement of the resolution of the identity approximation for the formation of the Coulomb matrix
     J. Comp. Chem., 2003 24(14)1740-1747
     doi.org/10.1002/jcc.10318
  2. Garcia-Rates,M.; Neese,F.
     Effect of the Solute Cavity on the Solvation Energy and its Derivatives within the Framework of the Gaussian Charge Scheme
     J. Comput. Chem., 2020 41 922-939
     doi.org/10.1002/jcc.26139
  3. Neese,F.
     The SHARK Integral Generation and Digestion System
     J. Comp. Chem., 2022  1-16
     doi.org/10.1002/jcc.26942
  4. Lehtola,S.; Steigemann,C.; Oliveira,M.; Marques,M.
     Recent developments in Libxc - A comprehensive library of functionals for density functional theory
     Software X, 2018 7 
     doi.org/10.1016/j.softx.2017.11.002
  5. Caldeweyher,E.; Bannwarth,C.; Grimme,S.
     Extension of the D3 dispersion coefficient model
     J. Chem. Phys., 2017 147 034112-XXXX
     doi.org/10.1063/1.4993215
  6. Caldeweyher,E.; Ehlert,S.; Hansen,A.; Neugebauer,H.; Spicher,S.; Bannwarth,C.; Grimme,S.
     A generally applicable atomic-charge dependent London dispersion correction
     J. Chem. Phys., 2019 150 154122-XXXX
     doi.org/10.1063/1.5090222
  7. Caldeweyher,E.; Mewes,J.; Ehlert,S.; Grimme,S.
     Extension and evaluation of the D4 London-dispersion model for periodic systems
     Phys. Chem. Chem. Phys., 2020 22(16)8499-8512
     doi.org/10.1039/D0CP00502A

List of suggested additional citations. These are papers that are important in the 'surrounding' of 
of this run, or papers that preceded the highly important papers. If you like your results we are grateful for a citation.

  1. Neese,F.
     The ORCA program system
     WIRES Comput. Molec. Sci., 2012 2(1)73-78
     doi.org/10.1002/wcms.81
  2. Neese,F.
     Software update: the ORCA program system, version 4.0
     WIRES Comput. Molec. Sci., 2018 8(1)1-6
     doi.org/10.1002/wcms.1327
  3. Neese,F.; Wennmohs,F.; Becker,U.; Riplinger,C.
     The ORCA quantum chemistry program package
     J. Chem. Phys., 2020 152 Art. No. L224108
     doi.org/10.1063/5.0004608

List of optional additional citations

  1. Neese,F.
     Approximate second-order SCF convergence for spin unrestricted wavefunctions
     Chem. Phys. Lett., 2000 325(1-3)93-98
     doi.org/10.1016/s0009-2614(00)00662-x

Timings for individual modules:

Sum of individual times          ...       29.616 sec (=   0.494 min)
Startup calculation              ...        4.110 sec (=   0.069 min)  13.9 %
SCF iterations                   ...       25.409 sec (=   0.423 min)  85.8 %
Property calculations            ...        0.096 sec (=   0.002 min)   0.3 %
                             ****ORCA TERMINATED NORMALLY****
TOTAL RUN TIME: 0 days 0 hours 0 minutes 30 seconds 311 msec
