
                                 *****************
                                 * O   R   C   A *
                                 *****************

                                            #,                                       
                                            ###                                      
                                            ####                                     
                                            #####                                    
                                            ######                                   
                                           ########,                                 
                                     ,,################,,,,,                         
                               ,,#################################,,                 
                          ,,##########################################,,             
                       ,#########################################, ''#####,          
                    ,#############################################,,   '####,        
                  ,##################################################,,,,####,       
                ,###########''''           ''''###############################       
              ,#####''   ,,,,##########,,,,          '''####'''          '####       
            ,##' ,,,,###########################,,,                        '##       
           ' ,,###''''                  '''############,,,                           
         ,,##''                                '''############,,,,        ,,,,,,###''
      ,#''                                            '''#######################'''  
     '                                                          ''''####''''         
             ,#######,   #######,   ,#######,      ##                                
            ,#'     '#,  ##    ##  ,#'     '#,    #''#        ,####,   ,####,        
            ##       ##  ##   ,#'  ##            #'  '#       #'       #'  '#        
            ##       ##  #######   ##           ,######,      #####,   #    #        
            '#,     ,#'  ##    ##  '#,     ,#' ,#      #,     #,   #   #,  ,#        
             '#######'   ##     ##  '#######'  #'      '#     '####' # '####'        



                #########################################################
                #                        -***-                          #
                #          Department of theory and spectroscopy        #
                #                                                       #
                #                      Frank Neese                      #
                #                                                       #
                #     Directorship, Architecture, Infrastructure        #
                #                    SHARK, DRIVERS                     #
                #        Core code/Algorithms in most modules           #
                #                                                       #
                #        Max Planck Institute fuer Kohlenforschung      #
                #                Kaiser Wilhelm Platz 1                 #
                #                 D-45470 Muelheim/Ruhr                 #
                #                      Germany                          #
                #                                                       #
                #                  All rights reserved                  #
                #                        -***-                          #
                #########################################################


                         Program Version 6.0.0  -   RELEASE  -


 With contributions from (in alphabetic order):
   Daniel Aravena         : Magnetic Suceptibility
   Michael Atanasov       : Ab Initio Ligand Field Theory (pilot matlab implementation)
   Alexander A. Auer      : GIAO ZORA, VPT2 properties, NMR spectrum
   Ute Becker             : All parallelization in ORCA, NUMFREQ, NUMCALC
   Giovanni Bistoni       : ED, misc. LED, open-shell LED, HFLD
   Martin Brehm           : Molecular dynamics
   Dmytro Bykov           : pre 5.0 version of the SCF Hessian
   Marcos Casanova-Páez   : Triplet and SCS-CIS(D). UHF-(DLPNO)-IP/EA/STEOM-CCSD. UHF-CVS-IP/STEOM-CCSD
   Vijay G. Chilkuri      : MRCI spin determinant printing, contributions to CSF-ICE
   Pauline Colinet        : FMM embedding
   Dipayan Datta          : RHF DLPNO-CCSD density
   Achintya Kumar Dutta   : EOM-CC, STEOM-CC
   Nicolas Foglia         : Exact transition moments, OPA infrastructure, MCD improvements
   Dmitry Ganyushin       : Spin-Orbit,Spin-Spin,Magnetic field MRCI
   Miquel Garcia          : C-PCM and meta-GGA Hessian, CCSD/C-PCM, Gaussian charge scheme
   Tiago L. C. Gouveia    : GS-ROHF, GS-ROCIS
   Yang Guo               : DLPNO-NEVPT2, F12-NEVPT2, CIM, IAO-localization
   Andreas Hansen         : Spin unrestricted coupled pair/coupled cluster methods
   Ingolf Harden          : AUTO-CI MPn and infrastructure 
   Benjamin Helmich-Paris : MC-RPA, TRAH-(SCF,CASSCF), AVAS, COSX integrals, SCF dyn. polar.
   Lee Huntington         : MR-EOM, pCC
   Robert Izsak           : Overlap fitted RIJCOSX, COSX-SCS-MP3, EOM
   Riya Kayal             : Wick's Theorem for AUTO-CI, AUTO-CI UHF-CCSDT
   Emily Kempfer          : AUTO-CI, RHF CISDT and CCSDT
   Christian Kollmar      : KDIIS, OOCD, Brueckner-CCSD(T), CCSD density, CASPT2, CASPT2-K, improved NEVPT2
   Axel Koslowski         : Symmetry handling
   Simone Kossmann        : Meta GGA functionals, TD-DFT gradient, OOMP2, (MP2 Hessian; deprecated post 5.0)
   Lucas Lang             : DCDCAS
   Marvin Lechner         : AUTO-CI (C++ implementation), FIC-MRCC
   Spencer Leger          : CASSCF response
   Dagmar Lenk            : GEPOL surface, SMD, ORCA-2-JSON
   Dimitrios Liakos       : Extrapolation schemes; Compound Job, initial MDCI parallelization
   Dimitrios Manganas     : Further ROCIS development; embedding schemes. LFT, Crystal Embedding
   Dimitrios Pantazis     : SARC Basis sets
   Anastasios Papadopoulos: AUTO-CI, single reference methods and gradients
   Taras Petrenko         : pre 6.0 DFT Hessian and TD-DFT gradient, (ASA, deprecated), ECA, 1-Electron XAS/XES, NRVS
   Peter Pinski           : DLPNO-MP2, DLPNO-MP2 Gradient
   Christoph Reimann      : Effective Core Potentials
   Marius Retegan         : Local ZFS, SOC
   Christoph Riplinger    : Optimizer, TS searches, QM/MM, DLPNO-CCSD(T), (RO)-DLPNO pert. Triples
   Michael Roemelt        : Original ROCIS implementation
   Masaaki Saitow         : Open-shell DLPNO-CCSD energy and density
   Barbara Sandhoefer     : DKH picture change effects
   Kantharuban Sivalingam : CASSCF convergence/infrastructure, NEVPT2 and variants, FIC-MRCI
   Bernardo de Souza      : ESD, SOC TD-DFT
   Georgi Stoychev        : AutoAux, RI-MP2 NMR, DLPNO-MP2 response, X2C
   Van Anh Tran           : RI-MP2 g-tensors
   Willem Van den Heuvel  : Paramagnetic NMR
   Zikuan Wang            : NOTCH, Electric field optimization 
   Frank Wennmohs         : Technical directorship and infrastructure
   Hang Xu                : AUTO-CI-Response properties 


 We gratefully acknowledge several colleagues who have allowed us to
 interface, adapt or use parts of their codes:
   Stefan Grimme, W. Hujo, H. Kruse, P. Pracht,  : VdW corrections, initial TS optimization,
                  C. Bannwarth, S. Ehlert,         DFT functionals, gCP, sTDA/sTD-DF
                  L. Wittmann, M. Mueller
   Ed Valeev, F. Pavosevic, A. Kumar             : LibInt (2-el integral package), F12 methods
   Garnet Chan, S. Sharma, J. Yang, R. Olivares  : DMRG
   Ulf Ekstrom                                   : XCFun DFT Library
   Mihaly Kallay                                 : mrcc  (arbitrary order and MRCC methods)
   Frank Weinhold                                : gennbo (NPA and NBO analysis)
   Simon Mueller                                 : openCOSMO-RS
   Christopher J. Cramer and Donald G. Truhlar   : smd solvation model
   Lars Goerigk                                  : TD-DFT with DH, B97 family of functionals
   V. Asgeirsson, H. Jonsson                     : NEB implementation
   FAccTs GmbH                                   : IRC, NEB, NEB-TS, DLPNO-Multilevel, CI-OPT
                                                   MM, QMMM, 2- and 3-layer-ONIOM, Crystal-QMMM,
                                                   LR-CPCM, SF, NACMEs, symmetry and pop. for TD-DFT,
                                                   nearIR, NL-DFT gradient (VV10), updates on ESD,
                                                   ML-optimized integration grids, MBIS, APM,
                                                   GOAT, DOCKER, SOLVATOR, interface openCOSMO-RS
   S Lehtola, MJT Oliveira, MAL Marques          : LibXC Library
   Liviu Ungur et al                             : ANISO software


 Your calculation uses the libint2 library for the computation of 2-el integrals
 For citations please refer to: http://libint.valeyev.net

 Your ORCA version has been built with support for libXC version: 6.2.2
 For citations please refer to: https://libxc.gitlab.io

 This ORCA versions uses:
   CBLAS   interface :  Fast vector & matrix operations
   LAPACKE interface :  Fast linear algebra routines
   SCALAPACK package :  Parallel linear algebra routines
   Shared memory     :  Shared parallel matrices
   BLAS/LAPACK       :  OpenBLAS 0.3.27  USE64BITINT DYNAMIC_ARCH NO_AFFINITY SapphireRapids SINGLE_THREADED
        Core in use  :  SapphireRapids
   Copyright (c) 2011-2014, The OpenBLAS Project


Your calculation utilizes the geometrical counterpoise correction gCP
Please cite in your paper:
H.Kruse, S. Grimme J.Chem.Phys., 136, (2012), 154101 
   

Your calculation utilizes the atom-pairwise dispersion correction
based on EEQ partial charges (D4)


================================================================================

----- Orbital basis set information -----
Your calculation utilizes the basis: def2-SV(P)
   F. Weigend and R. Ahlrichs, Phys. Chem. Chem. Phys. 7, 3297 (2005).

----- AuxJ basis set information -----
Your calculation utilizes the auxiliary basis: def2/J
   F. Weigend, Phys. Chem. Chem. Phys. 8, 1057 (2006).

================================================================================
                                        WARNINGS
                       Please study these warnings very carefully!
================================================================================


================================================================================
                                       INPUT FILE
================================================================================
NAME = sp.inp
|  1> ! pbe def2-sv(p) def2/J RI DEFGRID1 loosescf d4 GCP(DFT/SV(P)) printgap
|  2> %output
|  3>     printlevel normal
|  4> end
|  5> * xyz 0 1
|  6> C 5.212769763 -1.2278148967 -1.2859016366
|  7> C 3.8036627577 -1.6523916982 -1.6519453034
|  8> O 2.9292818178 -1.5992236747 -0.5064130467
|  9> P 2.0921154348 -0.307528847 -0.1184620962
| 10> S 3.0808677428 1.3550878055 0.2160604292
| 11> O 1.2540401702 -0.8806655689 1.0924561571
| 12> C 1.494609657 -0.4931201717 2.4585079176
| 13> C 2.7246616633 -1.1850175336 3.0064148272
| 14> S 0.6538583574 -0.2210768198 -1.6734936108
| 15> C 0.0980830005 1.4762759847 -1.3559761197
| 16> S -0.5993359444 1.6973175643 0.3002852169
| 17> P -2.2046084085 0.3236163295 0.0743720619
| 18> S -3.026529767 0.2388536119 -1.7067856865
| 19> O -3.1353432485 0.6629686828 1.3118054704
| 20> C -3.6080006618 1.9741020861 1.6731106203
| 21> C -4.3003655593 2.6866376847 0.5296353954
| 22> O -1.6025739642 -1.0436410723 0.5986214154
| 23> C -1.7814238474 -2.3040951256 -0.0691726545
| 24> C -3.0792152736 -2.9529160927 0.3650561184
| 25> H 5.2234160991 -0.1897572829 -0.9611150511
| 26> H 5.5933590329 -1.8505588662 -0.4811173258
| 27> H 5.8540953373 -1.3328677055 -2.1549980406
| 28> H 3.772786147 -2.6970260298 -1.9671965891
| 29> H 3.3952694974 -1.0213777355 -2.4467913096
| 30> H 1.6071057087 0.5956159716 2.5020042997
| 31> H 0.5848864062 -0.7897312646 2.9828918388
| 32> H 3.6031456258 -0.8588086677 2.4506481097
| 33> H 2.8503692109 -0.9263085807 4.0529208228
| 34> H 2.6261521692 -2.2624754413 2.906091411
| 35> H -0.6604857084 1.6943393346 -2.1072021084
| 36> H 0.9436435092 2.1595779909 -1.4278455699
| 37> H -4.2968800438 1.7785353736 2.4969104923
| 38> H -2.7554473535 2.5569093428 2.0334772626
| 39> H -5.0983230109 2.0684248333 0.1250071452
| 40> H -4.7170216084 3.622447531 0.8880699202
| 41> H -3.589454035 2.8977418711 -0.2681081406
| 42> H -1.7708636712 -2.1418266444 -1.1526258588
| 43> H -0.9088842485 -2.8925935153 0.2201717322
| 44> H -3.9176974852 -2.3265583329 0.0635100478
| 45> H -3.1732019501 -3.925383677 -0.1074459476
| 46> H -3.0984365869 -3.0684497196 1.4451210174
| 47> *
| 48> 
| 49>                          ****END OF INPUT****
================================================================================

                       ****************************
                       * Single Point Calculation *
                       ****************************

---------------------------------
CARTESIAN COORDINATES (ANGSTROEM)
---------------------------------
  C      5.212770   -1.227815   -1.285902
  C      3.803663   -1.652392   -1.651945
  O      2.929282   -1.599224   -0.506413
  P      2.092115   -0.307529   -0.118462
  S      3.080868    1.355088    0.216060
  O      1.254040   -0.880666    1.092456
  C      1.494610   -0.493120    2.458508
  C      2.724662   -1.185018    3.006415
  S      0.653858   -0.221077   -1.673494
  C      0.098083    1.476276   -1.355976
  S     -0.599336    1.697318    0.300285
  P     -2.204608    0.323616    0.074372
  S     -3.026530    0.238854   -1.706786
  O     -3.135343    0.662969    1.311805
  C     -3.608001    1.974102    1.673111
  C     -4.300366    2.686638    0.529635
  O     -1.602574   -1.043641    0.598621
  C     -1.781424   -2.304095   -0.069173
  C     -3.079215   -2.952916    0.365056
  H      5.223416   -0.189757   -0.961115
  H      5.593359   -1.850559   -0.481117
  H      5.854095   -1.332868   -2.154998
  H      3.772786   -2.697026   -1.967197
  H      3.395269   -1.021378   -2.446791
  H      1.607106    0.595616    2.502004
  H      0.584886   -0.789731    2.982892
  H      3.603146   -0.858809    2.450648
  H      2.850369   -0.926309    4.052921
  H      2.626152   -2.262475    2.906091
  H     -0.660486    1.694339   -2.107202
  H      0.943644    2.159578   -1.427846
  H     -4.296880    1.778535    2.496910
  H     -2.755447    2.556909    2.033477
  H     -5.098323    2.068425    0.125007
  H     -4.717022    3.622448    0.888070
  H     -3.589454    2.897742   -0.268108
  H     -1.770864   -2.141827   -1.152626
  H     -0.908884   -2.892594    0.220172
  H     -3.917697   -2.326558    0.063510
  H     -3.173202   -3.925384   -0.107446
  H     -3.098437   -3.068450    1.445121

----------------------------
CARTESIAN COORDINATES (A.U.)
----------------------------
  NO LB      ZA    FRAG     MASS         X           Y           Z
   0 C     6.0000    0    12.011    9.850707   -2.320234   -2.430002
   1 C     6.0000    0    12.011    7.187881   -3.122568   -3.121724
   2 O     8.0000    0    15.999    5.535540   -3.022095   -0.956982
   3 P    15.0000    0    30.974    3.953525   -0.581145   -0.223861
   4 S    16.0000    0    32.060    5.821996    2.560745    0.408295
   5 O     8.0000    0    15.999    2.369792   -1.664217    2.064443
   6 C     6.0000    0    12.011    2.824403   -0.931862    4.645907
   7 C     6.0000    0    12.011    5.148864   -2.239359    5.681301
   8 S    16.0000    0    32.060    1.235613   -0.417775   -3.162445
   9 C     6.0000    0    12.011    0.185350    2.789757   -2.562424
  10 S    16.0000    0    32.060   -1.132581    3.207465    0.567457
  11 P    15.0000    0    30.974   -4.166106    0.611546    0.140543
  12 S    16.0000    0    32.060   -5.719312    0.451368   -3.225358
  13 O     8.0000    0    15.999   -5.924940    1.252829    2.478953
  14 C     6.0000    0    12.011   -6.818133    3.730512    3.161721
  15 C     6.0000    0    12.011   -8.126513    5.077009    1.000866
  16 O     8.0000    0    15.999   -3.028426   -1.972196    1.131231
  17 C     6.0000    0    12.011   -3.366403   -4.354109   -0.130717
  18 C     6.0000    0    12.011   -5.818874   -5.580203    0.689856
  19 H     1.0000    0     1.008    9.870826   -0.358589   -1.816244
  20 H     1.0000    0     1.008   10.569917   -3.497049   -0.909180
  21 H     1.0000    0     1.008   11.062637   -2.518755   -4.072356
  22 H     1.0000    0     1.008    7.129533   -5.096641   -3.717463
  23 H     1.0000    0     1.008    6.416130   -1.930124   -4.623765
  24 H     1.0000    0     1.008    3.036990    1.125551    4.728103
  25 H     1.0000    0     1.008    1.105275   -1.492376    5.636849
  26 H     1.0000    0     1.008    6.808958   -1.622913    4.631054
  27 H     1.0000    0     1.008    5.386417   -1.750470    7.658910
  28 H     1.0000    0     1.008    4.962708   -4.275459    5.491717
  29 H     1.0000    0     1.008   -1.248137    3.201837   -3.982035
  30 H     1.0000    0     1.008    1.783228    4.081011   -2.698237
  31 H     1.0000    0     1.008   -8.119927    3.360945    4.718477
  32 H     1.0000    0     1.008   -5.207041    4.831858    3.842715
  33 H     1.0000    0     1.008   -9.634434    3.908756    0.236229
  34 H     1.0000    0     1.008   -8.913879    6.845434    1.678209
  35 H     1.0000    0     1.008   -6.783085    5.475939   -0.506651
  36 H     1.0000    0     1.008   -3.346447   -4.047466   -2.178147
  37 H     1.0000    0     1.008   -1.717542   -5.466210    0.416064
  38 H     1.0000    0     1.008   -7.403375   -4.396558    0.120017
  39 H     1.0000    0     1.008   -5.996483   -7.417900   -0.203043
  40 H     1.0000    0     1.008   -5.855197   -5.798530    2.730883

--------------------------------
INTERNAL COORDINATES (ANGSTROEM)
--------------------------------
 C      0   0   0     0.000000000000     0.00000000     0.00000000
 C      1   0   0     1.516521011645     0.00000000     0.00000000
 O      2   1   0     1.442086342049   111.18176899     0.00000000
 P      3   2   1     1.587396932316   122.94992890    90.49032953
 S      4   3   2     1.963117566460   117.72199204   301.83446026
 O      4   3   2     1.580246457772    99.89506500   174.93014057
 C      6   4   3     1.440195308017   122.72788488   108.99761997
 C      7   6   4     1.513919376715   110.85585947   283.25878067
 S      4   3   2     2.119948203400   102.22271768    69.66731070
 C      9   4   3     1.814031462637    96.75494663   194.21443240
 S     10   9   4     1.810650209105   113.10046462   299.57452102
 P     11  10   9     2.124850940676    96.59289871   298.57926036
 S     12  11  10     1.963482203265   116.14221556   324.32477365
 O     12  11  10     1.585139994623   102.83742417   193.73288689
 C     14  12  11     1.439797639580   125.70436129    51.11149782
 C     15  14  12     1.514797584010   112.89021953    53.28707679
 O     12  11  10     1.583248451616   103.63998469    91.42010830
 C     17  12  11     1.437595430222   123.78281226   224.19751130
 C     18  17  12     1.514524961987   110.42826276   274.05109881
 H      1   2   3     1.087733092335   110.38625424   296.66952086
 H      1   2   3     1.086432708833   110.10968486    56.82517847
 H      1   2   3     1.085201891048   109.19041342   176.84908128
 H      2   1   3     1.091603236062   111.34054710   244.12447594
 H      2   1   3     1.093957882989   111.14686909   121.92642594
 H      7   6   4     1.095396588744   108.80055907    45.44147820
 H      7   6   4     1.091124663038   104.08906368   162.32524944
 H      8   7   6     1.089505824143   109.49190946    63.91201664
 H      8   7   6     1.085314474547   109.52011551   183.49182708
 H      8   7   6     1.086593047618   110.24937231   304.19820673
 H     10   9   4     1.089641499205   106.25224970   179.09861369
 H     10   9   4     1.089513388363   109.72476205    58.22360429
 H     15  14  12     1.091534411317   103.49823577   173.91082083
 H     15  14  12     1.093789540468   108.18079826   290.36567393
 H     16  15  14     1.087495859790   110.41655587    54.13356330
 H     16  15  14     1.085273071744   109.37606701   174.51225049
 H     16  15  14     1.089199211406   110.22575186   294.32216239
 H     18  17  12     1.095588163144   109.16663997    36.11007205
 H     18  17  12     1.091501663051   104.48560749   153.19690547
 H     19  18  17     1.089176980626   109.50729466    63.33677302
 H     19  18  17     1.085257987876   109.46660019   182.96705122
 H     19  18  17     1.086396642061   110.22806038   303.63509891

---------------------------
INTERNAL COORDINATES (A.U.)
---------------------------
 C      0   0   0     0.000000000000     0.00000000     0.00000000
 C      1   0   0     2.865809388347     0.00000000     0.00000000
 O      2   1   0     2.725148247940   111.18176899     0.00000000
 P      3   2   1     2.999745467904   122.94992890    90.49032953
 S      4   3   2     3.709754569300   117.72199204   301.83446026
 O      4   3   2     2.986233029288    99.89506500   174.93014057
 C      6   4   3     2.721574711511   122.72788488   108.99761997
 C      7   6   4     2.860893010829   110.85585947   283.25878067
 S      4   3   2     4.006121522524   102.22271768    69.66731070
 C      9   4   3     3.428022662700    96.75494663   194.21443240
 S     10   9   4     3.421633019536   113.10046462   299.57452102
 P     11  10   9     4.015386353282    96.59289871   298.57926036
 S     12  11  10     3.710443632999   116.14221556   324.32477365
 O     12  11  10     2.995480473762   102.83742417   193.73288689
 C     14  12  11     2.720823227073   125.70436129    51.11149782
 C     15  14  12     2.862552582104   112.89021953    53.28707679
 O     12  11  10     2.991905975510   103.63998469    91.42010830
 C     17  12  11     2.716661654496   123.78281226   224.19751130
 C     18  17  12     2.862037401143   110.42826276   274.05109881
 H      1   2   3     2.055517651317   110.38625424   296.66952086
 H      1   2   3     2.053060282628   110.10968486    56.82517847
 H      1   2   3     2.050734374094   109.19041342   176.84908128
 H      2   1   3     2.062831163060   111.34054710   244.12447594
 H      2   1   3     2.067280800893   111.14686909   121.92642594
 H      7   6   4     2.069999560757   108.80055907    45.44147820
 H      7   6   4     2.061926791110   104.08906368   162.32524944
 H      8   7   6     2.058867628943   109.49190946    63.91201664
 H      8   7   6     2.050947126074   109.52011551   183.49182708
 H      8   7   6     2.053363279020   110.24937231   304.19820673
 H     10   9   4     2.059124017653   106.25224970   179.09861369
 H     10   9   4     2.058881923246   109.72476205    58.22360429
 H     15  14  12     2.062701103141   103.49823577   173.91082083
 H     15  14  12     2.066962679633   108.18079826   290.36567393
 H     16  15  14     2.055069346776   110.41655587    54.13356330
 H     16  15  14     2.050868886115   109.37606701   174.51225049
 H     16  15  14     2.058288214841   110.22575186   294.32216239
 H     18  17  12     2.070361583907   109.16663997    36.11007205
 H     18  17  12     2.062639217886   104.48560749   153.19690547
 H     19  18  17     2.058246204754   109.50729466    63.33677302
 H     19  18  17     2.050840381736   109.46660019   182.96705122
 H     19  18  17     2.052992126307   110.22806038   303.63509891

---------------------
BASIS SET INFORMATION
---------------------
There are 5 groups of distinct atoms

 Group   1 Type C   : 7s4p1d contracted to 3s2p1d pattern {511/31/1}
 Group   2 Type O   : 7s4p1d contracted to 3s2p1d pattern {511/31/1}
 Group   3 Type P   : 10s7p1d contracted to 4s3p1d pattern {5311/511/1}
 Group   4 Type S   : 10s7p1d contracted to 4s3p1d pattern {5311/511/1}
 Group   5 Type H   : 4s contracted to 2s pattern {31}

Atom   0C    basis set group =>   1
Atom   1C    basis set group =>   1
Atom   2O    basis set group =>   2
Atom   3P    basis set group =>   3
Atom   4S    basis set group =>   4
Atom   5O    basis set group =>   2
Atom   6C    basis set group =>   1
Atom   7C    basis set group =>   1
Atom   8S    basis set group =>   4
Atom   9C    basis set group =>   1
Atom  10S    basis set group =>   4
Atom  11P    basis set group =>   3
Atom  12S    basis set group =>   4
Atom  13O    basis set group =>   2
Atom  14C    basis set group =>   1
Atom  15C    basis set group =>   1
Atom  16O    basis set group =>   2
Atom  17C    basis set group =>   1
Atom  18C    basis set group =>   1
Atom  19H    basis set group =>   5
Atom  20H    basis set group =>   5
Atom  21H    basis set group =>   5
Atom  22H    basis set group =>   5
Atom  23H    basis set group =>   5
Atom  24H    basis set group =>   5
Atom  25H    basis set group =>   5
Atom  26H    basis set group =>   5
Atom  27H    basis set group =>   5
Atom  28H    basis set group =>   5
Atom  29H    basis set group =>   5
Atom  30H    basis set group =>   5
Atom  31H    basis set group =>   5
Atom  32H    basis set group =>   5
Atom  33H    basis set group =>   5
Atom  34H    basis set group =>   5
Atom  35H    basis set group =>   5
Atom  36H    basis set group =>   5
Atom  37H    basis set group =>   5
Atom  38H    basis set group =>   5
Atom  39H    basis set group =>   5
Atom  40H    basis set group =>   5
---------------------------------
AUXILIARY/J BASIS SET INFORMATION
---------------------------------
There are 5 groups of distinct atoms

 Group   1 Type C   : 12s5p4d2f1g contracted to 6s4p3d1f1g pattern {711111/2111/211/2/1}
 Group   2 Type O   : 12s5p4d2f1g contracted to 6s4p3d1f1g pattern {711111/2111/211/2/1}
 Group   3 Type P   : 14s5p5d2f1g contracted to 8s4p3d1f1g pattern {71111111/2111/311/2/1}
 Group   4 Type S   : 14s5p5d2f1g contracted to 8s4p3d1f1g pattern {71111111/2111/311/2/1}
 Group   5 Type H   : 5s2p1d contracted to 3s1p1d pattern {311/2/1}

Atom   0C    basis set group =>   1
Atom   1C    basis set group =>   1
Atom   2O    basis set group =>   2
Atom   3P    basis set group =>   3
Atom   4S    basis set group =>   4
Atom   5O    basis set group =>   2
Atom   6C    basis set group =>   1
Atom   7C    basis set group =>   1
Atom   8S    basis set group =>   4
Atom   9C    basis set group =>   1
Atom  10S    basis set group =>   4
Atom  11P    basis set group =>   3
Atom  12S    basis set group =>   4
Atom  13O    basis set group =>   2
Atom  14C    basis set group =>   1
Atom  15C    basis set group =>   1
Atom  16O    basis set group =>   2
Atom  17C    basis set group =>   1
Atom  18C    basis set group =>   1
Atom  19H    basis set group =>   5
Atom  20H    basis set group =>   5
Atom  21H    basis set group =>   5
Atom  22H    basis set group =>   5
Atom  23H    basis set group =>   5
Atom  24H    basis set group =>   5
Atom  25H    basis set group =>   5
Atom  26H    basis set group =>   5
Atom  27H    basis set group =>   5
Atom  28H    basis set group =>   5
Atom  29H    basis set group =>   5
Atom  30H    basis set group =>   5
Atom  31H    basis set group =>   5
Atom  32H    basis set group =>   5
Atom  33H    basis set group =>   5
Atom  34H    basis set group =>   5
Atom  35H    basis set group =>   5
Atom  36H    basis set group =>   5
Atom  37H    basis set group =>   5
Atom  38H    basis set group =>   5
Atom  39H    basis set group =>   5
Atom  40H    basis set group =>   5
------------------------------------------------------------------------------
                             ORCA STARTUP CALCULATIONS
                           -- RI-GTO INTEGRALS CHOSEN --
------------------------------------------------------------------------------
------------------------------------------------------------------------------
                   ___                                                        
                  /   \      - P O W E R E D   B Y -                         
                 /     \                                                     
                 |  |  |   _    _      __       _____    __    __             
                 |  |  |  | |  | |    /  \     |  _  \  |  |  /  |          
                  \  \/   | |  | |   /    \    | | | |  |  | /  /          
                 / \  \   | |__| |  /  /\  \   | |_| |  |  |/  /          
                |  |  |   |  __  | /  /__\  \  |    /   |      \           
                |  |  |   | |  | | |   __   |  |    \   |  |\   \          
                \     /   | |  | | |  |  |  |  | |\  \  |  | \   \       
                 \___/    |_|  |_| |__|  |__|  |_| \__\ |__|  \__/        
                                                                              
                      - O R C A' S   B I G   F R I E N D -                    
                                      &                                       
                       - I N T E G R A L  F E E D E R -                       
                                                                              
 v1 FN, 2020, v2 2021, v3 2022-2024                                           
------------------------------------------------------------------------------


----------------------
SHARK INTEGRAL PACKAGE
----------------------

Number of atoms                             ...     41
Number of basis functions                   ...    334
Number of shells                            ...    170
Maximum angular momentum                    ...      2
Integral batch strategy                     ... SHARK/LIBINT Hybrid
RI-J (if used) integral strategy            ... SPLIT-RIJ (Revised 2003 algorithm where possible)
Printlevel                                  ...      1
Contraction scheme used                     ... SEGMENTED contraction
Prescreening option                         ... SCHWARTZ
   Thresh                                   ... 1.000e-09
   Tcut                                     ... 1.000e-10
   Tpresel                                  ... 1.000e-10 
Coulomb Range Separation                    ... NOT USED
Exchange Range Separation                   ... NOT USED
Multipole approximations                    ... NOT USED
Finite Nucleus Model                        ... NOT USED
CABS basis                                  ... NOT available
Auxiliary Coulomb fitting basis             ... AVAILABLE
   # of basis functions in Aux-J            ...   1185
   # of shells in Aux-J                     ...    407
   Maximum angular momentum in Aux-J        ...      4
Auxiliary J/K fitting basis                 ... NOT available
Auxiliary Correlation fitting basis         ... NOT available
Auxiliary 'external' fitting basis          ... NOT available

Checking pre-screening integrals            ... done (  0.0 sec) Dimension = 170
Check shell pair data                       ... done (  0.0 sec)
Shell pair information
Shell pair cut-off parameter TPreSel        ...   1.0e-10
Total number of shell pairs                 ...     14535
Shell pairs after pre-screening             ...     10369
Total number of primitive shell pairs       ...     62501
Primitive shell pairs kept                  ...     25787
          la=0 lb=0:   4019 shell pairs
          la=1 lb=0:   3515 shell pairs
          la=1 lb=1:    813 shell pairs
          la=2 lb=0:   1311 shell pairs
          la=2 lb=1:    603 shell pairs
          la=2 lb=2:    108 shell pairs

Calculating one electron integrals          ... done (  0.1 sec)
Calculating RI/J V-Matrix + Cholesky decomp.... done (  0.1 sec)
Calculating Nuclear repulsion               ... done (  0.0 sec) ENN=   2800.260214699634 Eh

Diagonalization of the overlap matrix:
Smallest eigenvalue                        ... 3.266e-03
Time for diagonalization                   ...    0.010 sec
Threshold for overlap eigenvalues          ... 1.000e-07
Number of eigenvalues below threshold      ... 0
Time for construction of square roots      ...    0.021 sec
Total time needed                          ...    0.040 sec

-------------------
DFT GRID GENERATION
-------------------

General Integration Accuracy     IntAcc      ... 4.159
Radial Grid Type                 RadialGrid  ... OptM3 with GC (2021)
Angular Grid (max. ang.)         AngularGrid ... 3 (Lebedev-194)
Angular grid pruning method      GridPruning ... 4 (adaptive)
Weight generation scheme         WeightScheme... mBecke (2022)
Basis function cutoff            BFCut       ... 1.0000e-10
Integration weight cutoff        WCut        ... 1.0000e-14
Partially contracted basis set               ... off
Rotationally invariant grid construction     ... off
Angular grids for H and He will be reduced by one unit

Total number of grid points                  ...    97533
Total number of batches                      ...     1544
Average number of points per batch           ...       63
Average number of grid points per atom       ...     2379
Initializing property integral containers    ... done (  0.0 sec)

SHARK setup successfully completed in   1.5 seconds

Maximum memory used throughout the entire STARTUP-calculation: 51.7 MB
-------------------------------------------------------------------------------
                                 ORCA GUESS
                   Start orbitals & Density for SCF / CASSCF
-------------------------------------------------------------------------------

------------
SCF SETTINGS
------------
Hamiltonian:
 Density Functional     Method          .... DFT(GTOs)
 Exchange Functional    Exchange        .... PBE
   PBE kappa parameter   XKappa         ....  0.804000
   PBE mue parameter    XMuePBE         ....  0.219520
 Correlation Functional Correlation     .... PBE
   PBE beta parameter  CBetaPBE         ....  0.066725
 LDA part of GGA corr.  LDAOpt          .... PW91-LDA
 Gradients option       PostSCFGGA      .... off
   NL short-range parameter             ....  6.400000
 RI-approximation to the Coulomb term is turned on
   Number of AuxJ basis functions       .... 1185


General Settings:
 Integral files         IntName         .... sp
 Hartree-Fock type      HFTyp           .... RHF
 Total Charge           Charge          ....    0
 Multiplicity           Mult            ....    1
 Number of Electrons    NEL             ....  202
 Basis Dimension        Dim             ....  334
 Nuclear Repulsion      ENuc            ....   2800.2602146996 Eh

Convergence Acceleration:
 AO-DIIS                CNVDIIS         .... on
   Start iteration      DIISMaxIt       ....    12
   Startup error        DIISStart       ....  0.200000
   # of expansion vecs  DIISMaxEq       ....     5
   Bias factor          DIISBfac        ....   1.050
   Max. coefficient     DIISMaxC        ....  10.000
 MO-DIIS                CNVKDIIS        .... off
 Trust-Rad. Augm. Hess. CNVTRAH         .... auto
   Auto Start mean grad. ratio tolernc. ....  1.125000
   Auto Start start iteration           ....    50
   Auto Start num. interpolation iter.  ....    10
   Max. Number of Micro iterations      ....    24
   Max. Number of Macro iterations      .... Maxiter - #DIIS iter
   Number of Davidson start vectors     ....     2
   Converg. threshold    (grad. norm)   ....   1.000e-04
   Grad. Scal. Fac. for Micro threshold ....   0.100
   Minimum threshold for Micro iter.    ....   1.000e-02
   NR start threshold (gradient norm)   ....   1.000e-04
   Initial trust radius                 ....   0.400
   Minimum AH scaling param. (alpha)    ....   1.000
   Maximum AH scaling param. (alpha)    .... 1000.000
   Quad. conv. algorithm                .... NR
   White noise on init. David. guess    .... on
   Maximum white noise                  ....   0.010
   Pseudo random numbers                .... off
   Inactive MOs                         .... canonical
   Orbital update algorithm             .... Taylor
   Preconditioner                       .... Diag
   Full preconditioner red. dimension   ....   250
 SOSCF                  CNVSOSCF        .... on
   Start iteration      SOSCFMaxIt      ....   150
   Startup grad/error   SOSCFStart      ....  0.003300
   Hessian update       SOSCFHessUp     .... L-BFGS
 Level Shifting         CNVShift        .... on
   Level shift para.    LevelShift      ....    0.2500
   Turn off err/grad.   ShiftErr        ....    0.0010
 Zerner damping         CNVZerner       .... off
 Static damping         CNVDamp         .... on
   Fraction old density DampFac         ....    0.7000
   Max. Damping (<1)    DampMax         ....    0.9800
   Min. Damping (>=0)   DampMin         ....    0.0000
   Turn off err/grad.   DampErr         ....    0.1000

SCF Procedure:
 Maximum # iterations   MaxIter         ....   125
 SCF integral mode      SCFMode         .... Direct
   Integral package                     .... SHARK and LIBINT hybrid scheme
 Reset frequency        DirectResetFreq ....    20
 Integral Threshold     Thresh          ....  1.000e-09 Eh
 Primitive CutOff       TCut            ....  1.000e-10 Eh

Convergence Tolerance:
 Convergence Check Mode ConvCheckMode   .... Total+1el-Energy
 Convergence forced     ConvForced      .... 0
 Energy Change          TolE            ....  1.000e-05 Eh
 1-El. energy change                    ....  1.000e-02 Eh
 Orbital Gradient       TolG            ....  1.000e-04
 Orbital Rotation angle TolX            ....  1.000e-04
 DIIS Error             TolErr          ....  5.000e-04

------------------------------
INITIAL GUESS: MODEL POTENTIAL
------------------------------
Loading Hartree-Fock densities                     ... done
Calculating cut-offs                               ... done
Initializing the effective Hamiltonian             ... done
Setting up the integral package (SHARK)            ... done
Starting the Coulomb interaction                   ... done (   0.6 sec)
Making the grid                                    ... done (   0.6 sec)
Mapping shells                                     ... done
Starting the XC term evaluation                    ... done (   0.4 sec)
  promolecular density results
     # of electrons  =    201.993861870
     EX              =   -229.999790282
     EC              =     -7.287796033
     EX+EC           =   -237.287586315
Transforming the Hamiltonian                       ... done (   0.0 sec)
Diagonalizing the Hamiltonian                      ... done (   0.0 sec)
Back transforming the eigenvectors                 ... done (   0.0 sec)
Now organizing SCF variables                       ... done
                      ------------------
                      INITIAL GUESS DONE (   1.6 sec)
                      ------------------
             **** ENERGY FILE WAS UPDATED (sp.en.tmp) ****
Finished Guess after   1.9 sec
Maximum memory used throughout the entire GUESS-calculation: 39.3 MB

-------------------------------------------------------------------------------------------
                                      ORCA LEAN-SCF
                              memory conserving SCF solver
-------------------------------------------------------------------------------------------

----------------------------------------D-I-I-S--------------------------------------------
Iteration    Energy (Eh)           Delta-E    RMSDP     MaxDP     DIISErr   Damp  Time(sec)
-------------------------------------------------------------------------------------------
               ***  Starting incremental Fock matrix formation  ***
    1    -2929.1950669164652936     0.00e+00  2.70e-03  1.38e-01  1.82e-01  0.700   2.3
    2    -2929.4203656101062734    -2.25e-01  1.73e-03  7.06e-02  7.47e-02  0.700   2.2
                               ***Turning on AO-DIIS***
    3    -2929.4914677353172010    -7.11e-02  6.76e-04  1.65e-02  2.17e-02  0.700   2.0
    4    -2929.5365648027654970    -4.51e-02  1.03e-03  3.18e-02  1.01e-02  0.000   2.0
    5    -2929.6418036519689849    -1.05e-01  3.13e-04  9.88e-03  7.75e-03  0.000   2.1
                              *** Initializing SOSCF ***
---------------------------------------S-O-S-C-F--------------------------------------
Iteration    Energy (Eh)           Delta-E    RMSDP     MaxDP     MaxGrad    Time(sec)
--------------------------------------------------------------------------------------
    6    -2929.6428971860805177    -1.09e-03  1.11e-04  2.97e-03  2.50e-03     2.0
               *** Restarting incremental Fock matrix formation ***
    7    -2929.6430373614648488    -1.40e-04  6.90e-05  1.48e-03  2.53e-04     2.2
    8    -2929.6430435360871343    -6.17e-06  2.78e-05  7.33e-04  1.47e-04     1.8
                 **** Energy Check signals convergence ****

               *****************************************************
               *                     SUCCESS                       *
               *           SCF CONVERGED AFTER   8 CYCLES          *
               *****************************************************

             **** ENERGY FILE WAS UPDATED (sp.en.tmp) ****

----------------
TOTAL SCF ENERGY
----------------

Total Energy       :      -2929.64304353608713 Eh          -79719.64008 eV

Components:
Nuclear Repulsion  :       2800.26021469963416 Eh           76198.95432 eV
Electronic Energy  :      -5729.90325823572130 Eh         -155918.59440 eV
One Electron Energy:      -9619.23621038956844 Eh         -261752.72454 eV
Two Electron Energy:       3889.33295215384715 Eh          105834.13013 eV

Virial components:
Potential Energy   :      -5848.88377286731975 Eh         -159156.21881 eV
Kinetic Energy     :       2919.24072933123261 Eh           79436.57872 eV
Virial Ratio       :          2.00356336293213

DFT components:
N(Alpha)           :      101.000191179209 electrons
N(Beta)            :      101.000191179209 electrons
N(Total)           :      202.000382358418 electrons
E(X)               :     -231.801562122585 Eh       
E(C)               :       -7.296830128500 Eh       
E(XC)              :     -239.098392251085 Eh       

---------------
SCF CONVERGENCE
---------------

  Last Energy change         ...    6.1746e-06  Tolerance :   1.0000e-05
  Last MAX-Density change    ...    7.3267e-04  Tolerance :   1.0000e-03
  Last RMS-Density change    ...    2.7808e-05  Tolerance :   1.0000e-04
  Last DIIS Error            ...    2.4999e-03  Tolerance :   5.0000e-04
  Last Orbital Gradient      ...    1.4671e-04  Tolerance :   1.0000e-04
  Last Orbital Rotation      ...    4.6309e-04  Tolerance :   1.0000e-04


----------------
ORBITAL ENERGIES
----------------

  NO   OCC          E(Eh)            E(eV) 
   0   2.0000     -88.043790     -2395.7933 
   1   2.0000     -88.043669     -2395.7900 
   2   2.0000     -87.990432     -2394.3414 
   3   2.0000     -87.987094     -2394.2505 
   4   2.0000     -76.427754     -2079.7049 
   5   2.0000     -76.426371     -2079.6673 
   6   2.0000     -18.795728      -511.4578 
   7   2.0000     -18.793503      -511.3972 
   8   2.0000     -18.788096      -511.2501 
   9   2.0000     -18.783755      -511.1319 
  10   2.0000      -9.958531      -270.9854 
  11   2.0000      -9.956912      -270.9413 
  12   2.0000      -9.955567      -270.9048 
  13   2.0000      -9.947553      -270.6867 
  14   2.0000      -9.942739      -270.5557 
  15   2.0000      -9.883713      -268.9495 
  16   2.0000      -9.882630      -268.9200 
  17   2.0000      -9.881559      -268.8909 
  18   2.0000      -9.877823      -268.7892 
  19   2.0000      -7.688471      -209.2139 
  20   2.0000      -7.688432      -209.2129 
  21   2.0000      -7.635319      -207.7676 
  22   2.0000      -7.632032      -207.6781 
  23   2.0000      -6.425179      -174.8380 
  24   2.0000      -6.423450      -174.7909 
  25   2.0000      -5.716252      -155.5471 
  26   2.0000      -5.716226      -155.5464 
  27   2.0000      -5.713028      -155.4594 
  28   2.0000      -5.712963      -155.4576 
  29   2.0000      -5.705570      -155.2565 
  30   2.0000      -5.705457      -155.2534 
  31   2.0000      -5.664124      -154.1286 
  32   2.0000      -5.660878      -154.0403 
  33   2.0000      -5.655879      -153.9043 
  34   2.0000      -5.655674      -153.8987 
  35   2.0000      -5.652687      -153.8174 
  36   2.0000      -5.652252      -153.8056 
  37   2.0000      -4.647504      -126.4650 
  38   2.0000      -4.647035      -126.4522 
  39   2.0000      -4.645798      -126.4186 
  40   2.0000      -4.645789      -126.4184 
  41   2.0000      -4.645412      -126.4081 
  42   2.0000      -4.644002      -126.3697 
  43   2.0000      -0.988243       -26.8914 
  44   2.0000      -0.985233       -26.8096 
  45   2.0000      -0.946172       -25.7467 
  46   2.0000      -0.942140       -25.6369 
  47   2.0000      -0.766018       -20.8444 
  48   2.0000      -0.720606       -19.6087 
  49   2.0000      -0.708757       -19.2863 
  50   2.0000      -0.685730       -18.6597 
  51   2.0000      -0.683700       -18.6044 
  52   2.0000      -0.672950       -18.3119 
  53   2.0000      -0.652719       -17.7614 
  54   2.0000      -0.641118       -17.4457 
  55   2.0000      -0.598659       -16.2904 
  56   2.0000      -0.595029       -16.1915 
  57   2.0000      -0.573208       -15.5978 
  58   2.0000      -0.568010       -15.4563 
  59   2.0000      -0.562448       -15.3050 
  60   2.0000      -0.503098       -13.6900 
  61   2.0000      -0.491783       -13.3821 
  62   2.0000      -0.475643       -12.9429 
  63   2.0000      -0.468296       -12.7430 
  64   2.0000      -0.457138       -12.4394 
  65   2.0000      -0.441068       -12.0021 
  66   2.0000      -0.440072       -11.9750 
  67   2.0000      -0.434400       -11.8206 
  68   2.0000      -0.426623       -11.6090 
  69   2.0000      -0.416211       -11.3257 
  70   2.0000      -0.405328       -11.0295 
  71   2.0000      -0.398064       -10.8319 
  72   2.0000      -0.388501       -10.5717 
  73   2.0000      -0.387772       -10.5518 
  74   2.0000      -0.383157       -10.4262 
  75   2.0000      -0.378921       -10.3110 
  76   2.0000      -0.370267       -10.0755 
  77   2.0000      -0.354546        -9.6477 
  78   2.0000      -0.351166        -9.5557 
  79   2.0000      -0.347828        -9.4649 
  80   2.0000      -0.346726        -9.4349 
  81   2.0000      -0.344762        -9.3814 
  82   2.0000      -0.340088        -9.2543 
  83   2.0000      -0.336622        -9.1599 
  84   2.0000      -0.331735        -9.0270 
  85   2.0000      -0.321872        -8.7586 
  86   2.0000      -0.310557        -8.4507 
  87   2.0000      -0.298884        -8.1330 
  88   2.0000      -0.296340        -8.0638 
  89   2.0000      -0.285873        -7.7790 
  90   2.0000      -0.282020        -7.6742 
  91   2.0000      -0.277398        -7.5484 
  92   2.0000      -0.270285        -7.3548 
  93   2.0000      -0.267259        -7.2725 
  94   2.0000      -0.253411        -6.8957 
  95   2.0000      -0.233557        -6.3554 
  96   2.0000      -0.220243        -5.9931 
  97   2.0000      -0.213906        -5.8207 
  98   2.0000      -0.208573        -5.6756 
  99   2.0000      -0.199706        -5.4343 
 100   2.0000      -0.198736        -5.4079 
 101   0.0000      -0.046748        -1.2721 
 102   0.0000      -0.024473        -0.6659 
 103   0.0000      -0.003026        -0.0823 
 104   0.0000      -0.000864        -0.0235 
 105   0.0000       0.010929         0.2974 
 106   0.0000       0.028380         0.7722 
 107   0.0000       0.034519         0.9393 
 108   0.0000       0.036718         0.9992 
 109   0.0000       0.041955         1.1416 
 110   0.0000       0.049720         1.3530 
 111   0.0000       0.053115         1.4453 
*Only the first 10 virtual orbitals were printed.

                    ********************************
                    * MULLIKEN POPULATION ANALYSIS *
                    ********************************

-----------------------
MULLIKEN ATOMIC CHARGES
-----------------------
   0 C :   -0.294936
   1 C :   -0.013091
   2 O :   -0.368360
   3 P :    0.614340
   4 S :   -0.336577
   5 O :   -0.351324
   6 C :   -0.005641
   7 C :   -0.299390
   8 S :   -0.084673
   9 C :   -0.350383
  10 S :   -0.100352
  11 P :    0.614431
  12 S :   -0.334778
  13 O :   -0.367131
  14 C :   -0.012464
  15 C :   -0.309321
  16 O :   -0.351286
  17 C :   -0.010319
  18 C :   -0.289292
  19 H :    0.130509
  20 H :    0.113947
  21 H :    0.108300
  22 H :    0.108559
  23 H :    0.104135
  24 H :    0.113276
  25 H :    0.105402
  26 H :    0.120230
  27 H :    0.110347
  28 H :    0.113713
  29 H :    0.191411
  30 H :    0.191275
  31 H :    0.109824
  32 H :    0.114835
  33 H :    0.126433
  34 H :    0.111503
  35 H :    0.124797
  36 H :    0.114017
  37 H :    0.101696
  38 H :    0.117699
  39 H :    0.107689
  40 H :    0.110951
Sum of atomic charges:   -0.0000000

--------------------------------
MULLIKEN REDUCED ORBITAL CHARGES
--------------------------------
  0 C s       :     3.094984  s :     3.094984
      pz      :     1.062471  p :     3.172213
      px      :     1.001341
      py      :     1.108402
      dz2     :     0.003831  d :     0.027739
      dxz     :     0.007419
      dyz     :     0.005134
      dx2y2   :     0.007364
      dxy     :     0.003990

  1 C s       :     3.078898  s :     3.078898
      pz      :     0.857728  p :     2.874110
      px      :     0.928789
      py      :     1.087593
      dz2     :     0.011548  d :     0.060082
      dxz     :     0.017987
      dyz     :     0.010413
      dx2y2   :     0.012893
      dxy     :     0.007241

  2 O s       :     3.761112  s :     3.761112
      pz      :     1.508074  p :     4.594271
      px      :     1.540916
      py      :     1.545281
      dz2     :     0.002813  d :     0.012978
      dxz     :     0.002218
      dyz     :     0.002525
      dx2y2   :     0.002649
      dxy     :     0.002772

  3 P s       :     5.211717  s :     5.211717
      pz      :     2.882555  p :     8.584157
      px      :     2.870493
      py      :     2.831109
      dz2     :     0.097115  d :     0.589786
      dxz     :     0.129860
      dyz     :     0.118029
      dx2y2   :     0.117317
      dxy     :     0.127464

  4 S s       :     5.922035  s :     5.922035
      pz      :     3.649048  p :    10.371711
      px      :     3.486301
      py      :     3.236363
      dz2     :     0.006028  d :     0.042830
      dxz     :     0.003257
      dyz     :     0.007606
      dx2y2   :     0.010877
      dxy     :     0.015062

  5 O s       :     3.755108  s :     3.755108
      pz      :     1.226706  p :     4.582896
      px      :     1.668938
      py      :     1.687252
      dz2     :     0.002451  d :     0.013320
      dxz     :     0.003812
      dyz     :     0.003208
      dx2y2   :     0.001871
      dxy     :     0.001977

  6 C s       :     3.080793  s :     3.080793
      pz      :     0.729941  p :     2.864442
      px      :     1.068040
      py      :     1.066461
      dz2     :     0.018320  d :     0.060407
      dxz     :     0.015233
      dyz     :     0.010212
      dx2y2   :     0.011778
      dxy     :     0.004864

  7 C s       :     3.097459  s :     3.097459
      pz      :     1.055729  p :     3.174002
      px      :     1.050448
      py      :     1.067825
      dz2     :     0.007328  d :     0.027928
      dxz     :     0.005018
      dyz     :     0.002311
      dx2y2   :     0.009285
      dxy     :     0.003986

  8 S s       :     5.883310  s :     5.883310
      pz      :     3.504125  p :    10.125314
      px      :     3.429088
      py      :     3.192101
      dz2     :     0.011770  d :     0.076050
      dxz     :     0.018384
      dyz     :     0.011730
      dx2y2   :     0.021120
      dxy     :     0.013045

  9 C s       :     3.215225  s :     3.215225
      pz      :     0.990399  p :     3.094806
      px      :     1.115788
      py      :     0.988619
      dz2     :     0.009333  d :     0.040352
      dxz     :     0.009226
      dyz     :     0.006301
      dx2y2   :     0.006062
      dxy     :     0.009430

 10 S s       :     5.883094  s :     5.883094
      pz      :     3.229554  p :    10.141317
      px      :     3.327013
      py      :     3.584750
      dz2     :     0.025449  d :     0.075942
      dxz     :     0.015858
      dyz     :     0.010344
      dx2y2   :     0.006730
      dxy     :     0.017561

 11 P s       :     5.218109  s :     5.218109
      pz      :     2.841498  p :     8.579333
      px      :     2.875032
      py      :     2.862803
      dz2     :     0.136221  d :     0.588127
      dxz     :     0.121635
      dyz     :     0.115549
      dx2y2   :     0.092016
      dxy     :     0.122705

 12 S s       :     5.923526  s :     5.923526
      pz      :     3.159499  p :    10.368481
      px      :     3.535421
      py      :     3.673561
      dz2     :     0.016831  d :     0.042770
      dxz     :     0.013774
      dyz     :     0.007582
      dx2y2   :     0.002463
      dxy     :     0.002120

 13 O s       :     3.752014  s :     3.752014
      pz      :     1.538100  p :     4.602352
      px      :     1.617202
      py      :     1.447050
      dz2     :     0.002906  d :     0.012765
      dxz     :     0.002887
      dyz     :     0.002037
      dx2y2   :     0.003068
      dxy     :     0.001867

 14 C s       :     3.082232  s :     3.082232
      pz      :     1.062607  p :     2.869484
      px      :     1.033863
      py      :     0.773013
      dz2     :     0.009198  d :     0.060748
      dxz     :     0.011276
      dyz     :     0.011839
      dx2y2   :     0.012713
      dxy     :     0.015723

 15 C s       :     3.106086  s :     3.106086
      pz      :     1.042923  p :     3.175261
      px      :     1.075827
      py      :     1.056511
      dz2     :     0.003875  d :     0.027975
      dxz     :     0.008782
      dyz     :     0.005531
      dx2y2   :     0.003565
      dxy     :     0.006222

 16 O s       :     3.751997  s :     3.751997
      pz      :     1.644004  p :     4.586193
      px      :     1.721014
      py      :     1.221175
      dz2     :     0.002091  d :     0.013095
      dxz     :     0.001769
      dyz     :     0.003953
      dx2y2   :     0.002155
      dxy     :     0.003127

 17 C s       :     3.082003  s :     3.082003
      pz      :     1.023154  p :     2.867764
      px      :     1.070424
      py      :     0.774185
      dz2     :     0.014169  d :     0.060552
      dxz     :     0.005078
      dyz     :     0.012688
      dx2y2   :     0.013123
      dxy     :     0.015494

 18 C s       :     3.092261  s :     3.092261
      pz      :     1.071571  p :     3.169109
      px      :     1.044277
      py      :     1.053260
      dz2     :     0.008575  d :     0.027923
      dxz     :     0.003203
      dyz     :     0.004195
      dx2y2   :     0.005925
      dxy     :     0.006025

 19 H s       :     0.869491  s :     0.869491

 20 H s       :     0.886053  s :     0.886053

 21 H s       :     0.891700  s :     0.891700

 22 H s       :     0.891441  s :     0.891441

 23 H s       :     0.895865  s :     0.895865

 24 H s       :     0.886724  s :     0.886724

 25 H s       :     0.894598  s :     0.894598

 26 H s       :     0.879770  s :     0.879770

 27 H s       :     0.889653  s :     0.889653

 28 H s       :     0.886287  s :     0.886287

 29 H s       :     0.808589  s :     0.808589

 30 H s       :     0.808725  s :     0.808725

 31 H s       :     0.890176  s :     0.890176

 32 H s       :     0.885165  s :     0.885165

 33 H s       :     0.873567  s :     0.873567

 34 H s       :     0.888497  s :     0.888497

 35 H s       :     0.875203  s :     0.875203

 36 H s       :     0.885983  s :     0.885983

 37 H s       :     0.898304  s :     0.898304

 38 H s       :     0.882301  s :     0.882301

 39 H s       :     0.892311  s :     0.892311

 40 H s       :     0.889049  s :     0.889049


------------------------
MULLIKEN OVERLAP CHARGES
------------------------
B(  0-C ,  1-C ) :   0.9171 B(  0-C ,  2-O ) :  -0.1044 B(  0-C , 19-H ) :   0.7283 
B(  0-C , 20-H ) :   0.7327 B(  0-C , 21-H ) :   0.6900 B(  0-C , 22-H ) :  -0.0526 
B(  0-C , 23-H ) :  -0.0620 B(  1-C ,  2-O ) :   0.5516 B(  1-C ,  3-P ) :  -0.0821 
B(  1-C , 22-H ) :   0.7371 B(  1-C , 23-H ) :   0.7007 B(  2-O ,  3-P ) :   0.6602 
B(  2-O ,  4-S ) :  -0.0641 B(  2-O ,  5-O ) :  -0.0672 B(  2-O ,  8-S ) :  -0.0642 
B(  2-O , 22-H ) :  -0.0559 B(  2-O , 23-H ) :  -0.0605 B(  3-P ,  4-S ) :   0.9067 
B(  3-P ,  5-O ) :   0.6425 B(  3-P ,  6-C ) :  -0.0974 B(  3-P ,  8-S ) :   0.5102 
B(  3-P ,  9-C ) :  -0.0740 B(  4-S ,  5-O ) :  -0.0696 B(  4-S ,  8-S ) :  -0.0955 
B(  4-S , 19-H ) :   0.0530 B(  4-S , 24-H ) :   0.0603 B(  4-S , 30-H ) :   0.0688 
B(  5-O ,  6-C ) :   0.5572 B(  5-O ,  7-C ) :  -0.0932 B(  5-O ,  8-S ) :  -0.0646 
B(  5-O , 24-H ) :  -0.0631 B(  5-O , 25-H ) :  -0.0618 B(  6-C ,  7-C ) :   0.8998 
B(  6-C , 24-H ) :   0.7124 B(  6-C , 25-H ) :   0.7222 B(  7-C , 24-H ) :  -0.0672 
B(  7-C , 25-H ) :  -0.0530 B(  7-C , 26-H ) :   0.7220 B(  7-C , 27-H ) :   0.7008 
B(  7-C , 28-H ) :   0.7301 B(  8-S ,  9-C ) :   0.4845 B(  8-S , 10-S ) :  -0.1632 
B(  8-S , 29-H ) :  -0.0638 B(  8-S , 30-H ) :  -0.0600 B(  9-C , 10-S ) :   0.4936 
B(  9-C , 11-P ) :  -0.0753 B(  9-C , 29-H ) :   0.6722 B(  9-C , 30-H ) :   0.6739 
B( 10-S , 11-P ) :   0.4886 B( 10-S , 12-S ) :  -0.0932 B( 10-S , 13-O ) :  -0.0697 
B( 10-S , 16-O ) :  -0.0625 B( 10-S , 29-H ) :  -0.0619 B( 10-S , 30-H ) :  -0.0637 
B( 11-P , 12-S ) :   0.9038 B( 11-P , 13-O ) :   0.6728 B( 11-P , 14-C ) :  -0.0960 
B( 11-P , 16-O ) :   0.6509 B( 11-P , 17-C ) :  -0.1009 B( 12-S , 13-O ) :  -0.0584 
B( 12-S , 16-O ) :  -0.0724 B( 12-S , 29-H ) :   0.0708 B( 12-S , 36-H ) :   0.0681 
B( 13-O , 14-C ) :   0.5697 B( 13-O , 15-C ) :  -0.0991 B( 13-O , 16-O ) :  -0.0724 
B( 13-O , 31-H ) :  -0.0570 B( 13-O , 32-H ) :  -0.0597 B( 14-C , 15-C ) :   0.9143 
B( 14-C , 31-H ) :   0.7336 B( 14-C , 32-H ) :   0.7473 B( 15-C , 32-H ) :  -0.0757 
B( 15-C , 33-H ) :   0.7367 B( 15-C , 34-H ) :   0.6875 B( 15-C , 35-H ) :   0.7308 
B( 16-O , 17-C ) :   0.5562 B( 16-O , 18-C ) :  -0.0961 B( 16-O , 36-H ) :  -0.0619 
B( 16-O , 37-H ) :  -0.0636 B( 17-C , 18-C ) :   0.8963 B( 17-C , 36-H ) :   0.7036 
B( 17-C , 37-H ) :   0.7173 B( 18-C , 36-H ) :  -0.0662 B( 18-C , 37-H ) :  -0.0551 
B( 18-C , 38-H ) :   0.7236 B( 18-C , 39-H ) :   0.6998 B( 18-C , 40-H ) :   0.7302 
B( 22-H , 23-H ) :  -0.0682 B( 24-H , 25-H ) :  -0.0637 B( 26-H , 28-H ) :  -0.0518 
B( 31-H , 32-H ) :  -0.0702 B( 33-H , 35-H ) :  -0.0522 B( 36-H , 37-H ) :  -0.0632 
B( 38-H , 40-H ) :  -0.0516 


                     *******************************
                     * LOEWDIN POPULATION ANALYSIS *
                     *******************************

----------------------
LOEWDIN ATOMIC CHARGES
----------------------
   0 C :   -0.364038
   1 C :   -0.116314
   2 O :   -0.244012
   3 P :    0.569345
   4 S :   -0.319806
   5 O :   -0.227553
   6 C :   -0.118999
   7 C :   -0.363058
   8 S :    0.090831
   9 C :   -0.479311
  10 S :    0.081391
  11 P :    0.571831
  12 S :   -0.318396
  13 O :   -0.241825
  14 C :   -0.114446
  15 C :   -0.369238
  16 O :   -0.229356
  17 C :   -0.123512
  18 C :   -0.360405
  19 H :    0.124459
  20 H :    0.125777
  21 H :    0.129162
  22 H :    0.119507
  23 H :    0.106769
  24 H :    0.107830
  25 H :    0.118413
  26 H :    0.122015
  27 H :    0.129575
  28 H :    0.124986
  29 H :    0.130599
  30 H :    0.130756
  31 H :    0.121749
  32 H :    0.109266
  33 H :    0.129879
  34 H :    0.130009
  35 H :    0.120907
  36 H :    0.104695
  37 H :    0.115460
  38 H :    0.123071
  39 H :    0.128334
  40 H :    0.123650

-------------------------------
LOEWDIN REDUCED ORBITAL CHARGES
-------------------------------
  0 C s       :     2.953335  s :     2.953335
      pz      :     1.124256  p :     3.342012
      px      :     1.071097
      py      :     1.146659
      dz2     :     0.009740  d :     0.068691
      dxz     :     0.018328
      dyz     :     0.012363
      dx2y2   :     0.019243
      dxy     :     0.009017

  1 C s       :     2.927963  s :     2.927963
      pz      :     0.923221  p :     3.054343
      px      :     0.997576
      py      :     1.133545
      dz2     :     0.026268  d :     0.134008
      dxz     :     0.039015
      dyz     :     0.023476
      dx2y2   :     0.030942
      dxy     :     0.014308

  2 O s       :     3.501930  s :     3.501930
      pz      :     1.547575  p :     4.718436
      px      :     1.566257
      py      :     1.604604
      dz2     :     0.005469  d :     0.023647
      dxz     :     0.004508
      dyz     :     0.003909
      dx2y2   :     0.004443
      dxy     :     0.005317

  3 P s       :     5.058354  s :     5.058354
      pz      :     2.843741  p :     8.554164
      px      :     2.851839
      py      :     2.858584
      dz2     :     0.131366  d :     0.818137
      dxz     :     0.188146
      dyz     :     0.159201
      dx2y2   :     0.155296
      dxy     :     0.184128

  4 S s       :     5.767463  s :     5.767463
      pz      :     3.661323  p :    10.494784
      px      :     3.522551
      py      :     3.310910
      dz2     :     0.008734  d :     0.057560
      dxz     :     0.003762
      dyz     :     0.009290
      dx2y2   :     0.013384
      dxy     :     0.022391

  5 O s       :     3.496471  s :     3.496471
      pz      :     1.306865  p :     4.706949
      px      :     1.686806
      py      :     1.713278
      dz2     :     0.005318  d :     0.024134
      dxz     :     0.007639
      dyz     :     0.006548
      dx2y2   :     0.002006
      dxy     :     0.002622

  6 C s       :     2.928753  s :     2.928753
      pz      :     0.824138  p :     3.056041
      px      :     1.112589
      py      :     1.119314
      dz2     :     0.039686  d :     0.134204
      dxz     :     0.034235
      dyz     :     0.021626
      dx2y2   :     0.027195
      dxy     :     0.011462

  7 C s       :     2.953191  s :     2.953191
      pz      :     1.118684  p :     3.340529
      px      :     1.100618
      py      :     1.121227
      dz2     :     0.018235  d :     0.069338
      dxz     :     0.013158
      dyz     :     0.005496
      dx2y2   :     0.021830
      dxy     :     0.010618

  8 S s       :     5.644717  s :     5.644717
      pz      :     3.507755  p :    10.168371
      px      :     3.428428
      py      :     3.232188
      dz2     :     0.014114  d :     0.096080
      dxz     :     0.023977
      dyz     :     0.014008
      dx2y2   :     0.027535
      dxy     :     0.016445

  9 C s       :     3.063402  s :     3.063402
      pz      :     1.081675  p :     3.327061
      px      :     1.168333
      py      :     1.077053
      dz2     :     0.021821  d :     0.088847
      dxz     :     0.020394
      dyz     :     0.012829
      dx2y2   :     0.013123
      dxy     :     0.020680

 10 S s       :     5.642832  s :     5.642832
      pz      :     3.273128  p :    10.179889
      px      :     3.325172
      py      :     3.581588
      dz2     :     0.032444  d :     0.095888
      dxz     :     0.020449
      dyz     :     0.012166
      dx2y2   :     0.008015
      dxy     :     0.022813

 11 P s       :     5.059845  s :     5.059845
      pz      :     2.870868  p :     8.552815
      px      :     2.856805
      py      :     2.825142
      dz2     :     0.189986  d :     0.815508
      dxz     :     0.175632
      dyz     :     0.152873
      dx2y2   :     0.123814
      dxy     :     0.173204

 12 S s       :     5.768309  s :     5.768309
      pz      :     3.249918  p :    10.492599
      px      :     3.566461
      py      :     3.676220
      dz2     :     0.023644  d :     0.057488
      dxz     :     0.020127
      dyz     :     0.008584
      dx2y2   :     0.002929
      dxy     :     0.002204

 13 O s       :     3.493809  s :     3.493809
      pz      :     1.591419  p :     4.724550
      px      :     1.644076
      py      :     1.489055
      dz2     :     0.005270  d :     0.023466
      dxz     :     0.005686
      dyz     :     0.003546
      dx2y2   :     0.005609
      dxy     :     0.003356

 14 C s       :     2.925113  s :     2.925113
      pz      :     1.094635  p :     3.053866
      px      :     1.092654
      py      :     0.866576
      dz2     :     0.019339  d :     0.135467
      dxz     :     0.027337
      dyz     :     0.027259
      dx2y2   :     0.026335
      dxy     :     0.035196

 15 C s       :     2.953407  s :     2.953407
      pz      :     1.104591  p :     3.346623
      px      :     1.126824
      py      :     1.115208
      dz2     :     0.009317  d :     0.069208
      dxz     :     0.022128
      dyz     :     0.014084
      dx2y2   :     0.007877
      dxy     :     0.015801

 16 O s       :     3.494269  s :     3.494269
      pz      :     1.679961  p :     4.711247
      px      :     1.723204
      py      :     1.308082
      dz2     :     0.003018  d :     0.023840
      dxz     :     0.002183
      dyz     :     0.008147
      dx2y2   :     0.004431
      dxy     :     0.006061

 17 C s       :     2.929022  s :     2.929022
      pz      :     1.081209  p :     3.059743
      px      :     1.112749
      py      :     0.865786
      dz2     :     0.033332  d :     0.134747
      dxz     :     0.009945
      dyz     :     0.027239
      dx2y2   :     0.027969
      dxy     :     0.036262

 18 C s       :     2.953220  s :     2.953220
      pz      :     1.125666  p :     3.337836
      px      :     1.096386
      py      :     1.115784
      dz2     :     0.021190  d :     0.069349
      dxz     :     0.007645
      dyz     :     0.009953
      dx2y2   :     0.014432
      dxy     :     0.016128

 19 H s       :     0.875541  s :     0.875541

 20 H s       :     0.874223  s :     0.874223

 21 H s       :     0.870838  s :     0.870838

 22 H s       :     0.880493  s :     0.880493

 23 H s       :     0.893231  s :     0.893231

 24 H s       :     0.892170  s :     0.892170

 25 H s       :     0.881587  s :     0.881587

 26 H s       :     0.877985  s :     0.877985

 27 H s       :     0.870425  s :     0.870425

 28 H s       :     0.875014  s :     0.875014

 29 H s       :     0.869401  s :     0.869401

 30 H s       :     0.869244  s :     0.869244

 31 H s       :     0.878251  s :     0.878251

 32 H s       :     0.890734  s :     0.890734

 33 H s       :     0.870121  s :     0.870121

 34 H s       :     0.869991  s :     0.869991

 35 H s       :     0.879093  s :     0.879093

 36 H s       :     0.895305  s :     0.895305

 37 H s       :     0.884540  s :     0.884540

 38 H s       :     0.876929  s :     0.876929

 39 H s       :     0.871666  s :     0.871666

 40 H s       :     0.876350  s :     0.876350


---------------------------------
LOEWDIN BOND ORDERS (THRESH 0.050000)
---------------------------------
B(  0-C ,  1-C ) :   1.1566 B(  0-C ,  2-O ) :   0.0590 B(  0-C , 19-H ) :   0.9260 
B(  0-C , 20-H ) :   0.9364 B(  0-C , 21-H ) :   0.9269 B(  1-C ,  2-O ) :   1.0877 
B(  1-C ,  3-P ) :   0.0642 B(  1-C , 22-H ) :   0.9188 B(  1-C , 23-H ) :   0.9106 
B(  2-O ,  3-P ) :   1.2832 B(  2-O ,  4-S ) :   0.0885 B(  2-O ,  5-O ) :   0.0504 
B(  2-O ,  8-S ) :   0.0613 B(  3-P ,  4-S ) :   1.7104 B(  3-P ,  5-O ) :   1.2984 
B(  3-P ,  6-C ) :   0.0667 B(  3-P ,  8-S ) :   1.0510 B(  4-S ,  5-O ) :   0.0956 
B(  4-S ,  8-S ) :   0.1264 B(  5-O ,  6-C ) :   1.0801 B(  5-O ,  7-C ) :   0.0608 
B(  5-O ,  8-S ) :   0.0514 B(  6-C ,  7-C ) :   1.1573 B(  6-C , 24-H ) :   0.9061 
B(  6-C , 25-H ) :   0.9161 B(  7-C , 26-H ) :   0.9291 B(  7-C , 27-H ) :   0.9271 
B(  7-C , 28-H ) :   0.9369 B(  8-S ,  9-C ) :   1.1630 B(  8-S , 10-S ) :   0.1025 
B(  9-C , 10-S ) :   1.1672 B(  9-C , 29-H ) :   0.9118 B(  9-C , 30-H ) :   0.9124 
B( 10-S , 11-P ) :   1.0400 B( 10-S , 12-S ) :   0.1259 B( 10-S , 13-O ) :   0.0634 
B( 10-S , 16-O ) :   0.0537 B( 11-P , 12-S ) :   1.7095 B( 11-P , 13-O ) :   1.2887 
B( 11-P , 14-C ) :   0.0593 B( 11-P , 16-O ) :   1.2930 B( 11-P , 17-C ) :   0.0664 
B( 12-S , 13-O ) :   0.0841 B( 12-S , 16-O ) :   0.0987 B( 13-O , 14-C ) :   1.0944 
B( 13-O , 15-C ) :   0.0576 B( 13-O , 16-O ) :   0.0510 B( 14-C , 15-C ) :   1.1587 
B( 14-C , 31-H ) :   0.9168 B( 14-C , 32-H ) :   0.9145 B( 15-C , 33-H ) :   0.9335 
B( 15-C , 34-H ) :   0.9241 B( 15-C , 35-H ) :   0.9270 B( 16-O , 17-C ) :   1.0823 
B( 16-O , 18-C ) :   0.0615 B( 17-C , 18-C ) :   1.1559 B( 17-C , 36-H ) :   0.9033 
B( 17-C , 37-H ) :   0.9155 B( 18-C , 38-H ) :   0.9309 B( 18-C , 39-H ) :   0.9280 
B( 18-C , 40-H ) :   0.9376 

------------------------------------------
LOEWDIN REDUCED ORBITAL POPULATIONS PER MO
-------------------------------------------
THRESHOLD FOR PRINTING IS 0.1%%
                      0         1         2         3         4         5   
                 -88.04379 -88.04367 -87.99043 -87.98709 -76.42775 -76.42637
                   2.00000   2.00000   2.00000   2.00000   2.00000   2.00000
                  --------  --------  --------  --------  --------  --------
 3 P  s               0.0       0.0       0.0       0.0     100.0       0.0
 4 S  s               0.0       0.0     100.0       0.0       0.0       0.0
 8 S  s               0.5      99.5       0.0       0.0       0.0       0.0
10 S  s              99.5       0.5       0.0       0.0       0.0       0.0
11 P  s               0.0       0.0       0.0       0.0       0.0     100.0
12 S  s               0.0       0.0       0.0     100.0       0.0       0.0

                      6         7         8         9        10        11   
                 -18.79573 -18.79350 -18.78810 -18.78375  -9.95853  -9.95691
                   2.00000   2.00000   2.00000   2.00000   2.00000   2.00000
                  --------  --------  --------  --------  --------  --------
 1 C  s               0.0       0.0       0.0       0.0       0.0      99.7
 2 O  s              99.9       0.0       0.0       0.0       0.0       0.0
 5 O  s               0.0       0.0      99.9       0.0       0.0       0.0
13 O  s               0.0      99.9       0.0       0.0       0.0       0.0
14 C  s               0.0       0.0       0.0       0.0      99.7       0.0
16 O  s               0.0       0.0       0.0      99.9       0.0       0.0

                     12        13        14        15        16        17   
                  -9.95557  -9.94755  -9.94274  -9.88371  -9.88263  -9.88156
                   2.00000   2.00000   2.00000   2.00000   2.00000   2.00000
                  --------  --------  --------  --------  --------  --------
 0 C  s               0.0       0.0       0.0       0.0      99.7       0.0
 6 C  s               0.0      99.7       0.0       0.0       0.0       0.0
 7 C  s               0.0       0.0       0.0       0.0       0.0      99.7
 9 C  s              99.8       0.0       0.0       0.0       0.0       0.0
15 C  s               0.0       0.0       0.0      99.7       0.0       0.0
17 C  s               0.0       0.0      99.7       0.0       0.0       0.0

                     18        19        20        21        22        23   
                  -9.87782  -7.68847  -7.68843  -7.63532  -7.63203  -6.42518
                   2.00000   2.00000   2.00000   2.00000   2.00000   2.00000
                  --------  --------  --------  --------  --------  --------
 2 O  py              0.0       0.0       0.0       0.0       0.0       0.2
 3 P  s               0.0       0.0       0.0       0.0       0.0      99.3
 4 S  s               0.0       0.0       0.0      99.9       0.0       0.0
 5 O  pz              0.0       0.0       0.0       0.0       0.0       0.1
 8 S  s               0.0       0.4      99.4       0.0       0.0       0.0
 9 C  pz              0.0       0.1       0.0       0.0       0.0       0.0
 9 C  py              0.0       0.0       0.1       0.0       0.0       0.0
10 S  s               0.0      99.3       0.4       0.0       0.0       0.0
12 S  s               0.0       0.0       0.0       0.0      99.9       0.0
18 C  s              99.7       0.0       0.0       0.0       0.0       0.0

                     24        25        26        27        28        29   
                  -6.42345  -5.71625  -5.71623  -5.71303  -5.71296  -5.70557
                   2.00000   2.00000   2.00000   2.00000   2.00000   2.00000
                  --------  --------  --------  --------  --------  --------
 8 S  pz              0.0      14.2       0.1       0.4      43.6       0.0
 8 S  px              0.0      46.5       0.4       0.1       7.2       0.0
 8 S  py              0.0      38.5       0.3       0.4      48.3       0.0
10 S  pz              0.0       0.2      27.2      60.1       0.5      12.0
10 S  px              0.0       0.5      60.8       7.7       0.1      31.0
10 S  py              0.0       0.1      11.3      31.3       0.3      57.0
11 P  s              99.3       0.0       0.0       0.0       0.0       0.0
13 O  pz              0.1       0.0       0.0       0.0       0.0       0.0
16 O  py              0.2       0.0       0.0       0.0       0.0       0.0

                     30        31        32        33        34        35   
                  -5.70546  -5.66412  -5.66088  -5.65588  -5.65567  -5.65269
                   2.00000   2.00000   2.00000   2.00000   2.00000   2.00000
                  --------  --------  --------  --------  --------  --------
 4 S  pz              0.0       3.7       0.0      46.8      49.5       0.0
 4 S  px              0.0      28.8       0.0      27.8      43.5       0.0
 4 S  py              0.0      67.5       0.0      25.4       7.0       0.0
 8 S  pz             41.7       0.0       0.0       0.0       0.0       0.0
 8 S  px             45.9       0.0       0.0       0.0       0.0       0.0
 8 S  py             12.4       0.0       0.0       0.0       0.0       0.0
12 S  pz              0.0       0.0      78.1       0.0       0.0      18.0
12 S  px              0.0       0.0      21.3       0.0       0.0      52.3
12 S  py              0.0       0.0       0.6       0.0       0.0      29.7

                     36        37        38        39        40        41   
                  -5.65225  -4.64750  -4.64703  -4.64580  -4.64579  -4.64541
                   2.00000   2.00000   2.00000   2.00000   2.00000   2.00000
                  --------  --------  --------  --------  --------  --------
 3 P  pz              0.0      27.6      35.7      35.2       1.5       0.0
 3 P  px              0.0      62.0       0.5      35.9       1.6       0.0
 3 P  py              0.0      10.4      63.7      24.8       1.0       0.0
11 P  pz              0.0       0.0       0.0       0.5      11.7      34.8
11 P  px              0.0       0.0       0.0       2.8      64.3       3.4
11 P  py              0.0       0.0       0.0       0.8      19.8      61.7
12 S  pz              3.8       0.0       0.0       0.0       0.0       0.0
12 S  px             26.4       0.0       0.0       0.0       0.0       0.0
12 S  py             69.7       0.0       0.0       0.0       0.0       0.0

                     42        43        44        45        46        47   
                  -4.64400  -0.98824  -0.98523  -0.94617  -0.94214  -0.76602
                   2.00000   2.00000   2.00000   2.00000   2.00000   2.00000
                  --------  --------  --------  --------  --------  --------
 0 C  s               0.0       0.2       0.0       0.3       0.0       0.1
 0 C  px              0.0       0.4       0.0       0.5       0.0       0.0
 1 C  s               0.0       3.5       0.2       4.2       0.2       0.3
 1 C  pz              0.0       2.4       0.1       2.3       0.1       0.0
 1 C  px              0.0       1.4       0.1       1.3       0.0       0.0
 1 C  dxz             0.0       0.2       0.0       0.2       0.0       0.0
 2 O  s               0.0      30.2       1.7      26.2       1.0       0.2
 2 O  pz              0.0       0.1       0.0       0.7       0.0       0.1
 2 O  px              0.0       0.1       0.0       0.1       0.0       0.2
 2 O  py              0.0       1.4       0.1       0.4       0.0       0.1
 3 P  s               0.0      13.6       0.6       0.1       0.0       2.8
 3 P  pz              0.0       0.6       0.0       5.0       0.2       1.0
 3 P  px              0.0       0.0       0.0       4.6       0.2       0.9
 3 P  py              0.0       4.2       0.2       0.7       0.0       0.5
 3 P  dz2             0.0       0.0       0.0       0.7       0.0       0.0
 3 P  dxz             0.0       0.7       0.0       0.3       0.0       0.2
 3 P  dyz             0.0       0.0       0.0       0.8       0.0       0.0
 3 P  dx2y2           0.0       0.0       0.0       0.2       0.0       0.0
 3 P  dxy             0.0       0.2       0.0       1.2       0.0       0.0
 4 S  s               0.0       0.3       0.0       0.0       0.0       0.6
 4 S  py              0.0       0.3       0.0       0.0       0.0       0.1
 5 O  s               0.0      24.2       1.0      31.8       1.6       0.3
 5 O  pz              0.0       0.1       0.0       0.2       0.0       0.7
 5 O  px              0.0       1.0       0.1       0.4       0.0       0.0
 5 O  py              0.0       0.4       0.0       0.6       0.0       0.0
 6 C  s               0.0       2.7       0.1       4.7       0.2       0.6
 6 C  pz              0.0       3.0       0.1       3.9       0.2       0.0
 6 C  py              0.0       0.2       0.0       0.3       0.0       0.0
 6 C  dz2             0.0       0.2       0.0       0.3       0.0       0.0
 7 C  s               0.0       0.2       0.0       0.3       0.0       0.2
 7 C  pz              0.0       0.2       0.0       0.2       0.0       0.0
 7 C  px              0.0       0.2       0.0       0.3       0.0       0.0
 8 S  s               0.0       0.3       0.0       0.0       0.0      18.5
 8 S  pz              0.0       0.2       0.0       0.0       0.0       0.7
 8 S  px              0.0       0.1       0.0       0.0       0.0       0.0
 8 S  py              0.0       0.0       0.0       0.0       0.0       2.3
 9 C  s               0.0       0.0       0.0       0.0       0.0      25.8
 9 C  pz              0.0       0.0       0.0       0.0       0.0       1.3
 9 C  py              0.0       0.0       0.0       0.0       0.0       1.6
10 S  s               0.0       0.0       0.3       0.0       0.0      18.3
10 S  pz              0.0       0.0       0.0       0.0       0.0       2.5
10 S  px              0.0       0.0       0.2       0.0       0.0       0.1
10 S  py              0.0       0.0       0.2       0.0       0.0       0.5
11 P  s               0.0       0.7      13.4       0.0       0.2       2.5
11 P  pz             53.0       0.2       3.9       0.0       0.6       0.2
11 P  px             29.4       0.0       0.3       0.2       3.5       1.2
11 P  py             17.5       0.0       0.7       0.2       5.9       0.9
11 P  dz2             0.0       0.0       0.0       0.0       0.6       0.0
11 P  dxz             0.0       0.0       0.4       0.0       1.0       0.0
11 P  dyz             0.0       0.0       0.0       0.0       0.7       0.0
11 P  dx2y2           0.0       0.0       0.0       0.0       0.7       0.0
11 P  dxy             0.0       0.0       0.5       0.0       0.2       0.2
12 S  s               0.0       0.0       0.3       0.0       0.0       0.5
12 S  pz              0.0       0.0       0.3       0.0       0.0       0.1
13 O  s               0.0       1.4      32.9       1.3      23.5       0.2
[...]
 1 C  dxz             2.4       0.0       0.1       3.5
 1 C  dyz             0.0       0.0       0.0       0.2
 1 C  dx2y2           0.2       0.0       0.0       0.6
 2 O  s               0.6       0.0       0.0       0.1
 2 O  pz              0.6       0.0       0.0       1.7
 2 O  px              0.5       0.0       0.0       2.2
 2 O  py              0.2       0.0       0.0       1.0
 2 O  dz2             4.2       0.0       0.3      13.9
 2 O  dxz            12.3       0.0       0.3      12.7
 2 O  dyz             0.0       0.0       0.0       0.9
 2 O  dx2y2           3.8       0.0       0.2       8.6
 2 O  dxy             0.2       0.0       0.1       5.7
 3 P  s               0.3       0.0       0.0       0.0
 3 P  pz              0.0       0.0       0.0       1.7
 3 P  px              0.0       0.0       0.0       1.4
 3 P  py              0.1       0.0       0.0       0.1
 3 P  dz2             0.3       0.0       0.0       0.5
 3 P  dxz             0.1       0.0       0.0       0.1
 3 P  dyz             0.1       0.0       0.0       0.9
 3 P  dxy             0.3       0.0       0.0       0.5
 5 O  s               2.4       0.0       0.0       0.2
 5 O  pz              3.3       0.0       0.1       3.3
 5 O  px              0.0       0.0       0.0       0.3
 5 O  dz2            32.5       0.1       0.0       1.1
 5 O  dxz             4.5       0.0       0.4      17.6
 5 O  dyz            14.0       0.0       0.2      10.0
 5 O  dx2y2           0.0       0.0       0.0       0.7
 5 O  dxy             0.0       0.0       0.0       0.8
 6 C  s               1.5       0.0       0.0       0.5
 6 C  pz              2.4       0.0       0.0       0.8
 6 C  px              0.1       0.0       0.0       0.0
 6 C  py              0.1       0.0       0.0       0.0
 6 C  dz2             6.8       0.0       0.0       2.1
 6 C  dxz             0.7       0.0       0.0       0.0
 6 C  dyz             1.8       0.0       0.0       0.2
 6 C  dxy             0.1       0.0       0.0       0.0
 7 C  dxz             0.2       0.0       0.0       0.0
11 P  s               0.0       0.2       0.0       0.0
11 P  px              0.0       0.1       1.0       0.0
11 P  py              0.0       0.1       2.0       0.0
11 P  dz2             0.0       0.1       0.5       0.0
11 P  dxz             0.0       0.1       0.2       0.0
11 P  dyz             0.0       0.6       0.5       0.0
11 P  dx2y2           0.0       0.0       0.6       0.0
13 O  s               0.0       1.4       0.0       0.0
13 O  pz              0.0       0.6       1.0       0.0
13 O  px              0.0       0.5       0.9       0.0
13 O  py              0.0       1.4       1.3       0.0
13 O  dz2             0.0      10.6       8.7       0.2
13 O  dxz             0.0       0.0       4.6       0.1
13 O  dyz             0.0       4.4       0.2       0.0
13 O  dx2y2           0.0      13.9      10.5       0.2
13 O  dxy             0.0      10.5       1.2       0.0
14 C  s               0.0       1.0       0.5       0.0
14 C  px              0.0       0.3       0.1       0.0
14 C  py              0.0       1.6       0.7       0.0
14 C  dz2             0.0       1.2       0.3       0.0
14 C  dxz             0.0       0.2       0.1       0.0
14 C  dyz             0.0       1.4       0.9       0.0
14 C  dx2y2           0.0       2.5       0.5       0.0
14 C  dxy             0.0       1.4       0.8       0.0
15 C  dyz             0.0       0.1       0.0       0.0
16 O  s               0.0       2.6       0.0       0.0
16 O  pz              0.0       0.2       0.0       0.0
16 O  px              0.0       0.0       0.1       0.0
16 O  py              0.0       1.2       5.3       0.1
16 O  dz2             0.0       2.3       0.5       0.0
16 O  dxz             0.0       0.2       0.0       0.0
16 O  dyz             0.0      15.9      31.8       0.7
16 O  dx2y2           0.0      14.1       1.2       0.0
16 O  dxy             0.0       0.0      13.4       0.2
17 C  s               0.0       0.9       1.0       0.0
17 C  pz              0.0       0.3       0.3       0.0
17 C  py              0.0       1.2       1.4       0.0
17 C  dz2             0.0       0.1       0.4       0.0
17 C  dxz             0.0       0.2       0.0       0.0
17 C  dyz             0.0       3.0       1.9       0.0
17 C  dx2y2           0.0       2.3       2.9       0.1
17 C  dxy             0.0       0.3       0.0       0.0
18 C  dxy             0.0       0.1       0.1       0.0


                      *****************************
                      * MAYER POPULATION ANALYSIS *
                      *****************************

  NA   - Mulliken gross atomic population
  ZA   - Total nuclear charge
  QA   - Mulliken gross atomic charge
  VA   - Mayer's total valence
  BVA  - Mayer's bonded valence
  FA   - Mayer's free valence

  ATOM       NA         ZA         QA         VA         BVA        FA
  0 C      6.2949     6.0000    -0.2949     3.9820     3.9820    -0.0000
  1 C      6.0131     6.0000    -0.0131     4.0050     4.0050     0.0000
  2 O      8.3684     8.0000    -0.3684     2.1808     2.1808    -0.0000
  3 P     14.3857    15.0000     0.6143     4.9574     4.9574    -0.0000
  4 S     16.3366    16.0000    -0.3366     2.0537     2.0537    -0.0000
  5 O      8.3513     8.0000    -0.3513     2.2003     2.2003     0.0000
  6 C      6.0056     6.0000    -0.0056     3.9884     3.9884    -0.0000
  7 C      6.2994     6.0000    -0.2994     3.9924     3.9924     0.0000
  8 S     16.0847    16.0000    -0.0847     2.2849     2.2849     0.0000
  9 C      6.3504     6.0000    -0.3504     3.8339     3.8339    -0.0000
 10 S     16.1004    16.0000    -0.1004     2.2822     2.2822     0.0000
 11 P     14.3856    15.0000     0.6144     4.9424     4.9424     0.0000
 12 S     16.3348    16.0000    -0.3348     2.0426     2.0426    -0.0000
 13 O      8.3671     8.0000    -0.3671     2.1883     2.1883    -0.0000
 14 C      6.0125     6.0000    -0.0125     4.0196     4.0196    -0.0000
 15 C      6.3093     6.0000    -0.3093     3.9879     3.9879    -0.0000
 16 O      8.3513     8.0000    -0.3513     2.1981     2.1981    -0.0000
 17 C      6.0103     6.0000    -0.0103     3.9828     3.9828     0.0000
 18 C      6.2893     6.0000    -0.2893     3.9919     3.9919    -0.0000
 19 H      0.8695     1.0000     0.1305     0.9936     0.9936    -0.0000
 20 H      0.8861     1.0000     0.1139     0.9588     0.9588    -0.0000
 21 H      0.8917     1.0000     0.1083     0.9548     0.9548    -0.0000
 22 H      0.8914     1.0000     0.1086     0.9473     0.9473    -0.0000
 23 H      0.8959     1.0000     0.1041     0.9760     0.9760    -0.0000
 24 H      0.8867     1.0000     0.1133     0.9849     0.9849    -0.0000
 25 H      0.8946     1.0000     0.1054     0.9559     0.9559    -0.0000
 26 H      0.8798     1.0000     0.1202     0.9824     0.9824     0.0000
 27 H      0.8897     1.0000     0.1103     0.9549     0.9549     0.0000
 28 H      0.8863     1.0000     0.1137     0.9584     0.9584     0.0000
 29 H      0.8086     1.0000     0.1914     0.9675     0.9675     0.0000
 30 H      0.8087     1.0000     0.1913     0.9659     0.9659    -0.0000
 31 H      0.8902     1.0000     0.1098     0.9479     0.9479    -0.0000
 32 H      0.8852     1.0000     0.1148     0.9509     0.9509    -0.0000
 33 H      0.8736     1.0000     0.1264     0.9663     0.9663     0.0000
 34 H      0.8885     1.0000     0.1115     0.9527     0.9527    -0.0000
 35 H      0.8752     1.0000     0.1248     0.9850     0.9850    -0.0000
 36 H      0.8860     1.0000     0.1140     0.9891     0.9891     0.0000
 37 H      0.8983     1.0000     0.1017     0.9592     0.9592     0.0000
 38 H      0.8823     1.0000     0.1177     0.9802     0.9802    -0.0000
 39 H      0.8923     1.0000     0.1077     0.9557     0.9557    -0.0000
 40 H      0.8890     1.0000     0.1110     0.9582     0.9582    -0.0000

  Mayer bond orders larger than 0.100000
B(  0-C ,  1-C ) :   1.1670 B(  0-C , 19-H ) :   0.9316 B(  0-C , 20-H ) :   0.9472 
B(  0-C , 21-H ) :   0.9392 B(  1-C ,  2-O ) :   0.9053 B(  1-C , 22-H ) :   0.9360 
B(  1-C , 23-H ) :   0.9156 B(  2-O ,  3-P ) :   1.1205 B(  3-P ,  4-S ) :   1.5899 
B(  3-P ,  5-O ) :   1.1361 B(  3-P ,  8-S ) :   0.9507 B(  4-S ,  8-S ) :   0.1090 
B(  5-O ,  6-C ) :   0.8994 B(  6-C ,  7-C ) :   1.1631 B(  6-C , 24-H ) :   0.9122 
B(  6-C , 25-H ) :   0.9322 B(  7-C , 26-H ) :   0.9371 B(  7-C , 27-H ) :   0.9406 
B(  7-C , 28-H ) :   0.9471 B(  8-S ,  9-C ) :   1.0036 B(  9-C , 10-S ) :   1.0079 
B(  9-C , 29-H ) :   0.8835 B(  9-C , 30-H ) :   0.8845 B( 10-S , 11-P ) :   0.9331 
B( 10-S , 12-S ) :   0.1082 B( 11-P , 12-S ) :   1.5890 B( 11-P , 13-O ) :   1.1274 
B( 11-P , 16-O ) :   1.1350 B( 13-O , 14-C ) :   0.9149 B( 14-C , 15-C ) :   1.1639 
B( 14-C , 31-H ) :   0.9342 B( 14-C , 32-H ) :   0.9268 B( 15-C , 33-H ) :   0.9429 
B( 15-C , 34-H ) :   0.9352 B( 15-C , 35-H ) :   0.9337 B( 16-O , 17-C ) :   0.9002 
B( 17-C , 18-C ) :   1.1618 B( 17-C , 36-H ) :   0.9064 B( 17-C , 37-H ) :   0.9313 
B( 18-C , 38-H ) :   0.9408 B( 18-C , 39-H ) :   0.9417 B( 18-C , 40-H ) :   0.9480 


-------
TIMINGS
-------

Total SCF time: 0 days 0 hours 0 min 17 sec 

Total time                  ....      17.192 sec
Sum of individual times     ....      16.663 sec  ( 96.9%)

SCF preparation             ....       0.227 sec  (  1.3%)
Fock matrix formation       ....      15.247 sec  ( 88.7%)
  Startup                   ....       0.074 sec  (  0.5% of F)
  Split-RI-J                ....       9.105 sec  ( 59.7% of F)
  XC integration            ....       5.538 sec  ( 36.3% of F)
    XC Preparation          ....       0.000 sec  (  0.0% of XC)
    Basis function eval.    ....       2.102 sec  ( 38.0% of XC)
    Density eval.           ....       1.078 sec  ( 19.5% of XC)
    XC-Functional eval.     ....       0.407 sec  (  7.3% of XC)
    XC-Potential eval.      ....       1.221 sec  ( 22.0% of XC)
Diagonalization             ....       0.000 sec  (  0.0%)
Density matrix formation    ....       0.246 sec  (  1.4%)
Total Energy calculation    ....       0.034 sec  (  0.2%)
Population analysis         ....       0.198 sec  (  1.2%)
Orbital Transformation      ....       0.080 sec  (  0.5%)
Orbital Orthonormalization  ....       0.000 sec  (  0.0%)
DIIS solution               ....       0.488 sec  (  2.8%)
  MO trafo                  ....       0.000 sec  (  0.0 % of DIIS)
  Orb grad                  ....       0.000 sec  (  0.0 % of DIIS)
  Energy W gradient         ....       0.000 sec  (  0.0 % of DIIS)
  DIIS error                ....       0.021 sec  (  4.4 % of DIIS)
  DIIS work                 ....       0.408 sec  ( 83.5 % of DIIS)
  Form Q                    ....       0.000 sec  (  0.0 % of DIIS)
  Form QpQm                 ....       0.000 sec  (  0.0 % of DIIS)
  Exp/Cayley                ....       0.000 sec  (  0.0 % of DIIS)
  Orb update                ....       0.000 sec  (  0.0 % of DIIS)
  Wake-sleep                ....       0.018 sec  (  3.7 % of DIIS)
SOSCF solution              ....       0.142 sec  (  0.8%)
  MO trafo                  ....       0.076 sec  ( 53.6 % of SOSCF)
  Orb grad                  ....       0.002 sec  (  1.1 % of SOSCF)
  Rot update                ....       0.027 sec  ( 19.0 % of SOSCF)
  Step                      ....       0.037 sec  ( 26.1 % of SOSCF)
Finished LeanSCF after  17.3 sec

Maximum memory used throughout the entire LEANSCF-calculation: 34.7 MB


-------------------------------------------------------------------------------
                          DFT DISPERSION CORRECTION                            
                                                                               
                                DFTD4 V3.4.0                                   
-------------------------------------------------------------------------------
The PBE functional is recognized
Active option DFTDOPT                   ...         5   

-------------------------   ----------------
Dispersion correction           -0.067058608
-------------------------   ----------------

------------------   -----------------
gCP correction             0.184372072
------------------   -----------------

-------------------------   --------------------
FINAL SINGLE POINT ENERGY     -2929.525730072654
-------------------------   --------------------


------------------------------------------------------------------------------
                              ORCA PROPERTY CALCULATIONS
------------------------------------------------------------------------------

GBWName                                 ... sp.gbw
Number of atoms                         ...     41
Number of basis functions               ...    334
Max core memory                         ...   1024 MB

Electric properties:
Dipole moment                           ... YES
Quadrupole moment                       ...  NO
Static polarizability (Dipole/Dipole)   ...  NO
Static polarizability (Dipole/Quad.)    ...  NO
Static polarizability (Quad./Quad.)     ...  NO
Static polarizability (Velocity)        ...  NO

Atomic electric properties:
Dipole moment                           ...  NO
Quadrupole moment                       ...  NO
Static polarizability                   ...  NO

Choice of electric origin               ... Center of mass
Position of electric origin             ...     0.000002     0.000001    -0.000000

General magnetic properties:
Magnetizability                         ...  NO

EPR properties:
g-Tensor (aka g-matrix)                 ...  NO
Zero-Field splitting spin-orbit         ...  NO
Zero-field splitting spin-spin          ...  NO
Hyperfine couplings                     ...  NO (   0 nuclei)
Quadrupole couplings                    ...  NO (   0 nuclei)
Contact density                         ...  NO (   0 nuclei)

NMR properties:
Chemical shifts                         ...  NO (   0 nuclei)
Spin-rotation constants                 ...  NO (   0 nuclei)
Spin-spin couplings                     ...  NO (   0 nuclei,    0 pairs)

Choice of magnetic origin               ... GIAO
Position of magnetic origin             ...     0.000000     0.000000     0.000000

Properties with geometric perturbations:
SCF Hessian                             ...  NO
IR spectrum                             ...  NO
VCD spectrum                            ...  NO
X-ray spectroscopy properties:
SCF XES/XAS/RIXS spectra                ...  NO


-------------
DIPOLE MOMENT
-------------

Method             : SCF
Type of density    : Electron Density
Multiplicity       :   1
Irrep              :   0
Energy             : -2929.6430435360871343 Eh
Relativity type    : 
Basis              : AO
                                X                 Y                 Z
Electronic contribution:     -1.910175701       8.056968770      -8.088904840
Nuclear contribution   :      2.028849385      -8.504846818       8.689483626
                        -----------------------------------------
Total Dipole Moment    :      0.118673684      -0.447878048       0.600578787
                        -----------------------------------------
Magnitude (a.u.)       :      0.758533498
Magnitude (Debye)      :      1.928038929



--------------------
Rotational spectrum 
--------------------
 
Rotational constants in cm-1:             0.013091             0.004982             0.004875 
Rotational constants in MHz :           392.452239           149.354620           146.160652 

Dipole components along the rotational axes: 
x,y,z [a.u.] :    -0.171083    -0.158648     0.721758 
x,y,z [Debye]:    -0.434857    -0.403251     1.834563 

 

Dipole moment calculation done in   0.0 sec 

Maximum memory used throughout the entire PROP-calculation: 24.1 MB

--------------------------------
SUGGESTED CITATIONS FOR THIS RUN
--------------------------------

Below you find a list of papers that are relevant to this ORCA run
We neither can nor want to force you to cite these papers, but we appreciate if you do
You receive ORCA, which is the product of decades of hard work by many enthusiastic individuals, for free
The only thing we kindly ask in return is that you cite our papers,
We deeply appreciate it, if you show your appreciation for ORCA by not just citing the generic ORCA reference.

Please note that relegating all ORCA citations to the supporting information does *not* help us.
SI sections are not indexed - citations you put there will not count into any citation statistics
But we need these citations in order to attract the funding resources that allow us to do what we are doing

Therefore, if you are a happy ORCA user, please consider citing a few of the papers listed below in the main body of your paper

In addition to the list printed below, the program has created the file sp.bibtex that contains the list in bibtex format
You can import this file easily into all common literature databanks and citation aid programs


List of essential papers. We consider these as the minimum necessary citations

  1. Neese,F.
     Software update: the ORCA program system, version 5.0
     WIRES Comput. Molec. Sci., 2022 12(1)e1606
     doi.org/10.1002/wcms.1606

List of papers to cite with high priority. The work reported in these papers was absolutely
necessary for this run to complete.
Our perspective: the developers of density functionals and basis sets usually get cited in chemistry papers
Good! But without the algorithms to do something with them, the functionals or basis sets would not do anything.
Hence, in our opinion, the algorithm design and method developments papers are equally worthy of getting cited

  1. Neese,F.
     An improvement of the resolution of the identity approximation for the formation of the Coulomb matrix
     J. Comp. Chem., 2003 24(14)1740-1747
     doi.org/10.1002/jcc.10318
  2. Neese,F.
     The SHARK Integral Generation and Digestion System
     J. Comp. Chem., 2022  1-16
     doi.org/10.1002/jcc.26942
  3. Caldeweyher,E.; Bannwarth,C.; Grimme,S.
     Extension of the D3 dispersion coefficient model
     J. Chem. Phys., 2017 147 034112-XXXX
     doi.org/10.1063/1.4993215
  4. Caldeweyher,E.; Ehlert,S.; Hansen,A.; Neugebauer,H.; Spicher,S.; Bannwarth,C.; Grimme,S.
     A generally applicable atomic-charge dependent London dispersion correction
     J. Chem. Phys., 2019 150 154122-XXXX
     doi.org/10.1063/1.5090222
  5. Caldeweyher,E.; Mewes,J.; Ehlert,S.; Grimme,S.
     Extension and evaluation of the D4 London-dispersion model for periodic systems
     Phys. Chem. Chem. Phys., 2020 22(16)8499-8512
     doi.org/10.1039/D0CP00502A

List of suggested additional citations. These are papers that are important in the 'surrounding' of 
of this run, or papers that preceded the highly important papers. If you like your results we are grateful for a citation.

  1. Neese,F.
     The ORCA program system
     WIRES Comput. Molec. Sci., 2012 2(1)73-78
     doi.org/10.1002/wcms.81
  2. Neese,F.
     Software update: the ORCA program system, version 4.0
     WIRES Comput. Molec. Sci., 2018 8(1)1-6
     doi.org/10.1002/wcms.1327
  3. Neese,F.; Wennmohs,F.; Becker,U.; Riplinger,C.
     The ORCA quantum chemistry program package
     J. Chem. Phys., 2020 152 Art. No. L224108
     doi.org/10.1063/5.0004608

List of optional additional citations

  1. Neese,F.
     Approximate second-order SCF convergence for spin unrestricted wavefunctions
     Chem. Phys. Lett., 2000 325(1-3)93-98
     doi.org/10.1016/s0009-2614(00)00662-x

Timings for individual modules:

Sum of individual times          ...       20.859 sec (=   0.348 min)
Startup calculation              ...        1.552 sec (=   0.026 min)   7.4 %
SCF iterations                   ...       19.196 sec (=   0.320 min)  92.0 %
Property calculations            ...        0.111 sec (=   0.002 min)   0.5 %
                             ****ORCA TERMINATED NORMALLY****
TOTAL RUN TIME: 0 days 0 hours 0 minutes 21 seconds 594 msec
