
                                 *****************
                                 * O   R   C   A *
                                 *****************

                                            #,                                       
                                            ###                                      
                                            ####                                     
                                            #####                                    
                                            ######                                   
                                           ########,                                 
                                     ,,################,,,,,                         
                               ,,#################################,,                 
                          ,,##########################################,,             
                       ,#########################################, ''#####,          
                    ,#############################################,,   '####,        
                  ,##################################################,,,,####,       
                ,###########''''           ''''###############################       
              ,#####''   ,,,,##########,,,,          '''####'''          '####       
            ,##' ,,,,###########################,,,                        '##       
           ' ,,###''''                  '''############,,,                           
         ,,##''                                '''############,,,,        ,,,,,,###''
      ,#''                                            '''#######################'''  
     '                                                          ''''####''''         
             ,#######,   #######,   ,#######,      ##                                
            ,#'     '#,  ##    ##  ,#'     '#,    #''#        ,####,   ,####,        
            ##       ##  ##   ,#'  ##            #'  '#       #'       #'  '#        
            ##       ##  #######   ##           ,######,      #####,   #    #        
            '#,     ,#'  ##    ##  '#,     ,#' ,#      #,     #,   #   #,  ,#        
             '#######'   ##     ##  '#######'  #'      '#     '####' # '####'        



                #########################################################
                #                        -***-                          #
                #          Department of theory and spectroscopy        #
                #                                                       #
                #                      Frank Neese                      #
                #                                                       #
                #     Directorship, Architecture, Infrastructure        #
                #                    SHARK, DRIVERS                     #
                #        Core code/Algorithms in most modules           #
                #                                                       #
                #        Max Planck Institute fuer Kohlenforschung      #
                #                Kaiser Wilhelm Platz 1                 #
                #                 D-45470 Muelheim/Ruhr                 #
                #                      Germany                          #
                #                                                       #
                #                  All rights reserved                  #
                #                        -***-                          #
                #########################################################


                         Program Version 6.0.0  -   RELEASE  -


 With contributions from (in alphabetic order):
   Daniel Aravena         : Magnetic Suceptibility
   Michael Atanasov       : Ab Initio Ligand Field Theory (pilot matlab implementation)
   Alexander A. Auer      : GIAO ZORA, VPT2 properties, NMR spectrum
   Ute Becker             : All parallelization in ORCA, NUMFREQ, NUMCALC
   Giovanni Bistoni       : ED, misc. LED, open-shell LED, HFLD
   Martin Brehm           : Molecular dynamics
   Dmytro Bykov           : pre 5.0 version of the SCF Hessian
   Marcos Casanova-Páez   : Triplet and SCS-CIS(D). UHF-(DLPNO)-IP/EA/STEOM-CCSD. UHF-CVS-IP/STEOM-CCSD
   Vijay G. Chilkuri      : MRCI spin determinant printing, contributions to CSF-ICE
   Pauline Colinet        : FMM embedding
   Dipayan Datta          : RHF DLPNO-CCSD density
   Achintya Kumar Dutta   : EOM-CC, STEOM-CC
   Nicolas Foglia         : Exact transition moments, OPA infrastructure, MCD improvements
   Dmitry Ganyushin       : Spin-Orbit,Spin-Spin,Magnetic field MRCI
   Miquel Garcia          : C-PCM and meta-GGA Hessian, CCSD/C-PCM, Gaussian charge scheme
   Tiago L. C. Gouveia    : GS-ROHF, GS-ROCIS
   Yang Guo               : DLPNO-NEVPT2, F12-NEVPT2, CIM, IAO-localization
   Andreas Hansen         : Spin unrestricted coupled pair/coupled cluster methods
   Ingolf Harden          : AUTO-CI MPn and infrastructure 
   Benjamin Helmich-Paris : MC-RPA, TRAH-(SCF,CASSCF), AVAS, COSX integrals, SCF dyn. polar.
   Lee Huntington         : MR-EOM, pCC
   Robert Izsak           : Overlap fitted RIJCOSX, COSX-SCS-MP3, EOM
   Riya Kayal             : Wick's Theorem for AUTO-CI, AUTO-CI UHF-CCSDT
   Emily Kempfer          : AUTO-CI, RHF CISDT and CCSDT
   Christian Kollmar      : KDIIS, OOCD, Brueckner-CCSD(T), CCSD density, CASPT2, CASPT2-K, improved NEVPT2
   Axel Koslowski         : Symmetry handling
   Simone Kossmann        : Meta GGA functionals, TD-DFT gradient, OOMP2, (MP2 Hessian; deprecated post 5.0)
   Lucas Lang             : DCDCAS
   Marvin Lechner         : AUTO-CI (C++ implementation), FIC-MRCC
   Spencer Leger          : CASSCF response
   Dagmar Lenk            : GEPOL surface, SMD, ORCA-2-JSON
   Dimitrios Liakos       : Extrapolation schemes; Compound Job, initial MDCI parallelization
   Dimitrios Manganas     : Further ROCIS development; embedding schemes. LFT, Crystal Embedding
   Dimitrios Pantazis     : SARC Basis sets
   Anastasios Papadopoulos: AUTO-CI, single reference methods and gradients
   Taras Petrenko         : pre 6.0 DFT Hessian and TD-DFT gradient, (ASA, deprecated), ECA, 1-Electron XAS/XES, NRVS
   Peter Pinski           : DLPNO-MP2, DLPNO-MP2 Gradient
   Christoph Reimann      : Effective Core Potentials
   Marius Retegan         : Local ZFS, SOC
   Christoph Riplinger    : Optimizer, TS searches, QM/MM, DLPNO-CCSD(T), (RO)-DLPNO pert. Triples
   Michael Roemelt        : Original ROCIS implementation
   Masaaki Saitow         : Open-shell DLPNO-CCSD energy and density
   Barbara Sandhoefer     : DKH picture change effects
   Kantharuban Sivalingam : CASSCF convergence/infrastructure, NEVPT2 and variants, FIC-MRCI
   Bernardo de Souza      : ESD, SOC TD-DFT
   Georgi Stoychev        : AutoAux, RI-MP2 NMR, DLPNO-MP2 response, X2C
   Van Anh Tran           : RI-MP2 g-tensors
   Willem Van den Heuvel  : Paramagnetic NMR
   Zikuan Wang            : NOTCH, Electric field optimization 
   Frank Wennmohs         : Technical directorship and infrastructure
   Hang Xu                : AUTO-CI-Response properties 


 We gratefully acknowledge several colleagues who have allowed us to
 interface, adapt or use parts of their codes:
   Stefan Grimme, W. Hujo, H. Kruse, P. Pracht,  : VdW corrections, initial TS optimization,
                  C. Bannwarth, S. Ehlert,         DFT functionals, gCP, sTDA/sTD-DF
                  L. Wittmann, M. Mueller
   Ed Valeev, F. Pavosevic, A. Kumar             : LibInt (2-el integral package), F12 methods
   Garnet Chan, S. Sharma, J. Yang, R. Olivares  : DMRG
   Ulf Ekstrom                                   : XCFun DFT Library
   Mihaly Kallay                                 : mrcc  (arbitrary order and MRCC methods)
   Frank Weinhold                                : gennbo (NPA and NBO analysis)
   Simon Mueller                                 : openCOSMO-RS
   Christopher J. Cramer and Donald G. Truhlar   : smd solvation model
   Lars Goerigk                                  : TD-DFT with DH, B97 family of functionals
   V. Asgeirsson, H. Jonsson                     : NEB implementation
   FAccTs GmbH                                   : IRC, NEB, NEB-TS, DLPNO-Multilevel, CI-OPT
                                                   MM, QMMM, 2- and 3-layer-ONIOM, Crystal-QMMM,
                                                   LR-CPCM, SF, NACMEs, symmetry and pop. for TD-DFT,
                                                   nearIR, NL-DFT gradient (VV10), updates on ESD,
                                                   ML-optimized integration grids, MBIS, APM,
                                                   GOAT, DOCKER, SOLVATOR, interface openCOSMO-RS
   S Lehtola, MJT Oliveira, MAL Marques          : LibXC Library
   Liviu Ungur et al                             : ANISO software


 Your calculation uses the libint2 library for the computation of 2-el integrals
 For citations please refer to: http://libint.valeyev.net

 Your ORCA version has been built with support for libXC version: 6.2.2
 For citations please refer to: https://libxc.gitlab.io

 This ORCA versions uses:
   CBLAS   interface :  Fast vector & matrix operations
   LAPACKE interface :  Fast linear algebra routines
   SCALAPACK package :  Parallel linear algebra routines
   Shared memory     :  Shared parallel matrices
   BLAS/LAPACK       :  OpenBLAS 0.3.27  USE64BITINT DYNAMIC_ARCH NO_AFFINITY SapphireRapids SINGLE_THREADED
        Core in use  :  SapphireRapids
   Copyright (c) 2011-2014, The OpenBLAS Project


Your calculation utilizes the geometrical counterpoise correction gCP
Please cite in your paper:
H.Kruse, S. Grimme J.Chem.Phys., 136, (2012), 154101 
   

Your calculation utilizes the atom-pairwise dispersion correction
based on EEQ partial charges (D4)


================================================================================

----- Orbital basis set information -----
Your calculation utilizes the basis: def2-SV(P)
   F. Weigend and R. Ahlrichs, Phys. Chem. Chem. Phys. 7, 3297 (2005).

----- AuxJ basis set information -----
Your calculation utilizes the auxiliary basis: def2/J
   F. Weigend, Phys. Chem. Chem. Phys. 8, 1057 (2006).

================================================================================
                                        WARNINGS
                       Please study these warnings very carefully!
================================================================================


================================================================================
                                       INPUT FILE
================================================================================
NAME = sp.inp
|  1> ! pbe def2-sv(p) def2/J RI DEFGRID1 loosescf d4 GCP(DFT/SV(P)) printgap
|  2> %output
|  3>     printlevel normal
|  4> end
|  5> * xyz 0 1
|  6> C 4.0536103328 -1.3122586879 -2.5534441534
|  7> C 4.0392490535 0.1248879521 -2.0763796454
|  8> O 3.4052451304 0.2712591448 -0.7906615038
|  9> P 1.863661049 -0.0151707007 -0.5568091204
| 10> S 0.6603296116 0.5738712363 -1.9824345113
| 11> O 1.5824459095 0.7235254996 0.8092143143
| 12> C 2.5189656467 0.905723137 1.8990929828
| 13> C 2.9242382425 -0.403089768 2.5434406228
| 14> S 1.7297709686 -2.0991918127 -0.1698244067
| 15> C -0.0726273688 -2.1585407137 -0.0884636301
| 16> S -0.7531326889 -1.3680316821 1.4147291422
| 17> P -1.8203152737 0.3014038906 0.7238446585
| 18> S -1.1647382015 2.1502538063 0.6063290502
| 19> O -2.9344052561 0.1432618941 1.8584726596
| 20> C -3.7283717944 1.2320357135 2.3531245724
| 21> C -4.8134564168 1.6205990752 1.3685878813
| 22> O -2.4496608215 -0.3024551016 -0.6079074807
| 23> C -2.8776362696 0.4602789671 -1.754323776
| 24> C -2.696053885 -0.3916576687 -2.9935450618
| 25> H 4.4674554327 -1.9633301374 -1.7878362589
| 26> H 3.0411569148 -1.6395557386 -2.7831254337
| 27> H 4.6579227854 -1.3816703529 -3.4522090402
| 28> H 3.5148618698 0.764024294 -2.7933144413
| 29> H 5.0477724088 0.5056184309 -1.9083766035
| 30> H 3.3867647826 1.4438856789 1.5133955614
| 31> H 1.9645537583 1.5432483237 2.5906905027
| 32> H 3.5146000928 -1.0002816264 1.8518479082
| 33> H 3.5211015369 -0.1875309088 3.4242188597
| 34> H 2.0433021931 -0.9694459297 2.8388010582
| 35> H -0.3457659528 -3.2091987435 -0.0446193429
| 36> H -0.494270379 -1.6720090345 -0.9680860616
| 37> H -4.1447754391 0.8530975837 3.287389809
| 38> H -3.0702907136 2.0838387167 2.554005967
| 39> H -5.4022956621 0.7484255726 1.0959310476
| 40> H -5.4600452353 2.3667724702 1.8192492123
| 41> H -4.3595807639 2.0426639054 0.4720261094
| 42> H -3.9290393473 0.7163933644 -1.602738485
| 43> H -2.2836963674 1.3789721329 -1.8093344728
| 44> H -3.1989771656 -1.345692191 -2.8640266493
| 45> H -3.1222749906 0.1305301975 -3.8435815049
| 46> H -1.6387271071 -0.5614072921 -3.1814440303
| 47> *
| 48> 
| 49>                          ****END OF INPUT****
================================================================================

                       ****************************
                       * Single Point Calculation *
                       ****************************

---------------------------------
CARTESIAN COORDINATES (ANGSTROEM)
---------------------------------
  C      4.053610   -1.312259   -2.553444
  C      4.039249    0.124888   -2.076380
  O      3.405245    0.271259   -0.790662
  P      1.863661   -0.015171   -0.556809
  S      0.660330    0.573871   -1.982435
  O      1.582446    0.723525    0.809214
  C      2.518966    0.905723    1.899093
  C      2.924238   -0.403090    2.543441
  S      1.729771   -2.099192   -0.169824
  C     -0.072627   -2.158541   -0.088464
  S     -0.753133   -1.368032    1.414729
  P     -1.820315    0.301404    0.723845
  S     -1.164738    2.150254    0.606329
  O     -2.934405    0.143262    1.858473
  C     -3.728372    1.232036    2.353125
  C     -4.813456    1.620599    1.368588
  O     -2.449661   -0.302455   -0.607907
  C     -2.877636    0.460279   -1.754324
  C     -2.696054   -0.391658   -2.993545
  H      4.467455   -1.963330   -1.787836
  H      3.041157   -1.639556   -2.783125
  H      4.657923   -1.381670   -3.452209
  H      3.514862    0.764024   -2.793314
  H      5.047772    0.505618   -1.908377
  H      3.386765    1.443886    1.513396
  H      1.964554    1.543248    2.590691
  H      3.514600   -1.000282    1.851848
  H      3.521102   -0.187531    3.424219
  H      2.043302   -0.969446    2.838801
  H     -0.345766   -3.209199   -0.044619
  H     -0.494270   -1.672009   -0.968086
  H     -4.144775    0.853098    3.287390
  H     -3.070291    2.083839    2.554006
  H     -5.402296    0.748426    1.095931
  H     -5.460045    2.366772    1.819249
  H     -4.359581    2.042664    0.472026
  H     -3.929039    0.716393   -1.602738
  H     -2.283696    1.378972   -1.809334
  H     -3.198977   -1.345692   -2.864027
  H     -3.122275    0.130530   -3.843582
  H     -1.638727   -0.561407   -3.181444

----------------------------
CARTESIAN COORDINATES (A.U.)
----------------------------
  NO LB      ZA    FRAG     MASS         X           Y           Z
   0 C     6.0000    0    12.011    7.660213   -2.479810   -4.825310
   1 C     6.0000    0    12.011    7.633074    0.236004   -3.923789
   2 O     8.0000    0    15.999    6.434981    0.512605   -1.494134
   3 P    15.0000    0    30.974    3.521809   -0.028668   -1.052217
   4 S    16.0000    0    32.060    1.247842    1.084459   -3.746258
   5 O     8.0000    0    15.999    2.990389    1.367265    1.529193
   6 C     6.0000    0    12.011    4.760155    1.711569    3.588766
   7 C     6.0000    0    12.011    5.526009   -0.761729    4.806406
   8 S    16.0000    0    32.060    3.268793   -3.966898   -0.320922
   9 C     6.0000    0    12.011   -0.137246   -4.079051   -0.167172
  10 S    16.0000    0    32.060   -1.423215   -2.585205    2.673451
  11 P    15.0000    0    30.974   -3.439897    0.569571    1.367868
  12 S    16.0000    0    32.060   -2.201036    4.063391    1.145796
  13 O     8.0000    0    15.999   -5.545222    0.270726    3.512004
  14 C     6.0000    0    12.011   -7.045602    2.328210    4.446761
  15 C     6.0000    0    12.011   -9.096114    3.062488    2.586256
  16 O     8.0000    0    15.999   -4.629188   -0.571557   -1.148779
  17 C     6.0000    0    12.011   -5.437944    0.869801   -3.315191
  18 C     6.0000    0    12.011   -5.094803   -0.740126   -5.656980
  19 H     1.0000    0     1.008    8.442267   -3.710156   -3.378521
  20 H     1.0000    0     1.008    5.746954   -3.098311   -5.259345
  21 H     1.0000    0     1.008    8.802198   -2.610979   -6.523730
  22 H     1.0000    0     1.008    6.642126    1.443797   -5.278599
  23 H     1.0000    0     1.008    9.538907    0.955480   -3.606309
  24 H     1.0000    0     1.008    6.400058    2.728549    2.859903
  25 H     1.0000    0     1.008    3.712469    2.916317    4.895696
  26 H     1.0000    0     1.008    6.641632   -1.890258    3.499485
  27 H     1.0000    0     1.008    6.653918   -0.354382    6.470836
  28 H     1.0000    0     1.008    3.861282   -1.831987    5.364557
  29 H     1.0000    0     1.008   -0.653403   -6.064507   -0.084318
  30 H     1.0000    0     1.008   -0.934036   -3.159639   -1.829418
  31 H     1.0000    0     1.008   -7.832490    1.612121    6.212266
  32 H     1.0000    0     1.008   -5.802009    3.937884    4.826372
  33 H     1.0000    0     1.008  -10.208859    1.414319    2.071010
  34 H     1.0000    0     1.008  -10.317990    4.472552    3.437883
  35 H     1.0000    0     1.008   -8.238414    3.860075    0.892000
  36 H     1.0000    0     1.008   -7.424808    1.353787   -3.028737
  37 H     1.0000    0     1.008   -4.315561    2.605880   -3.419147
  38 H     1.0000    0     1.008   -6.045191   -2.542990   -5.412226
  39 H     1.0000    0     1.008   -5.900245    0.246666   -7.263316
  40 H     1.0000    0     1.008   -3.096745   -1.060906   -6.012058

--------------------------------
INTERNAL COORDINATES (ANGSTROEM)
--------------------------------
 C      0   0   0     0.000000000000     0.00000000     0.00000000
 C      1   0   0     1.514327327892     0.00000000     0.00000000
 O      2   1   0     1.440991547580   112.43653442     0.00000000
 P      3   2   1     1.585310844485   122.75897326   294.49630802
 S      4   3   2     1.956370288815   115.86325338   320.63342296
 O      4   3   2     1.578218633514   102.49660316   197.93447503
 C      6   4   3     1.448482208828   126.50770879   328.51249959
 C      7   6   4     1.514074297508   112.61534199   294.92761592
 S      4   3   2     2.123870927700   105.39469917    86.25148753
 C      9   4   3     1.805209581927    95.93580397   184.46638846
 S     10   9   4     1.829639453669   113.21477565   288.60046821
 P     11  10   9     2.098383942589   105.21199319   114.18757009
 S     12  11  10     1.965155776668   126.76427391   264.34069018
 O     12  11  10     1.597994393238    92.41051748   144.90772004
 C     14  12  11     1.435441328856   123.72696467   154.16955300
 C     15  14  12     1.515817475802   111.50332819    75.71024614
 O     12  11  10     1.591943862471   100.06159789    37.87395293
 C     17  12  11     1.441941942611   125.57683135   203.94507976
 C     18  17  12     1.514740106089   108.50285264   149.66778301
 H      1   2   3     1.086884192169   110.49919565   308.06392181
 H      1   2   3     1.088548930245   110.05970668    68.27860634
 H      1   2   3     1.085260264338   109.07932280   187.69838324
 H      2   1   3     1.094290950131   110.63684610   238.73642002
 H      2   1   3     1.091008743210   111.77299266   115.93743337
 H      7   6   4     1.091538713307   108.06938893    58.32335411
 H      7   6   4     1.091841579721   102.81164506   174.46360790
 H      8   7   6     1.087872103198   110.44098013    67.51381272
 H      8   7   6     1.085578977587   108.71173444   187.12075379
 H      8   7   6     1.088138507649   110.41000009   306.84334987
 H     10   9   4     1.086466429842   106.53619765   171.35395600
 H     10   9   4     1.090060330860   109.58236561    50.56390147
 H     15  14  12     1.090796788524   104.05180541   196.43186726
 H     15  14  12     1.094985113992   108.71375956   313.66423614
 H     16  15  14     1.087087864161   110.18128303    53.30535947
 H     16  15  14     1.085332884821   109.45119188   173.70989307
 H     16  15  14     1.089937998246   109.59956089   293.03986295
 H     18  17  12     1.092712732949   107.41390561   269.90300169
 H     18  17  12     1.095348308565   108.82285456    28.24001276
 H     19  18  17     1.086226824879   109.93366884    53.50936478
 H     19  18  17     1.084853240334   108.85703495   173.48440627
 H     19  18  17     1.087226228654   110.22953588   292.71236341

---------------------------
INTERNAL COORDINATES (A.U.)
---------------------------
 C      0   0   0     0.000000000000     0.00000000     0.00000000
 C      1   0   0     2.861663926828     0.00000000     0.00000000
 O      2   1   0     2.723079386222   112.43653442     0.00000000
 P      3   2   1     2.995803333212   122.75897326   294.49630802
 S      4   3   2     3.697004062401   115.86325338   320.63342296
 O      4   3   2     2.982400996793   102.49660316   197.93447503
 C      6   4   3     2.737234684542   126.50770879   328.51249959
 C      7   6   4     2.861185768699   112.61534199   294.92761592
 S      4   3   2     4.013534397150   105.39469917    86.25148753
 C      9   4   3     3.411351724173    95.93580397   184.46638846
 S     10   9   4     3.457517491251   113.21477565   288.60046821
 P     11  10   9     3.965370975311   105.21199319   114.18757009
 S     12  11  10     3.713606228396   126.76427391   264.34069018
 O     12  11  10     3.019771766762    92.41051748   144.90772004
 C     14  12  11     2.712590992850   123.72696467   154.16955300
 C     15  14  12     2.864479898278   111.50332819    75.71024614
 O     12  11  10     3.008337920648   100.06159789    37.87395293
 C     17  12  11     2.724875372550   125.57683135   203.94507976
 C     18  17  12     2.862443964575   108.50285264   149.66778301
 H      1   2   3     2.053913462487   110.49919565   308.06392181
 H      1   2   3     2.057059361536   110.05970668    68.27860634
 H      1   2   3     2.050844683625   109.07932280   187.69838324
 H      2   1   3     2.067910206576   110.63684610   238.73642002
 H      2   1   3     2.061707734380   111.77299266   115.93743337
 H      7   6   4     2.062709232723   108.06938893    58.32335411
 H      7   6   4     2.063281567301   102.81164506   174.46360790
 H      8   7   6     2.055780343777   110.44098013    67.51381272
 H      8   7   6     2.051446964381   108.71173444   187.12075379
 H      8   7   6     2.056283775230   110.41000009   306.84334987
 H     10   9   4     2.053124006100   106.53619765   171.35395600
 H     10   9   4     2.059915494776   109.58236561    50.56390147
 H     15  14  12     2.061307198072   104.05180541   196.43186726
 H     15  14  12     2.069221986165   108.71375956   313.66423614
 H     16  15  14     2.054298346774   110.18128303    53.30535947
 H     16  15  14     2.050981916450   109.45119188   173.70989307
 H     16  15  14     2.059684319639   109.59956089   293.03986295
 H     18  17  12     2.064927808322   107.41390561   269.90300169
 H     18  17  12     2.069908324441   108.82285456    28.24001276
 H     19  18  17     2.052671218340   109.93366884    53.50936478
 H     19  18  17     2.050075519729   108.85703495   173.48440627
 H     19  18  17     2.054559817771   110.22953588   292.71236341

---------------------
BASIS SET INFORMATION
---------------------
There are 5 groups of distinct atoms

 Group   1 Type C   : 7s4p1d contracted to 3s2p1d pattern {511/31/1}
 Group   2 Type O   : 7s4p1d contracted to 3s2p1d pattern {511/31/1}
 Group   3 Type P   : 10s7p1d contracted to 4s3p1d pattern {5311/511/1}
 Group   4 Type S   : 10s7p1d contracted to 4s3p1d pattern {5311/511/1}
 Group   5 Type H   : 4s contracted to 2s pattern {31}

Atom   0C    basis set group =>   1
Atom   1C    basis set group =>   1
Atom   2O    basis set group =>   2
Atom   3P    basis set group =>   3
Atom   4S    basis set group =>   4
Atom   5O    basis set group =>   2
Atom   6C    basis set group =>   1
Atom   7C    basis set group =>   1
Atom   8S    basis set group =>   4
Atom   9C    basis set group =>   1
Atom  10S    basis set group =>   4
Atom  11P    basis set group =>   3
Atom  12S    basis set group =>   4
Atom  13O    basis set group =>   2
Atom  14C    basis set group =>   1
Atom  15C    basis set group =>   1
Atom  16O    basis set group =>   2
Atom  17C    basis set group =>   1
Atom  18C    basis set group =>   1
Atom  19H    basis set group =>   5
Atom  20H    basis set group =>   5
Atom  21H    basis set group =>   5
Atom  22H    basis set group =>   5
Atom  23H    basis set group =>   5
Atom  24H    basis set group =>   5
Atom  25H    basis set group =>   5
Atom  26H    basis set group =>   5
Atom  27H    basis set group =>   5
Atom  28H    basis set group =>   5
Atom  29H    basis set group =>   5
Atom  30H    basis set group =>   5
Atom  31H    basis set group =>   5
Atom  32H    basis set group =>   5
Atom  33H    basis set group =>   5
Atom  34H    basis set group =>   5
Atom  35H    basis set group =>   5
Atom  36H    basis set group =>   5
Atom  37H    basis set group =>   5
Atom  38H    basis set group =>   5
Atom  39H    basis set group =>   5
Atom  40H    basis set group =>   5
---------------------------------
AUXILIARY/J BASIS SET INFORMATION
---------------------------------
There are 5 groups of distinct atoms

 Group   1 Type C   : 12s5p4d2f1g contracted to 6s4p3d1f1g pattern {711111/2111/211/2/1}
 Group   2 Type O   : 12s5p4d2f1g contracted to 6s4p3d1f1g pattern {711111/2111/211/2/1}
 Group   3 Type P   : 14s5p5d2f1g contracted to 8s4p3d1f1g pattern {71111111/2111/311/2/1}
 Group   4 Type S   : 14s5p5d2f1g contracted to 8s4p3d1f1g pattern {71111111/2111/311/2/1}
 Group   5 Type H   : 5s2p1d contracted to 3s1p1d pattern {311/2/1}

Atom   0C    basis set group =>   1
Atom   1C    basis set group =>   1
Atom   2O    basis set group =>   2
Atom   3P    basis set group =>   3
Atom   4S    basis set group =>   4
Atom   5O    basis set group =>   2
Atom   6C    basis set group =>   1
Atom   7C    basis set group =>   1
Atom   8S    basis set group =>   4
Atom   9C    basis set group =>   1
Atom  10S    basis set group =>   4
Atom  11P    basis set group =>   3
Atom  12S    basis set group =>   4
Atom  13O    basis set group =>   2
Atom  14C    basis set group =>   1
Atom  15C    basis set group =>   1
Atom  16O    basis set group =>   2
Atom  17C    basis set group =>   1
Atom  18C    basis set group =>   1
Atom  19H    basis set group =>   5
Atom  20H    basis set group =>   5
Atom  21H    basis set group =>   5
Atom  22H    basis set group =>   5
Atom  23H    basis set group =>   5
Atom  24H    basis set group =>   5
Atom  25H    basis set group =>   5
Atom  26H    basis set group =>   5
Atom  27H    basis set group =>   5
Atom  28H    basis set group =>   5
Atom  29H    basis set group =>   5
Atom  30H    basis set group =>   5
Atom  31H    basis set group =>   5
Atom  32H    basis set group =>   5
Atom  33H    basis set group =>   5
Atom  34H    basis set group =>   5
Atom  35H    basis set group =>   5
Atom  36H    basis set group =>   5
Atom  37H    basis set group =>   5
Atom  38H    basis set group =>   5
Atom  39H    basis set group =>   5
Atom  40H    basis set group =>   5
------------------------------------------------------------------------------
                             ORCA STARTUP CALCULATIONS
                           -- RI-GTO INTEGRALS CHOSEN --
------------------------------------------------------------------------------
------------------------------------------------------------------------------
                   ___                                                        
                  /   \      - P O W E R E D   B Y -                         
                 /     \                                                     
                 |  |  |   _    _      __       _____    __    __             
                 |  |  |  | |  | |    /  \     |  _  \  |  |  /  |          
                  \  \/   | |  | |   /    \    | | | |  |  | /  /          
                 / \  \   | |__| |  /  /\  \   | |_| |  |  |/  /          
                |  |  |   |  __  | /  /__\  \  |    /   |      \           
                |  |  |   | |  | | |   __   |  |    \   |  |\   \          
                \     /   | |  | | |  |  |  |  | |\  \  |  | \   \       
                 \___/    |_|  |_| |__|  |__|  |_| \__\ |__|  \__/        
                                                                              
                      - O R C A' S   B I G   F R I E N D -                    
                                      &                                       
                       - I N T E G R A L  F E E D E R -                       
                                                                              
 v1 FN, 2020, v2 2021, v3 2022-2024                                           
------------------------------------------------------------------------------


----------------------
SHARK INTEGRAL PACKAGE
----------------------

Number of atoms                             ...     41
Number of basis functions                   ...    334
Number of shells                            ...    170
Maximum angular momentum                    ...      2
Integral batch strategy                     ... SHARK/LIBINT Hybrid
RI-J (if used) integral strategy            ... SPLIT-RIJ (Revised 2003 algorithm where possible)
Printlevel                                  ...      1
Contraction scheme used                     ... SEGMENTED contraction
Prescreening option                         ... SCHWARTZ
   Thresh                                   ... 1.000e-09
   Tcut                                     ... 1.000e-10
   Tpresel                                  ... 1.000e-10 
Coulomb Range Separation                    ... NOT USED
Exchange Range Separation                   ... NOT USED
Multipole approximations                    ... NOT USED
Finite Nucleus Model                        ... NOT USED
CABS basis                                  ... NOT available
Auxiliary Coulomb fitting basis             ... AVAILABLE
   # of basis functions in Aux-J            ...   1185
   # of shells in Aux-J                     ...    407
   Maximum angular momentum in Aux-J        ...      4
Auxiliary J/K fitting basis                 ... NOT available
Auxiliary Correlation fitting basis         ... NOT available
Auxiliary 'external' fitting basis          ... NOT available

Checking pre-screening integrals            ... done (  0.0 sec) Dimension = 170
Check shell pair data                       ... done (  0.0 sec)
Shell pair information
Shell pair cut-off parameter TPreSel        ...   1.0e-10
Total number of shell pairs                 ...     14535
Shell pairs after pre-screening             ...     10445
Total number of primitive shell pairs       ...     62501
Primitive shell pairs kept                  ...     25900
          la=0 lb=0:   4025 shell pairs
          la=1 lb=0:   3548 shell pairs
          la=1 lb=1:    824 shell pairs
          la=2 lb=0:   1321 shell pairs
          la=2 lb=1:    609 shell pairs
          la=2 lb=2:    118 shell pairs

Calculating one electron integrals          ... done (  0.1 sec)
Calculating RI/J V-Matrix + Cholesky decomp.... done (  0.1 sec)
Calculating Nuclear repulsion               ... done (  0.0 sec) ENN=   2833.555327079134 Eh

Diagonalization of the overlap matrix:
Smallest eigenvalue                        ... 3.356e-03
Time for diagonalization                   ...    0.010 sec
Threshold for overlap eigenvalues          ... 1.000e-07
Number of eigenvalues below threshold      ... 0
Time for construction of square roots      ...    0.025 sec
Total time needed                          ...    0.043 sec

-------------------
DFT GRID GENERATION
-------------------

General Integration Accuracy     IntAcc      ... 4.159
Radial Grid Type                 RadialGrid  ... OptM3 with GC (2021)
Angular Grid (max. ang.)         AngularGrid ... 3 (Lebedev-194)
Angular grid pruning method      GridPruning ... 4 (adaptive)
Weight generation scheme         WeightScheme... mBecke (2022)
Basis function cutoff            BFCut       ... 1.0000e-10
Integration weight cutoff        WCut        ... 1.0000e-14
Partially contracted basis set               ... off
Rotationally invariant grid construction     ... off
Angular grids for H and He will be reduced by one unit

Total number of grid points                  ...    97381
Total number of batches                      ...     1544
Average number of points per batch           ...       63
Average number of grid points per atom       ...     2375
Initializing property integral containers    ... done (  0.0 sec)

SHARK setup successfully completed in   1.6 seconds

Maximum memory used throughout the entire STARTUP-calculation: 51.8 MB
-------------------------------------------------------------------------------
                                 ORCA GUESS
                   Start orbitals & Density for SCF / CASSCF
-------------------------------------------------------------------------------

------------
SCF SETTINGS
------------
Hamiltonian:
 Density Functional     Method          .... DFT(GTOs)
 Exchange Functional    Exchange        .... PBE
   PBE kappa parameter   XKappa         ....  0.804000
   PBE mue parameter    XMuePBE         ....  0.219520
 Correlation Functional Correlation     .... PBE
   PBE beta parameter  CBetaPBE         ....  0.066725
 LDA part of GGA corr.  LDAOpt          .... PW91-LDA
 Gradients option       PostSCFGGA      .... off
   NL short-range parameter             ....  6.400000
 RI-approximation to the Coulomb term is turned on
   Number of AuxJ basis functions       .... 1185


General Settings:
 Integral files         IntName         .... sp
 Hartree-Fock type      HFTyp           .... RHF
 Total Charge           Charge          ....    0
 Multiplicity           Mult            ....    1
 Number of Electrons    NEL             ....  202
 Basis Dimension        Dim             ....  334
 Nuclear Repulsion      ENuc            ....   2833.5553270791 Eh

Convergence Acceleration:
 AO-DIIS                CNVDIIS         .... on
   Start iteration      DIISMaxIt       ....    12
   Startup error        DIISStart       ....  0.200000
   # of expansion vecs  DIISMaxEq       ....     5
   Bias factor          DIISBfac        ....   1.050
   Max. coefficient     DIISMaxC        ....  10.000
 MO-DIIS                CNVKDIIS        .... off
 Trust-Rad. Augm. Hess. CNVTRAH         .... auto
   Auto Start mean grad. ratio tolernc. ....  1.125000
   Auto Start start iteration           ....    50
   Auto Start num. interpolation iter.  ....    10
   Max. Number of Micro iterations      ....    24
   Max. Number of Macro iterations      .... Maxiter - #DIIS iter
   Number of Davidson start vectors     ....     2
   Converg. threshold    (grad. norm)   ....   1.000e-04
   Grad. Scal. Fac. for Micro threshold ....   0.100
   Minimum threshold for Micro iter.    ....   1.000e-02
   NR start threshold (gradient norm)   ....   1.000e-04
   Initial trust radius                 ....   0.400
   Minimum AH scaling param. (alpha)    ....   1.000
   Maximum AH scaling param. (alpha)    .... 1000.000
   Quad. conv. algorithm                .... NR
   White noise on init. David. guess    .... on
   Maximum white noise                  ....   0.010
   Pseudo random numbers                .... off
   Inactive MOs                         .... canonical
   Orbital update algorithm             .... Taylor
   Preconditioner                       .... Diag
   Full preconditioner red. dimension   ....   250
 SOSCF                  CNVSOSCF        .... on
   Start iteration      SOSCFMaxIt      ....   150
   Startup grad/error   SOSCFStart      ....  0.003300
   Hessian update       SOSCFHessUp     .... L-BFGS
 Level Shifting         CNVShift        .... on
   Level shift para.    LevelShift      ....    0.2500
   Turn off err/grad.   ShiftErr        ....    0.0010
 Zerner damping         CNVZerner       .... off
 Static damping         CNVDamp         .... on
   Fraction old density DampFac         ....    0.7000
   Max. Damping (<1)    DampMax         ....    0.9800
   Min. Damping (>=0)   DampMin         ....    0.0000
   Turn off err/grad.   DampErr         ....    0.1000

SCF Procedure:
 Maximum # iterations   MaxIter         ....   125
 SCF integral mode      SCFMode         .... Direct
   Integral package                     .... SHARK and LIBINT hybrid scheme
 Reset frequency        DirectResetFreq ....    20
 Integral Threshold     Thresh          ....  1.000e-09 Eh
 Primitive CutOff       TCut            ....  1.000e-10 Eh

Convergence Tolerance:
 Convergence Check Mode ConvCheckMode   .... Total+1el-Energy
 Convergence forced     ConvForced      .... 0
 Energy Change          TolE            ....  1.000e-05 Eh
 1-El. energy change                    ....  1.000e-02 Eh
 Orbital Gradient       TolG            ....  1.000e-04
 Orbital Rotation angle TolX            ....  1.000e-04
 DIIS Error             TolErr          ....  5.000e-04

------------------------------
INITIAL GUESS: MODEL POTENTIAL
------------------------------
Loading Hartree-Fock densities                     ... done
Calculating cut-offs                               ... done
Initializing the effective Hamiltonian             ... done
Setting up the integral package (SHARK)            ... done
Starting the Coulomb interaction                   ... done (   0.7 sec)
Making the grid                                    ... done (   0.6 sec)
Mapping shells                                     ... done
Starting the XC term evaluation                    ... done (   0.4 sec)
  promolecular density results
     # of electrons  =    201.992832773
     EX              =   -229.998829879
     EC              =     -7.291971598
     EX+EC           =   -237.290801477
Transforming the Hamiltonian                       ... done (   0.0 sec)
Diagonalizing the Hamiltonian                      ... done (   0.0 sec)
Back transforming the eigenvectors                 ... done (   0.0 sec)
Now organizing SCF variables                       ... done
                      ------------------
                      INITIAL GUESS DONE (   1.6 sec)
                      ------------------
             **** ENERGY FILE WAS UPDATED (sp.en.tmp) ****
Finished Guess after   1.9 sec
Maximum memory used throughout the entire GUESS-calculation: 39.6 MB

-------------------------------------------------------------------------------------------
                                      ORCA LEAN-SCF
                              memory conserving SCF solver
-------------------------------------------------------------------------------------------

----------------------------------------D-I-I-S--------------------------------------------
Iteration    Energy (Eh)           Delta-E    RMSDP     MaxDP     DIISErr   Damp  Time(sec)
-------------------------------------------------------------------------------------------
               ***  Starting incremental Fock matrix formation  ***
    1    -2929.1788130126601573     0.00e+00  2.69e-03  1.39e-01  1.82e-01  0.700   2.3
    2    -2929.4043220605776696    -2.26e-01  1.76e-03  7.10e-02  7.44e-02  0.700   2.1
                               ***Turning on AO-DIIS***
    3    -2929.4760704823006563    -7.17e-02  6.95e-04  1.83e-02  2.27e-02  0.700   2.0
    4    -2929.5211231425869300    -4.51e-02  1.05e-03  3.53e-02  1.04e-02  0.000   2.0
    5    -2929.6261883565252901    -1.05e-01  3.17e-04  1.22e-02  8.26e-03  0.000   2.0
                              *** Initializing SOSCF ***
---------------------------------------S-O-S-C-F--------------------------------------
Iteration    Energy (Eh)           Delta-E    RMSDP     MaxDP     MaxGrad    Time(sec)
--------------------------------------------------------------------------------------
    6    -2929.6272937532999094    -1.11e-03  1.13e-04  3.10e-03  1.89e-03     2.0
               *** Restarting incremental Fock matrix formation ***
    7    -2929.6274366620868932    -1.43e-04  7.79e-05  1.77e-03  2.85e-04     2.3
    8    -2929.6274409883885710    -4.33e-06  3.21e-05  1.09e-03  2.65e-04     1.8
                 **** Energy Check signals convergence ****

               *****************************************************
               *                     SUCCESS                       *
               *           SCF CONVERGED AFTER   8 CYCLES          *
               *****************************************************

             **** ENERGY FILE WAS UPDATED (sp.en.tmp) ****

----------------
TOTAL SCF ENERGY
----------------

Total Energy       :      -2929.62744098838857 Eh          -79719.21552 eV

Components:
Nuclear Repulsion  :       2833.55532707913380 Eh           77104.96039 eV
Electronic Energy  :      -5763.18276806752328 Eh         -156824.17591 eV
One Electron Energy:      -9686.71436410545357 Eh         -263588.89845 eV
Two Electron Energy:       3923.53159603793074 Eh          106764.72254 eV

Virial components:
Potential Energy   :      -5848.91126125460869 Eh         -159156.96680 eV
Kinetic Energy     :       2919.28382026622057 Eh           79437.75129 eV
Virial Ratio       :          2.00354320489510

DFT components:
N(Alpha)           :      101.000024187186 electrons
N(Beta)            :      101.000024187186 electrons
N(Total)           :      202.000048374371 electrons
E(X)               :     -231.807298823054 Eh       
E(C)               :       -7.299589194429 Eh       
E(XC)              :     -239.106888017484 Eh       

---------------
SCF CONVERGENCE
---------------

  Last Energy change         ...    4.3263e-06  Tolerance :   1.0000e-05
  Last MAX-Density change    ...    1.0913e-03  Tolerance :   1.0000e-03
  Last RMS-Density change    ...    3.2083e-05  Tolerance :   1.0000e-04
  Last DIIS Error            ...    1.8942e-03  Tolerance :   5.0000e-04
  Last Orbital Gradient      ...    2.6540e-04  Tolerance :   1.0000e-04
  Last Orbital Rotation      ...    4.7228e-04  Tolerance :   1.0000e-04


----------------
ORBITAL ENERGIES
----------------

  NO   OCC          E(Eh)            E(eV) 
   0   2.0000     -88.040820     -2395.7125 
   1   2.0000     -88.035215     -2395.5600 
   2   2.0000     -87.983974     -2394.1657 
   3   2.0000     -87.973090     -2393.8695 
   4   2.0000     -76.426639     -2079.6746 
   5   2.0000     -76.415540     -2079.3726 
   6   2.0000     -18.799384      -511.5572 
   7   2.0000     -18.784652      -511.1564 
   8   2.0000     -18.783691      -511.1302 
   9   2.0000     -18.777008      -510.9484 
  10   2.0000      -9.957602      -270.9601 
  11   2.0000      -9.954876      -270.8860 
  12   2.0000      -9.950356      -270.7629 
  13   2.0000      -9.943095      -270.5654 
  14   2.0000      -9.941295      -270.5164 
  15   2.0000      -9.887695      -269.0579 
  16   2.0000      -9.881210      -268.8814 
  17   2.0000      -9.879742      -268.8415 
  18   2.0000      -9.877085      -268.7692 
  19   2.0000      -7.686035      -209.1476 
  20   2.0000      -7.680743      -209.0036 
  21   2.0000      -7.628938      -207.5940 
  22   2.0000      -7.617971      -207.2955 
  23   2.0000      -6.423831      -174.8013 
  24   2.0000      -6.412923      -174.5045 
  25   2.0000      -5.713787      -155.4800 
  26   2.0000      -5.710625      -155.3940 
  27   2.0000      -5.709084      -155.3521 
  28   2.0000      -5.705062      -155.2426 
  29   2.0000      -5.703008      -155.1867 
  30   2.0000      -5.697283      -155.0309 
  31   2.0000      -5.657714      -153.9542 
  32   2.0000      -5.649747      -153.7374 
  33   2.0000      -5.648982      -153.7166 
  34   2.0000      -5.646984      -153.6622 
  35   2.0000      -5.638669      -153.4360 
  36   2.0000      -5.637969      -153.4169 
  37   2.0000      -4.647015      -126.4517 
  38   2.0000      -4.645340      -126.4061 
  39   2.0000      -4.644024      -126.3703 
  40   2.0000      -4.635556      -126.1399 
  41   2.0000      -4.634548      -126.1125 
  42   2.0000      -4.633515      -126.0843 
  43   2.0000      -0.988927       -26.9101 
  44   2.0000      -0.971728       -26.4420 
  45   2.0000      -0.943057       -25.6619 
  46   2.0000      -0.934770       -25.4364 
  47   2.0000      -0.760176       -20.6854 
  48   2.0000      -0.719016       -19.5654 
  49   2.0000      -0.707062       -19.2401 
  50   2.0000      -0.690935       -18.8013 
  51   2.0000      -0.680415       -18.5150 
  52   2.0000      -0.669549       -18.2194 
  53   2.0000      -0.647762       -17.6265 
  54   2.0000      -0.628564       -17.1041 
  55   2.0000      -0.599712       -16.3190 
  56   2.0000      -0.585361       -15.9285 
  57   2.0000      -0.577971       -15.7274 
  58   2.0000      -0.563945       -15.3457 
  59   2.0000      -0.555747       -15.1226 
  60   2.0000      -0.496252       -13.5037 
  61   2.0000      -0.491463       -13.3734 
  62   2.0000      -0.470485       -12.8025 
  63   2.0000      -0.469332       -12.7712 
  64   2.0000      -0.451928       -12.2976 
  65   2.0000      -0.445550       -12.1240 
  66   2.0000      -0.438929       -11.9439 
  67   2.0000      -0.428803       -11.6683 
  68   2.0000      -0.424669       -11.5558 
  69   2.0000      -0.420053       -11.4302 
  70   2.0000      -0.402205       -10.9445 
  71   2.0000      -0.393385       -10.7045 
  72   2.0000      -0.390024       -10.6131 
  73   2.0000      -0.384323       -10.4580 
  74   2.0000      -0.378625       -10.3029 
  75   2.0000      -0.369664       -10.0591 
  76   2.0000      -0.364671        -9.9232 
  77   2.0000      -0.356918        -9.7122 
  78   2.0000      -0.350141        -9.5278 
  79   2.0000      -0.348102        -9.4723 
  80   2.0000      -0.344271        -9.3681 
  81   2.0000      -0.341578        -9.2948 
  82   2.0000      -0.337036        -9.1712 
  83   2.0000      -0.330687        -8.9985 
  84   2.0000      -0.326890        -8.8951 
  85   2.0000      -0.318420        -8.6647 
  86   2.0000      -0.307095        -8.3565 
  87   2.0000      -0.297712        -8.1011 
  88   2.0000      -0.292983        -7.9725 
  89   2.0000      -0.286069        -7.7843 
  90   2.0000      -0.275848        -7.5062 
  91   2.0000      -0.271755        -7.3948 
  92   2.0000      -0.264250        -7.1906 
  93   2.0000      -0.260338        -7.0841 
  94   2.0000      -0.252037        -6.8583 
  95   2.0000      -0.232986        -6.3399 
  96   2.0000      -0.215895        -5.8748 
  97   2.0000      -0.211640        -5.7590 
  98   2.0000      -0.198942        -5.4135 
  99   2.0000      -0.188929        -5.1410 
 100   2.0000      -0.175700        -4.7810 
 101   0.0000      -0.039712        -1.0806 
 102   0.0000      -0.028708        -0.7812 
 103   0.0000      -0.011623        -0.3163 
 104   0.0000       0.002426         0.0660 
 105   0.0000       0.020822         0.5666 
 106   0.0000       0.033737         0.9180 
 107   0.0000       0.037246         1.0135 
 108   0.0000       0.044137         1.2010 
 109   0.0000       0.048320         1.3148 
 110   0.0000       0.050376         1.3708 
 111   0.0000       0.060695         1.6516 
*Only the first 10 virtual orbitals were printed.

                    ********************************
                    * MULLIKEN POPULATION ANALYSIS *
                    ********************************

-----------------------
MULLIKEN ATOMIC CHARGES
-----------------------
   0 C :   -0.322993
   1 C :    0.000253
   2 O :   -0.382193
   3 P :    0.616136
   4 S :   -0.314348
   5 O :   -0.342179
   6 C :    0.009687
   7 C :   -0.319734
   8 S :   -0.100036
   9 C :   -0.371845
  10 S :   -0.078156
  11 P :    0.625176
  12 S :   -0.309314
  13 O :   -0.384256
  14 C :   -0.003064
  15 C :   -0.314004
  16 O :   -0.385656
  17 C :   -0.018042
  18 C :   -0.296760
  19 H :    0.118185
  20 H :    0.130817
  21 H :    0.116163
  22 H :    0.115842
  23 H :    0.106098
  24 H :    0.107109
  25 H :    0.111455
  26 H :    0.116750
  27 H :    0.109959
  28 H :    0.130433
  29 H :    0.183301
  30 H :    0.213598
  31 H :    0.099716
  32 H :    0.108038
  33 H :    0.114460
  34 H :    0.110324
  35 H :    0.120853
  36 H :    0.102364
  37 H :    0.122397
  38 H :    0.108943
  39 H :    0.107237
  40 H :    0.137287
Sum of atomic charges:   -0.0000000

--------------------------------
MULLIKEN REDUCED ORBITAL CHARGES
--------------------------------
  0 C s       :     3.110041  s :     3.110041
      pz      :     1.069343  p :     3.184919
      px      :     1.098635
      py      :     1.016941
      dz2     :     0.004168  d :     0.028033
      dxz     :     0.006039
      dyz     :     0.005991
      dx2y2   :     0.006586
      dxy     :     0.005249

  1 C s       :     3.075582  s :     3.075582
      pz      :     0.791862  p :     2.863996
      px      :     1.004910
      py      :     1.067224
      dz2     :     0.015447  d :     0.060169
      dxz     :     0.013257
      dyz     :     0.014169
      dx2y2   :     0.008288
      dxy     :     0.009008

  2 O s       :     3.756522  s :     3.756522
      pz      :     1.472926  p :     4.612736
      px      :     1.380842
      py      :     1.758968
      dz2     :     0.003813  d :     0.012934
      dxz     :     0.002427
      dyz     :     0.001699
      dx2y2   :     0.002777
      dxy     :     0.002219

  3 P s       :     5.205295  s :     5.205295
      pz      :     2.872699  p :     8.581836
      px      :     2.815921
      py      :     2.893216
      dz2     :     0.142155  d :     0.596733
      dxz     :     0.108230
      dyz     :     0.114725
      dx2y2   :     0.145144
      dxy     :     0.086480

  4 S s       :     5.913606  s :     5.913606
      pz      :     3.307538  p :    10.357202
      px      :     3.437410
      py      :     3.612253
      dz2     :     0.008726  d :     0.043540
      dxz     :     0.015683
      dyz     :     0.007565
      dx2y2   :     0.005499
      dxy     :     0.006068

  5 O s       :     3.750885  s :     3.750885
      pz      :     1.307776  p :     4.578054
      px      :     1.598786
      py      :     1.671492
      dz2     :     0.002709  d :     0.013240
      dxz     :     0.003656
      dyz     :     0.002790
      dx2y2   :     0.002213
      dxy     :     0.001872

  6 C s       :     3.074659  s :     3.074659
      pz      :     0.858540  p :     2.855807
      px      :     0.928806
      py      :     1.068460
      dz2     :     0.010137  d :     0.059848
      dxz     :     0.017800
      dyz     :     0.012277
      dx2y2   :     0.007477
      dxy     :     0.012157

  7 C s       :     3.107337  s :     3.107337
      pz      :     1.059193  p :     3.184285
      px      :     1.088005
      py      :     1.037087
      dz2     :     0.003337  d :     0.028112
      dxz     :     0.007209
      dyz     :     0.006298
      dx2y2   :     0.003330
      dxy     :     0.007938

  8 S s       :     5.879043  s :     5.879043
      pz      :     3.804160  p :    10.145330
      px      :     3.094764
      py      :     3.246406
      dz2     :     0.010899  d :     0.075662
      dxz     :     0.009080
      dyz     :     0.006982
      dx2y2   :     0.035758
      dxy     :     0.012945

  9 C s       :     3.226310  s :     3.226310
      pz      :     1.050218  p :     3.105823
      px      :     0.930512
      py      :     1.125093
      dz2     :     0.007623  d :     0.039712
      dxz     :     0.010066
      dyz     :     0.005782
      dx2y2   :     0.011346
      dxy     :     0.004895

 10 S s       :     5.875303  s :     5.875303
      pz      :     3.267837  p :    10.129698
      px      :     3.579926
      py      :     3.281935
      dz2     :     0.017578  d :     0.073155
      dxz     :     0.014592
      dyz     :     0.018632
      dx2y2   :     0.010096
      dxy     :     0.012256

 11 P s       :     5.204209  s :     5.204209
      pz      :     2.801347  p :     8.592605
      px      :     2.875066
      py      :     2.916192
      dz2     :     0.125331  d :     0.578010
      dxz     :     0.131644
      dyz     :     0.111141
      dx2y2   :     0.100908
      dxy     :     0.108987

 12 S s       :     5.920592  s :     5.920592
      pz      :     3.680020  p :    10.344789
      px      :     3.616377
      py      :     3.048392
      dz2     :     0.006386  d :     0.043933
      dxz     :     0.001986
      dyz     :     0.007906
      dx2y2   :     0.015265
      dxy     :     0.012389

 13 O s       :     3.758323  s :     3.758323
      pz      :     1.560068  p :     4.613067
      px      :     1.491688
      py      :     1.561310
      dz2     :     0.002448  d :     0.012866
      dxz     :     0.002672
      dyz     :     0.002153
      dx2y2   :     0.002784
      dxy     :     0.002808

 14 C s       :     3.074218  s :     3.074218
      pz      :     1.037016  p :     2.868321
      px      :     0.944707
      py      :     0.886598
      dz2     :     0.011163  d :     0.060525
      dxz     :     0.010579
      dyz     :     0.010694
      dx2y2   :     0.009348
      dxy     :     0.018741

 15 C s       :     3.105408  s :     3.105408
      pz      :     1.069459  p :     3.180631
      px      :     1.043803
      py      :     1.067369
      dz2     :     0.004889  d :     0.027966
      dxz     :     0.006877
      dyz     :     0.005761
      dx2y2   :     0.002161
      dxy     :     0.008277

 16 O s       :     3.759048  s :     3.759048
      pz      :     1.319208  p :     4.614085
      px      :     1.678287
      py      :     1.616591
      dz2     :     0.002350  d :     0.012523
      dxz     :     0.002125
      dyz     :     0.004285
      dx2y2   :     0.001873
      dxy     :     0.001890

 17 C s       :     3.085015  s :     3.085015
      pz      :     0.824704  p :     2.873337
      px      :     1.040321
      py      :     1.008313
      dz2     :     0.016657  d :     0.059690
      dxz     :     0.009564
      dyz     :     0.014394
      dx2y2   :     0.009182
      dxy     :     0.009894

 18 C s       :     3.092579  s :     3.092579
      pz      :     1.022115  p :     3.176340
      px      :     1.104537
      py      :     1.049689
      dz2     :     0.005587  d :     0.027841
      dxz     :     0.004386
      dyz     :     0.006259
      dx2y2   :     0.006176
      dxy     :     0.005433

 19 H s       :     0.881815  s :     0.881815

 20 H s       :     0.869183  s :     0.869183

 21 H s       :     0.883837  s :     0.883837

 22 H s       :     0.884158  s :     0.884158

 23 H s       :     0.893902  s :     0.893902

 24 H s       :     0.892891  s :     0.892891

 25 H s       :     0.888545  s :     0.888545

 26 H s       :     0.883250  s :     0.883250

 27 H s       :     0.890041  s :     0.890041

 28 H s       :     0.869567  s :     0.869567

 29 H s       :     0.816699  s :     0.816699

 30 H s       :     0.786402  s :     0.786402

 31 H s       :     0.900284  s :     0.900284

 32 H s       :     0.891962  s :     0.891962

 33 H s       :     0.885540  s :     0.885540

 34 H s       :     0.889676  s :     0.889676

 35 H s       :     0.879147  s :     0.879147

 36 H s       :     0.897636  s :     0.897636

 37 H s       :     0.877603  s :     0.877603

 38 H s       :     0.891057  s :     0.891057

 39 H s       :     0.892763  s :     0.892763

 40 H s       :     0.862713  s :     0.862713


------------------------
MULLIKEN OVERLAP CHARGES
------------------------
B(  0-C ,  1-C ) :   0.9296 B(  0-C ,  2-O ) :  -0.0887 B(  0-C , 19-H ) :   0.7296 
B(  0-C , 20-H ) :   0.7132 B(  0-C , 21-H ) :   0.6887 B(  0-C , 22-H ) :  -0.0651 
B(  0-C , 23-H ) :  -0.0502 B(  1-C ,  2-O ) :   0.5533 B(  1-C ,  3-P ) :  -0.0793 
B(  1-C , 22-H ) :   0.7257 B(  1-C , 23-H ) :   0.7276 B(  2-O ,  3-P ) :   0.6123 
B(  2-O ,  4-S ) :  -0.0654 B(  2-O ,  5-O ) :  -0.0605 B(  2-O ,  8-S ) :  -0.0651 
B(  2-O , 22-H ) :  -0.0669 B(  2-O , 23-H ) :  -0.0590 B(  3-P ,  4-S ) :   0.9207 
B(  3-P ,  5-O ) :   0.6473 B(  3-P ,  6-C ) :  -0.0693 B(  3-P ,  8-S ) :   0.5341 
B(  3-P ,  9-C ) :  -0.0664 B(  4-S ,  5-O ) :  -0.0658 B(  4-S ,  8-S ) :  -0.1080 
B(  4-S , 22-H ) :   0.0529 B(  4-S , 30-H ) :   0.0688 B(  5-O ,  6-C ) :   0.5487 
B(  5-O ,  7-C ) :  -0.0889 B(  5-O ,  8-S ) :  -0.0671 B(  5-O , 24-H ) :  -0.0573 
B(  5-O , 25-H ) :  -0.0607 B(  6-C ,  7-C ) :   0.9246 B(  6-C , 24-H ) :   0.7399 
B(  6-C , 25-H ) :   0.7262 B(  7-C , 24-H ) :  -0.0646 B(  7-C , 26-H ) :   0.7305 
B(  7-C , 27-H ) :   0.6842 B(  7-C , 28-H ) :   0.7383 B(  8-S ,  9-C ) :   0.4668 
B(  8-S , 10-S ) :  -0.1577 B(  8-S , 29-H ) :  -0.0665 B(  8-S , 30-H ) :  -0.0574 
B(  9-C , 10-S ) :   0.4526 B(  9-C , 29-H ) :   0.7269 B(  9-C , 30-H ) :   0.6414 
B( 10-S , 11-P ) :   0.5122 B( 10-S , 12-S ) :  -0.0532 B( 10-S , 13-O ) :  -0.0880 
B( 10-S , 16-O ) :  -0.0890 B( 10-S , 29-H ) :  -0.0598 B( 10-S , 30-H ) :  -0.0581 
B( 11-P , 12-S ) :   0.9381 B( 11-P , 13-O ) :   0.6152 B( 11-P , 14-C ) :  -0.0972 
B( 11-P , 16-O ) :   0.6214 B( 11-P , 17-C ) :  -0.0768 B( 12-S , 13-O ) :  -0.0887 
B( 12-S , 16-O ) :  -0.0717 B( 12-S , 32-H ) :   0.0831 B( 12-S , 37-H ) :   0.0716 
B( 13-O , 14-C ) :   0.5756 B( 13-O , 15-C ) :  -0.1046 B( 13-O , 16-O ) :  -0.0525 
B( 13-O , 31-H ) :  -0.0607 B( 13-O , 32-H ) :  -0.0664 B( 14-C , 15-C ) :   0.8837 
B( 14-C , 31-H ) :   0.7282 B( 14-C , 32-H ) :   0.6981 B( 15-C , 31-H ) :  -0.0612 
B( 15-C , 32-H ) :  -0.0642 B( 15-C , 33-H ) :   0.7299 B( 15-C , 34-H ) :   0.6839 
B( 15-C , 35-H ) :   0.6947 B( 16-O , 17-C ) :   0.5488 B( 16-O , 18-C ) :  -0.1132 
B( 16-O , 36-H ) :  -0.0630 B( 16-O , 37-H ) :  -0.0626 B( 17-C , 18-C ) :   0.8885 
B( 17-C , 36-H ) :   0.7355 B( 17-C , 37-H ) :   0.7114 B( 18-C , 36-H ) :  -0.0668 
B( 18-C , 38-H ) :   0.7315 B( 18-C , 39-H ) :   0.6991 B( 18-C , 40-H ) :   0.7493 
B( 19-H , 20-H ) :  -0.0544 B( 22-H , 23-H ) :  -0.0651 B( 24-H , 25-H ) :  -0.0709 
B( 26-H , 28-H ) :  -0.0529 B( 31-H , 32-H ) :  -0.0638 B( 33-H , 35-H ) :  -0.0598 
B( 36-H , 37-H ) :  -0.0793 B( 38-H , 40-H ) :  -0.0512 


                     *******************************
                     * LOEWDIN POPULATION ANALYSIS *
                     *******************************

----------------------
LOEWDIN ATOMIC CHARGES
----------------------
   0 C :   -0.372502
   1 C :   -0.115117
   2 O :   -0.244181
   3 P :    0.574844
   4 S :   -0.296525
   5 O :   -0.226893
   6 C :   -0.105765
   7 C :   -0.370923
   8 S :    0.076113
   9 C :   -0.479297
  10 S :    0.095074
  11 P :    0.559015
  12 S :   -0.299068
  13 O :   -0.255373
  14 C :   -0.124323
  15 C :   -0.365643
  16 O :   -0.249122
  17 C :   -0.119320
  18 C :   -0.358792
  19 H :    0.123601
  20 H :    0.122317
  21 H :    0.132997
  22 H :    0.114812
  23 H :    0.119229
  24 H :    0.113189
  25 H :    0.123425
  26 H :    0.115411
  27 H :    0.129365
  28 H :    0.124954
  29 H :    0.138843
  30 H :    0.129608
  31 H :    0.116122
  32 H :    0.106539
  33 H :    0.123969
  34 H :    0.129979
  35 H :    0.120050
  36 H :    0.109073
  37 H :    0.110021
  38 H :    0.123372
  39 H :    0.129237
  40 H :    0.121682

-------------------------------
LOEWDIN REDUCED ORBITAL CHARGES
-------------------------------
  0 C s       :     2.954457  s :     2.954457
      pz      :     1.124778  p :     3.348861
      px      :     1.144191
      py      :     1.079891
      dz2     :     0.010190  d :     0.069183
      dxz     :     0.014445
      dyz     :     0.015248
      dx2y2   :     0.017871
      dxy     :     0.011429

  1 C s       :     2.927324  s :     2.927324
      pz      :     0.879169  p :     3.053218
      px      :     1.061918
      py      :     1.112131
      dz2     :     0.034319  d :     0.134575
      dxz     :     0.028414
      dyz     :     0.032168
      dx2y2   :     0.021108
      dxy     :     0.018566

  2 O s       :     3.495499  s :     3.495499
      pz      :     1.509529  p :     4.724921
      px      :     1.463376
      py      :     1.752016
      dz2     :     0.007469  d :     0.023760
      dxz     :     0.004576
      dyz     :     0.002640
      dx2y2   :     0.005630
      dxy     :     0.003445

  3 P s       :     5.050806  s :     5.050806
      pz      :     2.847952  p :     8.546527
      px      :     2.805249
      py      :     2.893325
      dz2     :     0.196906  d :     0.827823
      dxz     :     0.144834
      dyz     :     0.160133
      dx2y2   :     0.214406
      dxy     :     0.111544

  4 S s       :     5.759426  s :     5.759426
      pz      :     3.375377  p :    10.478567
      px      :     3.464512
      py      :     3.638679
      dz2     :     0.010223  d :     0.058531
      dxz     :     0.023596
      dyz     :     0.010194
      dx2y2   :     0.006366
      dxy     :     0.008152

  5 O s       :     3.496929  s :     3.496929
      pz      :     1.384051  p :     4.706015
      px      :     1.627319
      py      :     1.694645
      dz2     :     0.005534  d :     0.023949
      dxz     :     0.006940
      dyz     :     0.005825
      dx2y2   :     0.003177
      dxy     :     0.002473

  6 C s       :     2.926902  s :     2.926902
      pz      :     0.934204  p :     3.045911
      px      :     1.006037
      py      :     1.105670
      dz2     :     0.020181  d :     0.132952
      dxz     :     0.038995
      dyz     :     0.029016
      dx2y2   :     0.017008
      dxy     :     0.027752

  7 C s       :     2.953420  s :     2.953420
      pz      :     1.118167  p :     3.348104
      px      :     1.133148
      py      :     1.096788
      dz2     :     0.007973  d :     0.069399
      dxz     :     0.017494
      dyz     :     0.016359
      dx2y2   :     0.008750
      dxy     :     0.018823

  8 S s       :     5.642184  s :     5.642184
      pz      :     3.780948  p :    10.185953
      px      :     3.144248
      py      :     3.260756
      dz2     :     0.013913  d :     0.095750
      dxz     :     0.010542
      dyz     :     0.008622
      dx2y2   :     0.047951
      dxy     :     0.014721

  9 C s       :     3.060727  s :     3.060727
      pz      :     1.121577  p :     3.330910
      px      :     1.047169
      py      :     1.162164
      dz2     :     0.017232  d :     0.087660
      dxz     :     0.021340
      dyz     :     0.012508
      dx2y2   :     0.026376
      dxy     :     0.010205

 10 S s       :     5.639237  s :     5.639237
      pz      :     3.317458  p :    10.173821
      px      :     3.572330
      py      :     3.284033
      dz2     :     0.020868  d :     0.091867
      dxz     :     0.018637
      dyz     :     0.023382
      dx2y2   :     0.012384
      dxy     :     0.016597

 11 P s       :     5.061258  s :     5.061258
      pz      :     2.775794  p :     8.569737
      px      :     2.864391
      py      :     2.929552
      dz2     :     0.176555  d :     0.809989
      dxz     :     0.194448
      dyz     :     0.151497
      dx2y2   :     0.138625
      dxy     :     0.148865

 12 S s       :     5.770046  s :     5.770046
      pz      :     3.683996  p :    10.470307
      px      :     3.621305
      py      :     3.165006
      dz2     :     0.009629  d :     0.058716
      dxz     :     0.001985
      dyz     :     0.008885
      dx2y2   :     0.021684
      dxy     :     0.016534

 13 O s       :     3.504335  s :     3.504335
      pz      :     1.594321  p :     4.727184
      px      :     1.530376
      py      :     1.602487
      dz2     :     0.004062  d :     0.023855
      dxz     :     0.005927
      dyz     :     0.003672
      dx2y2   :     0.004921
      dxy     :     0.005273

 14 C s       :     2.927759  s :     2.927759
      pz      :     1.075152  p :     3.060819
      px      :     1.019523
      py      :     0.966144
      dz2     :     0.024043  d :     0.135744
      dxz     :     0.026807
      dyz     :     0.023486
      dx2y2   :     0.019626
      dxy     :     0.041782

 15 C s       :     2.954805  s :     2.954805
      pz      :     1.116878  p :     3.341599
      px      :     1.101443
      py      :     1.123277
      dz2     :     0.011302  d :     0.069239
      dxz     :     0.018766
      dyz     :     0.013616
      dx2y2   :     0.005068
      dxy     :     0.020487

 16 O s       :     3.500127  s :     3.500127
      pz      :     1.379374  p :     4.725802
      px      :     1.690694
      py      :     1.655734
      dz2     :     0.004824  d :     0.023193
      dxz     :     0.004649
      dyz     :     0.008485
      dx2y2   :     0.002438
      dxy     :     0.002798

 17 C s       :     2.930228  s :     2.930228
      pz      :     0.900437  p :     3.055852
      px      :     1.100490
      py      :     1.054925
      dz2     :     0.036789  d :     0.133240
      dxz     :     0.018646
      dyz     :     0.034978
      dx2y2   :     0.020493
      dxy     :     0.022333

 18 C s       :     2.950954  s :     2.950954
      pz      :     1.084098  p :     3.338824
      px      :     1.143710
      py      :     1.111016
      dz2     :     0.014573  d :     0.069014
      dxz     :     0.009579
      dyz     :     0.017140
      dx2y2   :     0.015171
      dxy     :     0.012551

 19 H s       :     0.876399  s :     0.876399

 20 H s       :     0.877683  s :     0.877683

 21 H s       :     0.867003  s :     0.867003

 22 H s       :     0.885188  s :     0.885188

 23 H s       :     0.880771  s :     0.880771

 24 H s       :     0.886811  s :     0.886811

 25 H s       :     0.876575  s :     0.876575

 26 H s       :     0.884589  s :     0.884589

 27 H s       :     0.870635  s :     0.870635

 28 H s       :     0.875046  s :     0.875046

 29 H s       :     0.861157  s :     0.861157

 30 H s       :     0.870392  s :     0.870392

 31 H s       :     0.883878  s :     0.883878

 32 H s       :     0.893461  s :     0.893461

 33 H s       :     0.876031  s :     0.876031

 34 H s       :     0.870021  s :     0.870021

 35 H s       :     0.879950  s :     0.879950

 36 H s       :     0.890927  s :     0.890927

 37 H s       :     0.889979  s :     0.889979

 38 H s       :     0.876628  s :     0.876628

 39 H s       :     0.870763  s :     0.870763

 40 H s       :     0.878318  s :     0.878318


---------------------------------
LOEWDIN BOND ORDERS (THRESH 0.050000)
---------------------------------
B(  0-C ,  1-C ) :   1.1588 B(  0-C ,  2-O ) :   0.0585 B(  0-C , 19-H ) :   0.9351 
B(  0-C , 20-H ) :   0.9261 B(  0-C , 21-H ) :   0.9237 B(  1-C ,  2-O ) :   1.0854 
B(  1-C ,  3-P ) :   0.0638 B(  1-C , 22-H ) :   0.9089 B(  1-C , 23-H ) :   0.9173 
B(  2-O ,  3-P ) :   1.2733 B(  2-O ,  4-S ) :   0.0865 B(  2-O ,  5-O ) :   0.0532 
B(  2-O ,  8-S ) :   0.0550 B(  3-P ,  4-S ) :   1.7315 B(  3-P ,  5-O ) :   1.3162 
B(  3-P ,  6-C ) :   0.0599 B(  3-P ,  8-S ) :   1.0308 B(  4-S ,  5-O ) :   0.0717 
B(  4-S ,  8-S ) :   0.1274 B(  5-O ,  6-C ) :   1.0720 B(  5-O ,  7-C ) :   0.0562 
B(  5-O ,  8-S ) :   0.0725 B(  6-C ,  7-C ) :   1.1591 B(  6-C , 24-H ) :   0.9172 
B(  6-C , 25-H ) :   0.9149 B(  7-C , 26-H ) :   0.9321 B(  7-C , 27-H ) :   0.9236 
B(  7-C , 28-H ) :   0.9305 B(  8-S ,  9-C ) :   1.1770 B(  8-S , 10-S ) :   0.0962 
B(  9-C , 10-S ) :   1.1558 B(  9-C , 29-H ) :   0.9238 B(  9-C , 30-H ) :   0.9045 
B( 10-S , 11-P ) :   1.0853 B( 10-S , 12-S ) :   0.1176 B( 10-S , 13-O ) :   0.0609 
B( 10-S , 16-O ) :   0.0554 B( 11-P , 12-S ) :   1.7321 B( 11-P , 13-O ) :   1.2536 
B( 11-P , 14-C ) :   0.0643 B( 11-P , 16-O ) :   1.2732 B( 11-P , 17-C ) :   0.0634 
B( 12-S , 13-O ) :   0.0996 B( 12-S , 16-O ) :   0.0976 B( 13-O , 14-C ) :   1.0981 
B( 13-O , 15-C ) :   0.0613 B( 13-O , 16-O ) :   0.0554 B( 14-C , 15-C ) :   1.1532 
B( 14-C , 31-H ) :   0.9168 B( 14-C , 32-H ) :   0.9027 B( 15-C , 33-H ) :   0.9373 
B( 15-C , 34-H ) :   0.9270 B( 15-C , 35-H ) :   0.9273 B( 16-O , 17-C ) :   1.0756 
B( 16-O , 18-C ) :   0.0582 B( 17-C , 18-C ) :   1.1544 B( 17-C , 36-H ) :   0.9152 
B( 17-C , 37-H ) :   0.9022 B( 18-C , 38-H ) :   0.9362 B( 18-C , 39-H ) :   0.9277 
B( 18-C , 40-H ) :   0.9278 

------------------------------------------
LOEWDIN REDUCED ORBITAL POPULATIONS PER MO
-------------------------------------------
THRESHOLD FOR PRINTING IS 0.1%%
                      0         1         2         3         4         5   
                 -88.04082 -88.03522 -87.98397 -87.97309 -76.42664 -76.41554
                   2.00000   2.00000   2.00000   2.00000   2.00000   2.00000
                  --------  --------  --------  --------  --------  --------
 3 P  s               0.0       0.0       0.0       0.0     100.0       0.0
 4 S  s               0.0       0.0     100.0       0.0       0.0       0.0
 8 S  s             100.0       0.0       0.0       0.0       0.0       0.0
10 S  s               0.0     100.0       0.0       0.0       0.0       0.0
11 P  s               0.0       0.0       0.0       0.0       0.0     100.0
12 S  s               0.0       0.0       0.0     100.0       0.0       0.0

                      6         7         8         9        10        11   
                 -18.79938 -18.78465 -18.78369 -18.77701  -9.95760  -9.95488
                   2.00000   2.00000   2.00000   2.00000   2.00000   2.00000
                  --------  --------  --------  --------  --------  --------
 0 C  py              0.0       0.0       0.0       0.0       0.1       0.0
 1 C  s               0.0       0.0       0.0       0.0      99.7       0.0
 2 O  s              99.9       0.0       0.0       0.0       0.0       0.0
 5 O  s               0.0      99.9       0.0       0.0       0.0       0.0
 9 C  s               0.0       0.0       0.0       0.0       0.0      99.8
13 O  s               0.0       0.0       0.0      99.9       0.0       0.0
16 O  s               0.0       0.0      99.9       0.0       0.0       0.0

                     12        13        14        15        16        17   
                  -9.95036  -9.94309  -9.94130  -9.88770  -9.88121  -9.87974
                   2.00000   2.00000   2.00000   2.00000   2.00000   2.00000
                  --------  --------  --------  --------  --------  --------
 0 C  s               0.0       0.0       0.0      99.7       0.0       0.0
 1 C  py              0.0       0.0       0.0       0.1       0.0       0.0
 6 C  s              99.7       0.0       0.0       0.0       0.0       0.0
 7 C  s               0.0       0.0       0.0       0.0      99.7       0.0
14 C  s               0.0       0.0      99.6       0.0       0.0       0.0
15 C  s               0.0       0.0       0.0       0.0       0.0      99.7
17 C  s               0.0      99.7       0.0       0.0       0.0       0.0

                     18        19        20        21        22        23   
                  -9.87709  -7.68603  -7.68074  -7.62894  -7.61797  -6.42383
                   2.00000   2.00000   2.00000   2.00000   2.00000   2.00000
                  --------  --------  --------  --------  --------  --------
 2 O  px              0.0       0.0       0.0       0.0       0.0       0.2
 3 P  s               0.0       0.0       0.0       0.0       0.0      99.3
 4 S  s               0.0       0.0       0.0      99.9       0.0       0.0
 5 O  pz              0.0       0.0       0.0       0.0       0.0       0.2
 8 S  s               0.0      99.7       0.0       0.0       0.0       0.0
 9 C  pz              0.0       0.0       0.1       0.0       0.0       0.0
 9 C  px              0.0       0.2       0.0       0.0       0.0       0.0
10 S  s               0.0       0.0      99.7       0.0       0.0       0.0
12 S  s               0.0       0.0       0.0       0.0      99.9       0.0
18 C  s              99.7       0.0       0.0       0.0       0.0       0.0

                     24        25        26        27        28        29   
                  -6.41292  -5.71379  -5.71063  -5.70908  -5.70506  -5.70301
                   2.00000   2.00000   2.00000   2.00000   2.00000   2.00000
                  --------  --------  --------  --------  --------  --------
 8 S  pz              0.0       2.5       0.9       0.0       0.0      96.6
 8 S  px              0.0      51.1      48.7       0.0       0.0       0.2
 8 S  py              0.0      46.4      50.4       0.0       0.0       3.2
10 S  pz              0.0       0.0       0.0       9.6      88.5       0.0
10 S  px              0.0       0.0       0.0      27.1       0.2       0.0
10 S  py              0.0       0.0       0.0      63.3      11.2       0.0
11 P  s              99.4       0.0       0.0       0.0       0.0       0.0
13 O  pz              0.1       0.0       0.0       0.0       0.0       0.0
13 O  px              0.1       0.0       0.0       0.0       0.0       0.0
16 O  pz              0.2       0.0       0.0       0.0       0.0       0.0

                     30        31        32        33        34        35   
                  -5.69728  -5.65771  -5.64975  -5.64898  -5.64698  -5.63867
                   2.00000   2.00000   2.00000   2.00000   2.00000   2.00000
                  --------  --------  --------  --------  --------  --------
 4 S  pz              0.0      55.8      21.6      22.5       0.0       0.0
 4 S  px              0.0      32.1      67.0       0.8       0.0       0.0
 4 S  py              0.0      12.0      11.4      76.6       0.0       0.0
10 S  pz              1.9       0.0       0.0       0.0       0.0       0.0
10 S  px             72.6       0.0       0.0       0.0       0.0       0.0
10 S  py             25.5       0.0       0.0       0.0       0.0       0.0
12 S  pz              0.0       0.0       0.0       0.0       0.3      29.7
12 S  px              0.0       0.0       0.0       0.0       5.8      67.3
12 S  py              0.0       0.0       0.0       0.0      93.9       3.1

                     36        37        38        39        40        41   
                  -5.63797  -4.64701  -4.64534  -4.64402  -4.63556  -4.63455
                   2.00000   2.00000   2.00000   2.00000   2.00000   2.00000
                  --------  --------  --------  --------  --------  --------
 3 P  pz              0.0      28.1      14.6      57.2       0.0       0.0
 3 P  px              0.0      68.4      18.1      13.3       0.0       0.0
 3 P  py              0.0       3.3      67.2      29.5       0.0       0.0
11 P  pz              0.0       0.0       0.0       0.0      98.2       0.5
11 P  px              0.0       0.0       0.0       0.0       0.6      99.3
11 P  py              0.0       0.0       0.0       0.0       1.1       0.0
12 S  pz             70.1       0.0       0.0       0.0       0.0       0.0
12 S  px             27.0       0.0       0.0       0.0       0.0       0.0
12 S  py              3.0       0.0       0.0       0.0       0.0       0.0

                     42        43        44        45        46        47   
                  -4.63351  -0.98893  -0.97173  -0.94306  -0.93477  -0.76018
                   2.00000   2.00000   2.00000   2.00000   2.00000   2.00000
                  --------  --------  --------  --------  --------  --------
 0 C  s               0.0       0.3       0.0       0.3       0.0       0.1
 0 C  pz              0.0       0.2       0.0       0.1       0.0       0.0
 0 C  py              0.0       0.4       0.0       0.3       0.0       0.0
 1 C  s               0.0       4.3       0.0       3.7       0.0       0.4
 1 C  pz              0.0       3.5       0.0       2.4       0.0       0.0
 1 C  px              0.0       1.2       0.0       0.7       0.0       0.0
 1 C  dz2             0.0       0.2       0.0       0.1       0.0       0.0
 1 C  dxz             0.0       0.2       0.0       0.2       0.0       0.0
 2 O  s               0.0      37.5       0.0      21.8       0.0       0.2
 2 O  pz              0.0       0.4       0.0       1.0       0.0       0.1
 2 O  px              0.0       1.2       0.0       0.1       0.0       0.4
 2 O  py              0.0       0.2       0.0       0.1       0.0       0.0
 3 P  s               0.0      13.8       0.0       0.4       0.0       3.5
 3 P  pz              0.0       0.9       0.0       5.9       0.0       0.0
 3 P  px              0.0       3.3       0.0       4.4       0.0       0.5
 3 P  py              0.0       0.9       0.0       0.6       0.0       2.2
 3 P  dz2             0.0       0.0       0.0       1.5       0.0       0.1
 3 P  dxz             0.0       0.2       0.0       0.0       0.0       0.0
 3 P  dyz             0.0       0.2       0.0       0.8       0.0       0.1
 3 P  dx2y2           0.0       0.6       0.0       0.9       0.0       0.1
 3 P  dxy             0.0       0.1       0.0       0.2       0.0       0.0
 4 S  s               0.0       0.3       0.0       0.0       0.0       0.8
 4 S  pz              0.0       0.2       0.0       0.0       0.0       0.2
 4 S  px              0.0       0.2       0.0       0.0       0.0       0.1
 5 O  s               0.0      19.6       0.0      39.3       0.0       0.4
 5 O  pz              0.0       0.4       0.0       0.0       0.0       0.6
 5 O  px              0.0       0.8       0.0       1.0       0.0       0.1
 5 O  py              0.0       0.3       0.0       0.2       0.0       0.2
 6 C  s               0.0       2.3       0.0       5.3       0.0       0.7
 6 C  pz              0.0       1.9       0.0       2.7       0.0       0.0
 6 C  px              0.0       0.8       0.0       2.0       0.0       0.0
 6 C  py              0.0       0.1       0.0       0.1       0.0       0.0
 6 C  dxz             0.0       0.1       0.0       0.3       0.0       0.0
 7 C  s               0.0       0.1       0.0       0.4       0.0       0.1
 7 C  pz              0.0       0.1       0.0       0.2       0.0       0.0
 7 C  px              0.0       0.0       0.0       0.1       0.0       0.0
 7 C  py              0.0       0.1       0.0       0.3       0.0       0.1
 8 S  s               0.0       0.3       0.0       0.0       0.0      21.0
 8 S  px              0.0       0.0       0.0       0.0       0.0       2.7
 8 S  py              0.0       0.3       0.0       0.0       0.0       0.4
 8 S  dz2             0.0       0.0       0.0       0.0       0.0       0.2
 9 C  s               0.0       0.0       0.0       0.0       0.0      26.1
 9 C  pz              0.0       0.0       0.0       0.0       0.0       0.8
 9 C  px              0.0       0.0       0.0       0.0       0.0       1.1
 9 C  py              0.0       0.0       0.0       0.0       0.0       0.6
10 S  s               0.0       0.0       0.5       0.0       0.0      15.7
10 S  pz              0.0       0.0       0.1       0.0       0.0       2.2
10 S  px              0.0       0.0       0.2       0.0       0.0       0.2
10 S  py              0.0       0.0       0.3       0.0       0.0       0.1
11 P  s               0.0       0.0      14.1       0.0       0.0       1.7
11 P  pz              1.1       0.0       0.1       0.0      10.1       0.1
11 P  px              0.0       0.0       3.6       0.0       0.5       0.8
11 P  py             98.8       0.0       0.7       0.0       0.3       0.8
[...]
 2 O  s               0.3       0.1       0.0       0.1
 2 O  pz              0.3       0.0       0.0       2.0
 2 O  px              0.7       0.0       0.0       3.1
 2 O  dz2             3.5       0.7       0.0      30.3
 2 O  dxz             0.2       0.8       0.0       7.7
 2 O  dyz             0.2       0.0       0.0       1.4
 2 O  dx2y2           3.5       0.0       0.0       4.9
 2 O  dxy             0.1       0.0       0.0       3.5
 3 P  s               0.3       0.0       0.0       0.0
 3 P  pz              0.1       0.0       0.0       1.6
 3 P  px              0.8       0.0       0.0       1.6
 3 P  py              0.0       0.0       0.0       0.1
 3 P  dz2             0.0       0.0       0.0       0.9
 3 P  dxz             0.1       0.0       0.0       0.2
 3 P  dyz             0.0       0.0       0.0       0.5
 3 P  dx2y2           0.1       0.0       0.0       0.6
 3 P  dxy             0.3       0.0       0.0       0.0
 5 O  s               4.4       0.1       0.0       0.6
 5 O  pz              1.4       0.1       0.0       2.3
 5 O  px              0.9       0.0       0.0       0.0
 5 O  py              0.0       0.0       0.0       0.4
 5 O  dz2            12.2       0.1       0.0       3.3
 5 O  dxz            39.9       1.5       0.2      10.6
 5 O  dyz             4.2       0.0       0.0       7.1
 5 O  dx2y2           5.7       0.1       0.0       2.0
 5 O  dxy             1.0       0.1       0.0       1.0
 6 C  s               1.5       0.0       0.0       0.3
 6 C  pz              1.7       0.0       0.0       0.3
 6 C  px              1.3       0.0       0.0       0.1
 6 C  dz2             1.2       0.0       0.0       0.4
 6 C  dxz             7.9       0.2       0.0       0.5
 6 C  dyz             0.3       0.0       0.0       0.1
 6 C  dx2y2           2.0       0.0       0.0       0.0
 6 C  dxy             0.2       0.0       0.0       0.1
 7 C  dyz             0.2       0.0       0.0       0.0
 7 C  dxy             0.2       0.0       0.0       0.0
11 P  s               0.0       0.2       0.3       0.0
11 P  pz              0.0       0.8       0.4       0.1
11 P  px              0.0       0.1       0.5       0.0
11 P  dz2             0.0       0.3       0.0       0.0
11 P  dxz             0.0       0.3       0.3       0.0
11 P  dx2y2           0.0       0.1       0.3       0.0
13 O  s               0.1       0.0       1.4       0.0
13 O  pz              0.0       0.1       1.6       0.0
13 O  px              0.0       0.1       2.8       0.0
13 O  py              0.0       0.0       1.6       0.0
13 O  dz2             0.0       0.4      11.2       0.1
13 O  dxz             0.2       0.2       0.1       0.1
13 O  dyz             0.1       0.3      14.2       0.1
13 O  dx2y2           0.0       0.2       8.5       0.1
13 O  dxy             0.2       0.9      34.9       0.2
14 C  s               0.0       0.0       2.0       0.0
14 C  pz              0.0       0.0       0.4       0.0
14 C  px              0.0       0.0       1.3       0.0
14 C  py              0.0       0.0       1.8       0.0
14 C  dz2             0.0       0.0       1.0       0.0
14 C  dxz             0.0       0.1       1.6       0.0
14 C  dyz             0.0       0.1       2.7       0.0
14 C  dx2y2           0.0       0.0       0.3       0.0
14 C  dxy             0.0       0.1       5.5       0.0
16 O  s               0.1       1.4       0.2       0.0
16 O  pz              0.0       5.0       0.0       0.2
16 O  px              0.0       0.8       0.0       0.0
16 O  py              0.0       0.3       0.0       0.0
16 O  dz2             0.3       3.5       0.9       0.0
16 O  dxz             0.3       2.7       0.9       0.0
16 O  dyz             0.5      50.3       1.0       1.3
16 O  dx2y2           0.0       1.8       0.1       0.1
16 O  dxy             0.1       7.4       0.1       0.2
17 C  s               0.0       1.7       0.1       0.0
17 C  pz              0.0       2.5       0.1       0.1
17 C  px              0.0       0.2       0.0       0.0
17 C  py              0.0       0.6       0.0       0.0
17 C  dz2             0.0       2.5       0.0       0.1
17 C  dxz             0.0       2.2       0.1       0.0
17 C  dyz             0.2       6.4       0.4       0.1
17 C  dxy             0.0       0.6       0.0       0.0
18 C  pz              0.0       0.2       0.0       0.0
18 C  dz2             0.0       0.5       0.0       0.0
31 H  s               0.0       0.0       0.1       0.0


                      *****************************
                      * MAYER POPULATION ANALYSIS *
                      *****************************

  NA   - Mulliken gross atomic population
  ZA   - Total nuclear charge
  QA   - Mulliken gross atomic charge
  VA   - Mayer's total valence
  BVA  - Mayer's bonded valence
  FA   - Mayer's free valence

  ATOM       NA         ZA         QA         VA         BVA        FA
  0 C      6.3230     6.0000    -0.3230     3.9853     3.9853     0.0000
  1 C      5.9997     6.0000     0.0003     4.0027     4.0027    -0.0000
  2 O      8.3822     8.0000    -0.3822     2.1760     2.1760    -0.0000
  3 P     14.3839    15.0000     0.6161     4.9564     4.9564     0.0000
  4 S     16.3143    16.0000    -0.3143     2.0780     2.0780    -0.0000
  5 O      8.3422     8.0000    -0.3422     2.2055     2.2055     0.0000
  6 C      5.9903     6.0000     0.0097     4.0188     4.0188     0.0000
  7 C      6.3197     6.0000    -0.3197     4.0018     4.0018     0.0000
  8 S     16.1000    16.0000    -0.1000     2.2572     2.2572    -0.0000
  9 C      6.3718     6.0000    -0.3718     3.8373     3.8373     0.0000
 10 S     16.0782    16.0000    -0.0782     2.2491     2.2491    -0.0000
 11 P     14.3748    15.0000     0.6252     4.9487     4.9487     0.0000
 12 S     16.3093    16.0000    -0.3093     2.0788     2.0788    -0.0000
 13 O      8.3843     8.0000    -0.3843     2.1590     2.1590     0.0000
 14 C      6.0031     6.0000    -0.0031     4.0070     4.0070     0.0000
 15 C      6.3140     6.0000    -0.3140     3.9788     3.9788     0.0000
 16 O      8.3857     8.0000    -0.3857     2.1708     2.1708    -0.0000
 17 C      6.0180     6.0000    -0.0180     3.9789     3.9789    -0.0000
 18 C      6.2968     6.0000    -0.2968     3.9953     3.9953     0.0000
 19 H      0.8818     1.0000     0.1182     0.9602     0.9602    -0.0000
 20 H      0.8692     1.0000     0.1308     0.9866     0.9866     0.0000
 21 H      0.8838     1.0000     0.1162     0.9549     0.9549    -0.0000
 22 H      0.8842     1.0000     0.1158     0.9775     0.9775     0.0000
 23 H      0.8939     1.0000     0.1061     0.9493     0.9493    -0.0000
 24 H      0.8929     1.0000     0.1071     0.9591     0.9591    -0.0000
 25 H      0.8885     1.0000     0.1115     0.9568     0.9568    -0.0000
 26 H      0.8832     1.0000     0.1168     0.9691     0.9691    -0.0000
 27 H      0.8900     1.0000     0.1100     0.9534     0.9534    -0.0000
 28 H      0.8696     1.0000     0.1304     0.9772     0.9772     0.0000
 29 H      0.8167     1.0000     0.1833     0.9332     0.9332     0.0000
 30 H      0.7864     1.0000     0.2136     0.9776     0.9776     0.0000
 31 H      0.9003     1.0000     0.0997     0.9495     0.9495     0.0000
 32 H      0.8920     1.0000     0.1080     0.9936     0.9936     0.0000
 33 H      0.8855     1.0000     0.1145     0.9576     0.9576    -0.0000
 34 H      0.8897     1.0000     0.1103     0.9549     0.9549     0.0000
 35 H      0.8791     1.0000     0.1209     0.9882     0.9882    -0.0000
 36 H      0.8976     1.0000     0.1024     0.9485     0.9485    -0.0000
 37 H      0.8776     1.0000     0.1224     0.9901     0.9901    -0.0000
 38 H      0.8911     1.0000     0.1089     0.9595     0.9595    -0.0000
 39 H      0.8928     1.0000     0.1072     0.9547     0.9547    -0.0000
 40 H      0.8627     1.0000     0.1373     0.9744     0.9744    -0.0000

  Mayer bond orders larger than 0.100000
B(  0-C ,  1-C ) :   1.1667 B(  0-C , 19-H ) :   0.9440 B(  0-C , 20-H ) :   0.9321 
B(  0-C , 21-H ) :   0.9364 B(  1-C ,  2-O ) :   0.9009 B(  1-C , 22-H ) :   0.9184 
B(  1-C , 23-H ) :   0.9341 B(  2-O ,  3-P ) :   1.0870 B(  3-P ,  4-S ) :   1.6193 
B(  3-P ,  5-O ) :   1.1519 B(  3-P ,  8-S ) :   0.9395 B(  4-S ,  8-S ) :   0.1058 
B(  5-O ,  6-C ) :   0.8955 B(  6-C ,  7-C ) :   1.1693 B(  6-C , 24-H ) :   0.9294 
B(  6-C , 25-H ) :   0.9305 B(  7-C , 26-H ) :   0.9405 B(  7-C , 27-H ) :   0.9359 
B(  7-C , 28-H ) :   0.9379 B(  8-S ,  9-C ) :   1.0026 B(  9-C , 10-S ) :   0.9941 
B(  9-C , 29-H ) :   0.9111 B(  9-C , 30-H ) :   0.8593 B( 10-S , 11-P ) :   0.9702 
B( 10-S , 12-S ) :   0.1075 B( 11-P , 12-S ) :   1.6206 B( 11-P , 13-O ) :   1.0872 
B( 11-P , 16-O ) :   1.1016 B( 13-O , 14-C ) :   0.9215 B( 14-C , 15-C ) :   1.1612 
B( 14-C , 31-H ) :   0.9331 B( 14-C , 32-H ) :   0.9065 B( 15-C , 33-H ) :   0.9471 
B( 15-C , 34-H ) :   0.9390 B( 15-C , 35-H ) :   0.9299 B( 16-O , 17-C ) :   0.8985 
B( 17-C , 18-C ) :   1.1649 B( 17-C , 36-H ) :   0.9276 B( 17-C , 37-H ) :   0.9040 
B( 18-C , 38-H ) :   0.9484 B( 18-C , 39-H ) :   0.9408 B( 18-C , 40-H ) :   0.9345 


-------
TIMINGS
-------

Total SCF time: 0 days 0 hours 0 min 17 sec 

Total time                  ....      17.107 sec
Sum of individual times     ....      16.626 sec  ( 97.2%)

SCF preparation             ....       0.227 sec  (  1.3%)
Fock matrix formation       ....      15.223 sec  ( 89.0%)
  Startup                   ....       0.074 sec  (  0.5% of F)
  Split-RI-J                ....       9.016 sec  ( 59.2% of F)
  XC integration            ....       5.606 sec  ( 36.8% of F)
    XC Preparation          ....       0.000 sec  (  0.0% of XC)
    Basis function eval.    ....       2.130 sec  ( 38.0% of XC)
    Density eval.           ....       1.073 sec  ( 19.1% of XC)
    XC-Functional eval.     ....       0.406 sec  (  7.2% of XC)
    XC-Potential eval.      ....       1.276 sec  ( 22.8% of XC)
Diagonalization             ....       0.000 sec  (  0.0%)
Density matrix formation    ....       0.244 sec  (  1.4%)
Total Energy calculation    ....       0.035 sec  (  0.2%)
Population analysis         ....       0.201 sec  (  1.2%)
Orbital Transformation      ....       0.085 sec  (  0.5%)
Orbital Orthonormalization  ....       0.000 sec  (  0.0%)
DIIS solution               ....       0.476 sec  (  2.8%)
  MO trafo                  ....       0.000 sec  (  0.0 % of DIIS)
  Orb grad                  ....       0.000 sec  (  0.0 % of DIIS)
  Energy W gradient         ....       0.000 sec  (  0.0 % of DIIS)
  DIIS error                ....       0.021 sec  (  4.5 % of DIIS)
  DIIS work                 ....       0.383 sec  ( 80.4 % of DIIS)
  Form Q                    ....       0.000 sec  (  0.0 % of DIIS)
  Form QpQm                 ....       0.000 sec  (  0.0 % of DIIS)
  Exp/Cayley                ....       0.000 sec  (  0.0 % of DIIS)
  Orb update                ....       0.000 sec  (  0.0 % of DIIS)
  Wake-sleep                ....       0.026 sec  (  5.5 % of DIIS)
SOSCF solution              ....       0.136 sec  (  0.8%)
  MO trafo                  ....       0.071 sec  ( 52.3 % of SOSCF)
  Orb grad                  ....       0.006 sec  (  4.7 % of SOSCF)
  Rot update                ....       0.014 sec  ( 10.0 % of SOSCF)
  Step                      ....       0.045 sec  ( 32.9 % of SOSCF)
Finished LeanSCF after  17.2 sec

Maximum memory used throughout the entire LEANSCF-calculation: 34.9 MB


-------------------------------------------------------------------------------
                          DFT DISPERSION CORRECTION                            
                                                                               
                                DFTD4 V3.4.0                                   
-------------------------------------------------------------------------------
The PBE functional is recognized
Active option DFTDOPT                   ...         5   

-------------------------   ----------------
Dispersion correction           -0.068803802
-------------------------   ----------------

------------------   -----------------
gCP correction             0.185789825
------------------   -----------------

-------------------------   --------------------
FINAL SINGLE POINT ENERGY     -2929.510454965422
-------------------------   --------------------


------------------------------------------------------------------------------
                              ORCA PROPERTY CALCULATIONS
------------------------------------------------------------------------------

GBWName                                 ... sp.gbw
Number of atoms                         ...     41
Number of basis functions               ...    334
Max core memory                         ...   1024 MB

Electric properties:
Dipole moment                           ... YES
Quadrupole moment                       ...  NO
Static polarizability (Dipole/Dipole)   ...  NO
Static polarizability (Dipole/Quad.)    ...  NO
Static polarizability (Quad./Quad.)     ...  NO
Static polarizability (Velocity)        ...  NO

Atomic electric properties:
Dipole moment                           ...  NO
Quadrupole moment                       ...  NO
Static polarizability                   ...  NO

Choice of electric origin               ... Center of mass
Position of electric origin             ...    -0.000000    -0.000001    -0.000005

General magnetic properties:
Magnetizability                         ...  NO

EPR properties:
g-Tensor (aka g-matrix)                 ...  NO
Zero-Field splitting spin-orbit         ...  NO
Zero-field splitting spin-spin          ...  NO
Hyperfine couplings                     ...  NO (   0 nuclei)
Quadrupole couplings                    ...  NO (   0 nuclei)
Contact density                         ...  NO (   0 nuclei)

NMR properties:
Chemical shifts                         ...  NO (   0 nuclei)
Spin-rotation constants                 ...  NO (   0 nuclei)
Spin-spin couplings                     ...  NO (   0 nuclei,    0 pairs)

Choice of magnetic origin               ... GIAO
Position of magnetic origin             ...     0.000000     0.000000     0.000000

Properties with geometric perturbations:
SCF Hessian                             ...  NO
IR spectrum                             ...  NO
VCD spectrum                            ...  NO
X-ray spectroscopy properties:
SCF XES/XAS/RIXS spectra                ...  NO


-------------
DIPOLE MOMENT
-------------

Method             : SCF
Type of density    : Electron Density
Multiplicity       :   1
Irrep              :   0
Energy             : -2929.6274409883885710 Eh
Relativity type    : 
Basis              : AO
                                X                 Y                 Z
Electronic contribution:      2.677437691      -0.883750268       5.305109121
Nuclear contribution   :     -2.206915107       0.385459483      -5.372099711
                        -----------------------------------------
Total Dipole Moment    :      0.470522584      -0.498290784      -0.066990591
                        -----------------------------------------
Magnitude (a.u.)       :      0.688602169
Magnitude (Debye)      :      1.750287616



--------------------
Rotational spectrum 
--------------------
 
Rotational constants in cm-1:             0.012870             0.005626             0.005057 
Rotational constants in MHz :           385.820944           168.673858           151.597180 

Dipole components along the rotational axes: 
x,y,z [a.u.] :    -0.561290     0.033211     0.397522 
x,y,z [Debye]:    -1.426685     0.084417     1.010422 

 

Dipole moment calculation done in   0.0 sec 

Maximum memory used throughout the entire PROP-calculation: 24.3 MB

--------------------------------
SUGGESTED CITATIONS FOR THIS RUN
--------------------------------

Below you find a list of papers that are relevant to this ORCA run
We neither can nor want to force you to cite these papers, but we appreciate if you do
You receive ORCA, which is the product of decades of hard work by many enthusiastic individuals, for free
The only thing we kindly ask in return is that you cite our papers,
We deeply appreciate it, if you show your appreciation for ORCA by not just citing the generic ORCA reference.

Please note that relegating all ORCA citations to the supporting information does *not* help us.
SI sections are not indexed - citations you put there will not count into any citation statistics
But we need these citations in order to attract the funding resources that allow us to do what we are doing

Therefore, if you are a happy ORCA user, please consider citing a few of the papers listed below in the main body of your paper

In addition to the list printed below, the program has created the file sp.bibtex that contains the list in bibtex format
You can import this file easily into all common literature databanks and citation aid programs


List of essential papers. We consider these as the minimum necessary citations

  1. Neese,F.
     Software update: the ORCA program system, version 5.0
     WIRES Comput. Molec. Sci., 2022 12(1)e1606
     doi.org/10.1002/wcms.1606

List of papers to cite with high priority. The work reported in these papers was absolutely
necessary for this run to complete.
Our perspective: the developers of density functionals and basis sets usually get cited in chemistry papers
Good! But without the algorithms to do something with them, the functionals or basis sets would not do anything.
Hence, in our opinion, the algorithm design and method developments papers are equally worthy of getting cited

  1. Neese,F.
     An improvement of the resolution of the identity approximation for the formation of the Coulomb matrix
     J. Comp. Chem., 2003 24(14)1740-1747
     doi.org/10.1002/jcc.10318
  2. Neese,F.
     The SHARK Integral Generation and Digestion System
     J. Comp. Chem., 2022  1-16
     doi.org/10.1002/jcc.26942
  3. Caldeweyher,E.; Bannwarth,C.; Grimme,S.
     Extension of the D3 dispersion coefficient model
     J. Chem. Phys., 2017 147 034112-XXXX
     doi.org/10.1063/1.4993215
  4. Caldeweyher,E.; Ehlert,S.; Hansen,A.; Neugebauer,H.; Spicher,S.; Bannwarth,C.; Grimme,S.
     A generally applicable atomic-charge dependent London dispersion correction
     J. Chem. Phys., 2019 150 154122-XXXX
     doi.org/10.1063/1.5090222
  5. Caldeweyher,E.; Mewes,J.; Ehlert,S.; Grimme,S.
     Extension and evaluation of the D4 London-dispersion model for periodic systems
     Phys. Chem. Chem. Phys., 2020 22(16)8499-8512
     doi.org/10.1039/D0CP00502A

List of suggested additional citations. These are papers that are important in the 'surrounding' of 
of this run, or papers that preceded the highly important papers. If you like your results we are grateful for a citation.

  1. Neese,F.
     The ORCA program system
     WIRES Comput. Molec. Sci., 2012 2(1)73-78
     doi.org/10.1002/wcms.81
  2. Neese,F.
     Software update: the ORCA program system, version 4.0
     WIRES Comput. Molec. Sci., 2018 8(1)1-6
     doi.org/10.1002/wcms.1327
  3. Neese,F.; Wennmohs,F.; Becker,U.; Riplinger,C.
     The ORCA quantum chemistry program package
     J. Chem. Phys., 2020 152 Art. No. L224108
     doi.org/10.1063/5.0004608

List of optional additional citations

  1. Neese,F.
     Approximate second-order SCF convergence for spin unrestricted wavefunctions
     Chem. Phys. Lett., 2000 325(1-3)93-98
     doi.org/10.1016/s0009-2614(00)00662-x

Timings for individual modules:

Sum of individual times          ...       20.845 sec (=   0.347 min)
Startup calculation              ...        1.604 sec (=   0.027 min)   7.7 %
SCF iterations                   ...       19.130 sec (=   0.319 min)  91.8 %
Property calculations            ...        0.111 sec (=   0.002 min)   0.5 %
                             ****ORCA TERMINATED NORMALLY****
TOTAL RUN TIME: 0 days 0 hours 0 minutes 21 seconds 722 msec
