      -----------------------------------------------------------      
     |                   =====================                   |     
     |                           x T B                           |     
     |                   =====================                   |     
     |                         S. Grimme                         |     
     |          Mulliken Center for Theoretical Chemistry        |     
     |                    University of Bonn                     |     
      -----------------------------------------------------------      

   * xtb version 6.7.1 (edcfbbe) compiled by 'albert@albert-system' on 2024-07-22

   xtb is free software: you can redistribute it and/or modify it under
   the terms of the GNU Lesser General Public License as published by
   the Free Software Foundation, either version 3 of the License, or
   (at your option) any later version.
   
   xtb is distributed in the hope that it will be useful,
   but WITHOUT ANY WARRANTY; without even the implied warranty of
   MERCHANTABILITY or FITNESS FOR A PARTICULAR PURPOSE.  See the
   GNU Lesser General Public License for more details.
   
   Cite this work as:
   * C. Bannwarth, E. Caldeweyher, S. Ehlert, A. Hansen, P. Pracht,
     J. Seibert, S. Spicher, S. Grimme, WIREs Comput. Mol. Sci., 2020, 11,
     e01493. DOI: 10.1002/wcms.1493
   
   for GFN2-xTB:
   * C. Bannwarth, S. Ehlert and S. Grimme., J. Chem. Theory Comput., 2019,
     15, 1652-1671. DOI: 10.1021/acs.jctc.8b01176
   for GFN1-xTB:
   * S. Grimme, C. Bannwarth, P. Shushkov, J. Chem. Theory Comput., 2017,
     13, 1989-2009. DOI: 10.1021/acs.jctc.7b00118
   for GFN0-xTB:
   * P. Pracht, E. Caldeweyher, S. Ehlert, S. Grimme, ChemRxiv, 2019, preprint.
     DOI: 10.26434/chemrxiv.8326202.v1
   for GFN-FF:
   * S. Spicher and S. Grimme, Angew. Chem. Int. Ed., 2020, 59, 15665-15673.
     DOI: 10.1002/anie.202004239
   
   for ALPB and GBSA implicit solvation:
   * S. Ehlert, M. Stahn, S. Spicher, S. Grimme, J. Chem. Theory Comput.,
     2021, 17, 4250-4261. DOI: 10.1021/acs.jctc.1c00471
   
   for ddCOSMO and CPCM-X implicit solvation:
   * M. Stahn, S. Ehlert, S. Grimme, J. Phys. Chem. A,
     2023, XX, XXXX-XXXX. DOI: 10.1021/acs.jpca.3c04382
   
   for DFT-D4:
   * E. Caldeweyher, C. Bannwarth and S. Grimme, J. Chem. Phys., 2017,
     147, 034112. DOI: 10.1063/1.4993215
   * E. Caldeweyher, S. Ehlert, A. Hansen, H. Neugebauer, S. Spicher,
     C. Bannwarth and S. Grimme, J. Chem. Phys., 2019, 150, 154122.
     DOI: 10.1063/1.5090222
   * E. Caldeweyher, J.-M. Mewes, S. Ehlert and S. Grimme, Phys. Chem. Chem. Phys.
     2020, 22, 8499-8512. DOI: 10.1039/D0CP00502A
   
   for sTDA-xTB:
   * S. Grimme and C. Bannwarth, J. Chem. Phys., 2016, 145, 054103.
     DOI: 10.1063/1.4959605
   
   in the mass-spec context:
   * V. Asgeirsson, C. Bauer and S. Grimme, Chem. Sci., 2017, 8, 4879.
     DOI: 10.1039/c7sc00601b
   * J. Koopman and S. Grimme, ACS Omega 2019, 4, 12, 15120-15133.
     DOI: 10.1021/acsomega.9b02011
   
   for metadynamics refer to:
   * S. Grimme, J. Chem. Theory Comput., 2019, 155, 2847-2862
     DOI: 10.1021/acs.jctc.9b00143
   
   for SPH calculations refer to:
   * S. Spicher and S. Grimme, J. Chem. Theory Comput., 2021, 17, 1701-1714
     DOI: 10.1021/acs.jctc.0c01306
   
   for ONIOM refer to:
   * C. Plett, A. Katbashev, S. Ehlert, S. Grimme, M. Bursch,
     Phys. Chem. Chem. Phys., 2023, 25, 17860-17868. DOI: 10.1039/D3CP02178E
   
   for DIPRO refer to:
   * J. Kohn, N. Gildemeister, S. Grimme, D. Fazzi, A. Hansen,
     J. Chem. Phys., 2023, just accepted.
   
   for PTB refer to:
   * S. Grimme, M. Mueller, A. Hansen, J. Chem. Phys., 2023, 158, 124111.
     DOI: 10.1063/5.0137838
   
   with help from (in alphabetical order)
   P. Atkinson, C. Bannwarth, F. Bohle, G. Brandenburg, E. Caldeweyher
   M. Checinski, S. Dohm, S. Ehlert, S. Ehrlich, I. Gerasimov, C. Hölzer
   A. Katbashev, J. Kohn, J. Koopman, C. Lavigne, S. Lehtola, F. März, M. Müller,
   F. Musil, H. Neugebauer, J. Pisarek, C. Plett, P. Pracht, F. Pultar,
   J. Seibert, P. Shushkov, S. Spicher, M. Stahn, M. Steiner, T. Strunk,
   J. Stückrath, T. Rose, and J. Unsleber
   
 * started run on 2025/04/09 at 05:21:29.554     
   ID    Z sym.   atoms
    1    6 C      1, 2, 7, 8, 10, 15, 16, 18, 19
    2    8 O      3, 6, 14, 17
    3   15 P      4, 12
    4   16 S      5, 9, 11, 13
    5    1 H      20-41

           -------------------------------------------------
          |                Calculation Setup                |
           -------------------------------------------------

          program call               : /srv/scratch/z5358697/.xtb/bin/xtb solv.coord --gfn2 --sp --chrg 0 --norestart --parallel 1 --alpb water reference -I xtb_sp-xcontrol-inp
          hostname                   : k163
          coordinate file            : solv.coord
          omp threads                :                     1


           -------------------------------------------------
          |                 G F N 2 - x T B                 |
           -------------------------------------------------

        Reference                      10.1021/acs.jctc.8b01176
      * Hamiltonian:
        H0-scaling (s, p, d)           1.850000    2.230000    2.230000
        zeta-weighting                 0.500000
      * Dispersion:
        s8                             2.700000
        a1                             0.520000
        a2                             5.000000
        s9                             5.000000
      * Repulsion:
        kExp                           1.500000    1.000000
        rExp                           1.000000
      * Coulomb:
        alpha                          2.000000
        third order                    shell-resolved
        anisotropic                    true
        a3                             3.000000
        a5                             4.000000
        cn-shift                       1.200000
        cn-exp                         4.000000
        max-rad                        5.000000

      * Solvation model:               ALPB
        Solvent                        water
        Parameter file                 internal GFN2-xTB/ALPB
        Dielectric constant                8.0200E+01
        Reference state                gsolv=reference [X=1]
        Free energy shift                  2.8945E-03 Eh       1.8164E+00 kcal/mol
        Temperature                        2.9815E+02 K
        Density                            1.0000E+00 kg/L
        Solvent mass                       1.8000E+01 g/mol
        Interaction kernel             P16
        Born radius scaling (c1)           1.4744E+00
        Born radii integrator          GBOBC
        Born offset                        0.0000E+00 a0       0.0000E+00 AA
        H-bond correction              true
        Ion screening                  false
        Surface tension                    1.0000E-05 Eh       1.5569E+01 dyn/cm
        Grid points                               974 per atom

          ...................................................
          :                      SETUP                      :
          :.................................................:
          :  # basis functions                 134          :
          :  # atomic orbitals                 128          :
          :  # shells                           66          :
          :  # electrons                       116          :
          :  max. iterations                   250          :
          :  Hamiltonian                  GFN2-xTB          :
          :  restarted?                      false          :
          :  GBSA solvation                   true          :
          :  PC potential                    false          :
          :  electronic temp.          300.0000000     K    :
          :  accuracy                    1.0000000          :
          :  -> integral cutoff          0.2500000E+02      :
          :  -> integral neglect         0.1000000E-07      :
          :  -> SCF convergence          0.1000000E-05 Eh   :
          :  -> wf. convergence          0.1000000E-03 e    :
          :  Broyden damping             0.4000000          :
          :  net charge                          0          :
          :  unpaired electrons                  0          :
          ...................................................

 iter      E             dE          RMSdq      gap      omega  full diag
   1    -65.4332075 -0.654332E+02  0.619E+00    4.07       0.0  T
   2    -65.5599440 -0.126736E+00  0.350E+00    3.45       1.0  T
   3    -65.5798764 -0.199325E-01  0.113E+00    2.99       1.0  T
   4    -65.5825910 -0.271454E-02  0.519E-01    2.92       1.0  T
   5    -65.5834259 -0.834884E-03  0.275E-01    2.98       1.0  T
   6    -65.5836653 -0.239440E-03  0.123E-01    2.99       1.0  T
   7    -65.5837158 -0.505298E-04  0.481E-02    3.01       1.0  T
   8    -65.5837224 -0.653225E-05  0.211E-02    3.01       1.0  T
   9    -65.5837237 -0.132808E-05  0.811E-03    3.01       1.9  T
  10    -65.5837237 -0.476789E-07  0.382E-03    3.01       4.1  T
  11    -65.5837238 -0.759880E-07  0.134E-03    3.01      11.6  T
  12    -65.5837238 -0.446782E-08  0.569E-04    3.01      27.4  T
  13    -65.5837238 -0.671236E-09  0.134E-04    3.01     116.2  T

   *** convergence criteria satisfied after 13 iterations ***

         #    Occupation            Energy/Eh            Energy/eV
      -------------------------------------------------------------
         1        2.0000           -0.7659357             -20.8422
       ...           ...                  ...                  ...
        52        2.0000           -0.4422267             -12.0336
        53        2.0000           -0.4178703             -11.3708
        54        2.0000           -0.4077641             -11.0958
        55        2.0000           -0.3925866             -10.6828
        56        2.0000           -0.3905650             -10.6278
        57        2.0000           -0.3865363             -10.5182
        58        2.0000           -0.3843835             -10.4596 (HOMO)
        59                         -0.2738180              -7.4510 (LUMO)
        60                         -0.2445273              -6.6539
        61                         -0.2288359              -6.2269
        62                         -0.2058145              -5.6005
        63                         -0.1718635              -4.6766
       ...                                ...                  ...
       128                          1.3169898              35.8371
      -------------------------------------------------------------
                  HL-Gap            0.1105655 Eh            3.0086 eV
             Fermi-level           -0.3291007 Eh           -8.9553 eV

 SCC (total)                   0 d,  0 h,  0 min,  0.070 sec
 SCC setup                      ...        0 min,  0.003 sec (  3.771%)
 Dispersion                     ...        0 min,  0.000 sec (  0.431%)
 classical contributions        ...        0 min,  0.000 sec (  0.082%)
 integral evaluation            ...        0 min,  0.016 sec ( 23.274%)
 iterations                     ...        0 min,  0.027 sec ( 39.098%)
 molecular gradient             ...        0 min,  0.023 sec ( 33.008%)
 printout                       ...        0 min,  0.000 sec (  0.311%)

         :::::::::::::::::::::::::::::::::::::::::::::::::::::
         ::                     SUMMARY                     ::
         :::::::::::::::::::::::::::::::::::::::::::::::::::::
         :: total energy             -65.022543248484 Eh    ::
         :: total w/o Gsasa/hb       -65.026132355369 Eh    ::
         :: gradient norm              0.000110221664 Eh/a0 ::
         :: HOMO-LUMO gap              3.008641066854 eV    ::
         ::.................................................::
         :: SCC energy               -65.582551265217 Eh    ::
         :: -> isotropic ES            0.139649137489 Eh    ::
         :: -> anisotropic ES         -0.019248625918 Eh    ::
         :: -> anisotropic XC          0.029093014045 Eh    ::
         :: -> dispersion             -0.055066415900 Eh    ::
         :: -> Gsolv                  -0.030864626153 Eh    ::
         ::    -> Gelec               -0.034453733039 Eh    ::
         ::    -> Gsasa                0.004613357730 Eh    ::
         ::    -> Ghb                 -0.003918800005 Eh    ::
         ::    -> Gshift               0.002894549160 Eh    ::
         :: repulsion energy           0.560008016733 Eh    ::
         :: add. restraining           0.000000000000 Eh    ::
         :: total charge               0.000000000000 e     ::
         :::::::::::::::::::::::::::::::::::::::::::::::::::::

           -------------------------------------------------
          |                Property Printout                |
           -------------------------------------------------

    * Orbital Energies and Occupations

         #    Occupation            Energy/Eh            Energy/eV
      -------------------------------------------------------------
         1        2.0000           -0.7659357             -20.8422
       ...           ...                  ...                  ...
        46        2.0000           -0.4662590             -12.6876
        47        2.0000           -0.4598467             -12.5131
        48        2.0000           -0.4577356             -12.4556
        49        2.0000           -0.4554215             -12.3926
        50        2.0000           -0.4534332             -12.3385
        51        2.0000           -0.4517311             -12.2922
        52        2.0000           -0.4422267             -12.0336
        53        2.0000           -0.4178703             -11.3708
        54        2.0000           -0.4077641             -11.0958
        55        2.0000           -0.3925866             -10.6828
        56        2.0000           -0.3905650             -10.6278
        57        2.0000           -0.3865363             -10.5182
        58        2.0000           -0.3843835             -10.4596 (HOMO)
        59                         -0.2738180              -7.4510 (LUMO)
        60                         -0.2445273              -6.6539
        61                         -0.2288359              -6.2269
        62                         -0.2058145              -5.6005
        63                         -0.1718635              -4.6766
        64                         -0.1701024              -4.6287
        65                         -0.1658368              -4.5126
        66                         -0.1508271              -4.1042
        67                         -0.1312893              -3.5726
        68                         -0.1182526              -3.2178
        69                         -0.0472607              -1.2860
       ...                                ...                  ...
       128                          1.3169898              35.8371
      -------------------------------------------------------------
                  HL-Gap            0.1105655 Eh            3.0086 eV
             Fermi-level           -0.3291007 Eh           -8.9553 eV

     #   Z          covCN         q      C6AA      α(0)
     1   6 C        3.751    -0.126    22.988     6.838
     2   6 C        3.875     0.089    19.067     6.209
     3   8 O        1.655    -0.268    18.463     5.800
     4  15 P        3.875     0.376   144.595    21.601
     5  16 S        0.926    -0.484   160.626    21.437
     6   8 O        1.655    -0.251    18.168     5.754
     7   6 C        3.868     0.072    19.335     6.253
     8   6 C        3.751    -0.128    23.014     6.842
     9  16 S        1.975    -0.159   147.785    20.461
    10   6 C        3.804     0.031    20.049     6.375
    11  16 S        1.977    -0.124   146.251    20.354
    12  15 P        3.774     0.387   144.160    21.568
    13  16 S        0.926    -0.489   160.859    21.452
    14   8 O        1.653    -0.267    18.436     5.796
    15   6 C        3.813     0.070    19.398     6.269
    16   6 C        3.751    -0.135    23.159     6.863
    17   8 O        1.655    -0.264    18.389     5.789
    18   6 C        3.830     0.069    19.403     6.267
    19   6 C        3.752    -0.124    22.930     6.829
    20   1 H        0.925     0.058     2.221     2.330
    21   1 H        0.925     0.074     2.044     2.236
    22   1 H        0.925     0.085     1.932     2.174
    23   1 H        0.924     0.075     2.029     2.228
    24   1 H        0.924     0.054     2.273     2.358
    25   1 H        0.924     0.098     1.806     2.101
    26   1 H        0.924     0.064     2.149     2.292
    27   1 H        0.925     0.086     1.922     2.168
    28   1 H        0.925     0.053     2.288     2.365
    29   1 H        0.925     0.070     2.082     2.257
    30   1 H        0.925     0.112     1.676     2.025
    31   1 H        0.925     0.123     1.588     1.971
    32   1 H        0.924     0.090     1.881     2.145
    33   1 H        0.924     0.075     2.033     2.230
    34   1 H        0.925     0.071     2.071     2.250
    35   1 H        0.925     0.066     2.132     2.283
    36   1 H        0.925     0.088     1.897     2.154
    37   1 H        0.924     0.080     1.980     2.200
    38   1 H        0.924     0.099     1.793     2.094
    39   1 H        0.925     0.063     2.168     2.302
    40   1 H        0.925     0.050     2.314     2.379
    41   1 H        0.925     0.088     1.898     2.154

 Mol. C6AA /au·bohr⁶  :      26371.258756
 Mol. C8AA /au·bohr⁸  :     862595.765925
 Mol. α(0) /au        :        257.451927


Wiberg/Mayer (AO) data.
largest (>0.10) Wiberg bond orders for each atom

 ---------------------------------------------------------------------------
     #   Z sym  total        # sym  WBO       # sym  WBO       # sym  WBO
 ---------------------------------------------------------------------------
     1   6 C    3.986 --     2 C    1.021    21 H    0.982    20 H    0.979
                            22 H    0.976
     2   6 C    3.892 --     1 C    1.021    23 H    0.966    24 H    0.965
                             3 O    0.878
     3   8 O    2.388 --     4 P    1.311     2 C    0.878
     4  15 P    5.317 --     5 S    1.539     6 O    1.316     3 O    1.311
                             9 S    1.002
     5  16 S    1.828 --     4 P    1.539
     6   8 O    2.414 --     4 P    1.316     7 C    0.886
     7   6 C    3.887 --     8 C    1.022    26 H    0.966    25 H    0.963
                             6 O    0.886
     8   6 C    3.987 --     7 C    1.022    29 H    0.980    27 H    0.976
                            28 H    0.976
     9  16 S    2.271 --     4 P    1.002    10 C    0.969
    10   6 C    3.944 --    11 S    0.995     9 S    0.969    30 H    0.951
                            31 H    0.951
    11  16 S    2.280 --    10 C    0.995    12 P    0.939    13 S    0.141
    12  15 P    5.268 --    13 S    1.507    14 O    1.354    17 O    1.322
                            11 S    0.939
    13  16 S    1.820 --    12 P    1.507    11 S    0.141
    14   8 O    2.403 --    12 P    1.354    15 C    0.862
    15   6 C    3.879 --    16 C    1.022    33 H    0.970    32 H    0.965
                            14 O    0.862
    16   6 C    3.984 --    15 C    1.022    35 H    0.981    34 H    0.977
                            36 H    0.974
    17   8 O    2.399 --    12 P    1.322    18 C    0.883
    18   6 C    3.886 --    19 C    1.024    37 H    0.966    38 H    0.963
                            17 O    0.883
    19   6 C    3.988 --    18 C    1.024    39 H    0.982    41 H    0.975
                            40 H    0.971
    20   1 H    0.997 --     1 C    0.979
    21   1 H    0.995 --     1 C    0.982
    22   1 H    0.992 --     1 C    0.976
    23   1 H    0.994 --     2 C    0.966
    24   1 H    0.997 --     2 C    0.965
    25   1 H    0.990 --     7 C    0.963
    26   1 H    0.996 --     7 C    0.966
    27   1 H    0.992 --     8 C    0.976
    28   1 H    0.997 --     8 C    0.976
    29   1 H    0.995 --     8 C    0.980
    30   1 H    0.985 --    10 C    0.951
    31   1 H    0.985 --    10 C    0.951
    32   1 H    0.992 --    15 C    0.965
    33   1 H    0.994 --    15 C    0.970
    34   1 H    0.995 --    16 C    0.977
    35   1 H    0.996 --    16 C    0.981
    36   1 H    0.991 --    16 C    0.974
    37   1 H    0.994 --    18 C    0.966
    38   1 H    0.990 --    18 C    0.963
    39   1 H    0.996 --    19 C    0.982
    40   1 H    0.997 --    19 C    0.971
    41   1 H    0.992 --    19 C    0.975
 ---------------------------------------------------------------------------

Topologies differ in total number of bonds
Writing topology from bond orders to xtbtopo.mol

molecular dipole:
                 x           y           z       tot (Debye)
 q only:       -2.511      -3.601       3.415
   full:       -2.779      -3.238       3.125      13.444
molecular quadrupole (traceless):
                xx          xy          yy          xz          yz          zz
 q only:       -2.446      -7.254      -6.052       2.378      20.408       8.498
  q+dip:       -1.692      -9.547      -5.268       4.093      18.932       6.960
   full:       -1.882      -9.836      -5.335       3.817      19.719       7.217


           -------------------------------------------------
          | TOTAL ENERGY              -65.022543248484 Eh   |
          | GRADIENT NORM               0.000110221664 Eh/α |
          | HOMO-LUMO GAP               3.008641066854 eV   |
           -------------------------------------------------

------------------------------------------------------------------------
 * finished run on 2025/04/09 at 05:21:29.716     
------------------------------------------------------------------------
 total:
 * wall-time:     0 d,  0 h,  0 min,  0.162 sec
 *  cpu-time:     0 d,  0 h,  0 min,  0.074 sec
 * ratio c/w:     0.458 speedup
 SCF:
 * wall-time:     0 d,  0 h,  0 min,  0.070 sec
 *  cpu-time:     0 d,  0 h,  0 min,  0.061 sec
 * ratio c/w:     0.871 speedup

