
                                 *****************
                                 * O   R   C   A *
                                 *****************

                                            #,                                       
                                            ###                                      
                                            ####                                     
                                            #####                                    
                                            ######                                   
                                           ########,                                 
                                     ,,################,,,,,                         
                               ,,#################################,,                 
                          ,,##########################################,,             
                       ,#########################################, ''#####,          
                    ,#############################################,,   '####,        
                  ,##################################################,,,,####,       
                ,###########''''           ''''###############################       
              ,#####''   ,,,,##########,,,,          '''####'''          '####       
            ,##' ,,,,###########################,,,                        '##       
           ' ,,###''''                  '''############,,,                           
         ,,##''                                '''############,,,,        ,,,,,,###''
      ,#''                                            '''#######################'''  
     '                                                          ''''####''''         
             ,#######,   #######,   ,#######,      ##                                
            ,#'     '#,  ##    ##  ,#'     '#,    #''#        ,####,   ,####,        
            ##       ##  ##   ,#'  ##            #'  '#       #'       #'  '#        
            ##       ##  #######   ##           ,######,      #####,   #    #        
            '#,     ,#'  ##    ##  '#,     ,#' ,#      #,     #,   #   #,  ,#        
             '#######'   ##     ##  '#######'  #'      '#     '####' # '####'        



                #########################################################
                #                        -***-                          #
                #          Department of theory and spectroscopy        #
                #                                                       #
                #                      Frank Neese                      #
                #                                                       #
                #     Directorship, Architecture, Infrastructure        #
                #                    SHARK, DRIVERS                     #
                #        Core code/Algorithms in most modules           #
                #                                                       #
                #        Max Planck Institute fuer Kohlenforschung      #
                #                Kaiser Wilhelm Platz 1                 #
                #                 D-45470 Muelheim/Ruhr                 #
                #                      Germany                          #
                #                                                       #
                #                  All rights reserved                  #
                #                        -***-                          #
                #########################################################


                         Program Version 6.0.0  -   RELEASE  -


 With contributions from (in alphabetic order):
   Daniel Aravena         : Magnetic Suceptibility
   Michael Atanasov       : Ab Initio Ligand Field Theory (pilot matlab implementation)
   Alexander A. Auer      : GIAO ZORA, VPT2 properties, NMR spectrum
   Ute Becker             : All parallelization in ORCA, NUMFREQ, NUMCALC
   Giovanni Bistoni       : ED, misc. LED, open-shell LED, HFLD
   Martin Brehm           : Molecular dynamics
   Dmytro Bykov           : pre 5.0 version of the SCF Hessian
   Marcos Casanova-Páez   : Triplet and SCS-CIS(D). UHF-(DLPNO)-IP/EA/STEOM-CCSD. UHF-CVS-IP/STEOM-CCSD
   Vijay G. Chilkuri      : MRCI spin determinant printing, contributions to CSF-ICE
   Pauline Colinet        : FMM embedding
   Dipayan Datta          : RHF DLPNO-CCSD density
   Achintya Kumar Dutta   : EOM-CC, STEOM-CC
   Nicolas Foglia         : Exact transition moments, OPA infrastructure, MCD improvements
   Dmitry Ganyushin       : Spin-Orbit,Spin-Spin,Magnetic field MRCI
   Miquel Garcia          : C-PCM and meta-GGA Hessian, CCSD/C-PCM, Gaussian charge scheme
   Tiago L. C. Gouveia    : GS-ROHF, GS-ROCIS
   Yang Guo               : DLPNO-NEVPT2, F12-NEVPT2, CIM, IAO-localization
   Andreas Hansen         : Spin unrestricted coupled pair/coupled cluster methods
   Ingolf Harden          : AUTO-CI MPn and infrastructure 
   Benjamin Helmich-Paris : MC-RPA, TRAH-(SCF,CASSCF), AVAS, COSX integrals, SCF dyn. polar.
   Lee Huntington         : MR-EOM, pCC
   Robert Izsak           : Overlap fitted RIJCOSX, COSX-SCS-MP3, EOM
   Riya Kayal             : Wick's Theorem for AUTO-CI, AUTO-CI UHF-CCSDT
   Emily Kempfer          : AUTO-CI, RHF CISDT and CCSDT
   Christian Kollmar      : KDIIS, OOCD, Brueckner-CCSD(T), CCSD density, CASPT2, CASPT2-K, improved NEVPT2
   Axel Koslowski         : Symmetry handling
   Simone Kossmann        : Meta GGA functionals, TD-DFT gradient, OOMP2, (MP2 Hessian; deprecated post 5.0)
   Lucas Lang             : DCDCAS
   Marvin Lechner         : AUTO-CI (C++ implementation), FIC-MRCC
   Spencer Leger          : CASSCF response
   Dagmar Lenk            : GEPOL surface, SMD, ORCA-2-JSON
   Dimitrios Liakos       : Extrapolation schemes; Compound Job, initial MDCI parallelization
   Dimitrios Manganas     : Further ROCIS development; embedding schemes. LFT, Crystal Embedding
   Dimitrios Pantazis     : SARC Basis sets
   Anastasios Papadopoulos: AUTO-CI, single reference methods and gradients
   Taras Petrenko         : pre 6.0 DFT Hessian and TD-DFT gradient, (ASA, deprecated), ECA, 1-Electron XAS/XES, NRVS
   Peter Pinski           : DLPNO-MP2, DLPNO-MP2 Gradient
   Christoph Reimann      : Effective Core Potentials
   Marius Retegan         : Local ZFS, SOC
   Christoph Riplinger    : Optimizer, TS searches, QM/MM, DLPNO-CCSD(T), (RO)-DLPNO pert. Triples
   Michael Roemelt        : Original ROCIS implementation
   Masaaki Saitow         : Open-shell DLPNO-CCSD energy and density
   Barbara Sandhoefer     : DKH picture change effects
   Kantharuban Sivalingam : CASSCF convergence/infrastructure, NEVPT2 and variants, FIC-MRCI
   Bernardo de Souza      : ESD, SOC TD-DFT
   Georgi Stoychev        : AutoAux, RI-MP2 NMR, DLPNO-MP2 response, X2C
   Van Anh Tran           : RI-MP2 g-tensors
   Willem Van den Heuvel  : Paramagnetic NMR
   Zikuan Wang            : NOTCH, Electric field optimization 
   Frank Wennmohs         : Technical directorship and infrastructure
   Hang Xu                : AUTO-CI-Response properties 


 We gratefully acknowledge several colleagues who have allowed us to
 interface, adapt or use parts of their codes:
   Stefan Grimme, W. Hujo, H. Kruse, P. Pracht,  : VdW corrections, initial TS optimization,
                  C. Bannwarth, S. Ehlert,         DFT functionals, gCP, sTDA/sTD-DF
                  L. Wittmann, M. Mueller
   Ed Valeev, F. Pavosevic, A. Kumar             : LibInt (2-el integral package), F12 methods
   Garnet Chan, S. Sharma, J. Yang, R. Olivares  : DMRG
   Ulf Ekstrom                                   : XCFun DFT Library
   Mihaly Kallay                                 : mrcc  (arbitrary order and MRCC methods)
   Frank Weinhold                                : gennbo (NPA and NBO analysis)
   Simon Mueller                                 : openCOSMO-RS
   Christopher J. Cramer and Donald G. Truhlar   : smd solvation model
   Lars Goerigk                                  : TD-DFT with DH, B97 family of functionals
   V. Asgeirsson, H. Jonsson                     : NEB implementation
   FAccTs GmbH                                   : IRC, NEB, NEB-TS, DLPNO-Multilevel, CI-OPT
                                                   MM, QMMM, 2- and 3-layer-ONIOM, Crystal-QMMM,
                                                   LR-CPCM, SF, NACMEs, symmetry and pop. for TD-DFT,
                                                   nearIR, NL-DFT gradient (VV10), updates on ESD,
                                                   ML-optimized integration grids, MBIS, APM,
                                                   GOAT, DOCKER, SOLVATOR, interface openCOSMO-RS
   S Lehtola, MJT Oliveira, MAL Marques          : LibXC Library
   Liviu Ungur et al                             : ANISO software


 Your calculation uses the libint2 library for the computation of 2-el integrals
 For citations please refer to: http://libint.valeyev.net

 Your ORCA version has been built with support for libXC version: 6.2.2
 For citations please refer to: https://libxc.gitlab.io

 This ORCA versions uses:
   CBLAS   interface :  Fast vector & matrix operations
   LAPACKE interface :  Fast linear algebra routines
   SCALAPACK package :  Parallel linear algebra routines
   Shared memory     :  Shared parallel matrices
   BLAS/LAPACK       :  OpenBLAS 0.3.27  USE64BITINT DYNAMIC_ARCH NO_AFFINITY SapphireRapids SINGLE_THREADED
        Core in use  :  SapphireRapids
   Copyright (c) 2011-2014, The OpenBLAS Project


Your calculation utilizes the geometrical counterpoise correction gCP
Please cite in your paper:
H.Kruse, S. Grimme J.Chem.Phys., 136, (2012), 154101 
   

Your calculation utilizes the atom-pairwise dispersion correction
based on EEQ partial charges (D4)


================================================================================

----- Orbital basis set information -----
Your calculation utilizes the basis: def2-mTZVPP
   Stefan Grimme, Andreas Hansen, Sebastian Ehlert, and Jan-Michael Mewes 
   J. Chem. Phys. 154, 064103 (2021). DOI: 10.1063/5.0040021

----- AuxJ basis set information -----
Your calculation utilizes the auxiliary basis: def2/J
   F. Weigend, Phys. Chem. Chem. Phys. 8, 1057 (2006).

================================================================================
                                        WARNINGS
                       Please study these warnings very carefully!
================================================================================

Using LibXC functional ID 497 : Re-regularized SCAN exchange by Furness et al
[ 1]  J. W. Furness, A. D. Kaplan, J. Ning, J. P. Perdew, and J. Sun.,  J. Phys. Chem. Lett. 11, 8208-8215 (2020)
[ 2]  J. W. Furness, A. D. Kaplan, J. Ning, J. P. Perdew, and J. Sun.,  J. Phys. Chem. Lett. 11, 9248-9248 (2020)
Using LibXC functional ID 498 : Re-regularized SCAN correlation by Furness et al
[ 1]  J. W. Furness, A. D. Kaplan, J. Ning, J. P. Perdew, and J. Sun.,  J. Phys. Chem. Lett. 11, 8208-8215 (2020)
[ 2]  J. W. Furness, A. D. Kaplan, J. Ning, J. P. Perdew, and J. Sun.,  J. Phys. Chem. Lett. 11, 9248-9248 (2020)
Using LibXC functional ID 497 : Re-regularized SCAN exchange by Furness et al
[ 1]  J. W. Furness, A. D. Kaplan, J. Ning, J. P. Perdew, and J. Sun.,  J. Phys. Chem. Lett. 11, 8208-8215 (2020)
[ 2]  J. W. Furness, A. D. Kaplan, J. Ning, J. P. Perdew, and J. Sun.,  J. Phys. Chem. Lett. 11, 9248-9248 (2020)
Using LibXC functional ID 498 : Re-regularized SCAN correlation by Furness et al
[ 1]  J. W. Furness, A. D. Kaplan, J. Ning, J. P. Perdew, and J. Sun.,  J. Phys. Chem. Lett. 11, 8208-8215 (2020)
[ 2]  J. W. Furness, A. D. Kaplan, J. Ning, J. P. Perdew, and J. Sun.,  J. Phys. Chem. Lett. 11, 9248-9248 (2020)

================================================================================
                                       INPUT FILE
================================================================================
NAME = sp_gas.inp
|  1> ! r2scan-3c def2/J RI DEFGRID2 scfconv6 printgap
|  2> %output
|  3>     printlevel normal
|  4> end
|  5> * xyz 0 1
|  6> C 5.7651601939 -0.9992919266 -0.4345304916
|  7> C 4.9281375657 -0.3365381157 -1.5086229688
|  8> O 3.5369777598 -0.7102351953 -1.4223327142
|  9> P 2.6100991758 -0.2535025803 -0.2226683639
| 10> S 2.9454702667 1.5504815648 0.4771187375
| 11> O 2.829876461 -1.430295898 0.8255502895
| 12> C 2.4674577453 -1.3147681364 2.2108588653
| 13> C 0.9736358208 -1.4595011578 2.4179197333
| 14> S 0.7446535195 -0.6438785098 -1.1481418863
| 15> C 0.0874958357 1.050610891 -1.1672838176
| 16> S -0.7960855285 1.495526347 0.3526935309
| 17> P -2.4796621615 0.270322866 -0.0017818493
| 18> S -3.118830269 0.1502584178 -1.8559764984
| 19> O -3.5588238314 0.7540498615 1.0582603012
| 20> C -4.5181865287 1.7859911441 0.7697005661
| 21> C -3.8659324023 3.1443109952 0.6111919203
| 22> O -1.9674615825 -1.0790793701 0.6483994168
| 23> C -2.5286579664 -2.3600054536 0.2995590568
| 24> C -3.9527951617 -2.5025036321 0.7938656723
| 25> H 5.4874989105 -0.6123744799 0.5448158042
| 26> H 5.6073098342 -2.0745043226 -0.446227494
| 27> H 6.8141186056 -0.7848827731 -0.6138150365
| 28> H 5.2211981576 -0.6605134745 -2.5080813571
| 29> H 4.9973930638 0.7534292272 -1.4342777828
| 30> H 3.017725149 -2.1217428596 2.6971531488
| 31> H 2.8175703348 -0.346425817 2.584152243
| 32> H 0.7572365218 -1.489860007 3.4808998916
| 33> H 0.44469597 -0.6147423726 1.9786036725
| 34> H 0.617508766 -2.3739002042 1.9502416831
| 35> H -0.6024202991 1.1075678565 -2.0089625001
| 36> H 0.9041837369 1.7628372222 -1.269478906
| 37> H -5.0578332574 1.5111504804 -0.1423734029
| 38> H -5.1947182419 1.7609544602 1.6249655833
| 39> H -4.6349344568 3.9045164494 0.5183886832
| 40> H -3.239396125 3.3658116411 1.4716082241
| 41> H -3.2460508943 3.1582996804 -0.2844568722
| 42> H -2.4793513395 -2.474928349 -0.788046747
| 43> H -1.8603365117 -3.0782933248 0.7757099558
| 44> H -4.5982482253 -1.8001096713 0.2677676242
| 45> H -4.301705123 -3.5125587548 0.6032671113
| 46> H -4.0020429987 -2.294898134 1.8594706907
| 47> *
| 48> 
| 49>                          ****END OF INPUT****
================================================================================

                       ****************************
                       * Single Point Calculation *
                       ****************************

---------------------------------
CARTESIAN COORDINATES (ANGSTROEM)
---------------------------------
  C      5.765160   -0.999292   -0.434530
  C      4.928138   -0.336538   -1.508623
  O      3.536978   -0.710235   -1.422333
  P      2.610099   -0.253503   -0.222668
  S      2.945470    1.550482    0.477119
  O      2.829876   -1.430296    0.825550
  C      2.467458   -1.314768    2.210859
  C      0.973636   -1.459501    2.417920
  S      0.744654   -0.643879   -1.148142
  C      0.087496    1.050611   -1.167284
  S     -0.796086    1.495526    0.352694
  P     -2.479662    0.270323   -0.001782
  S     -3.118830    0.150258   -1.855976
  O     -3.558824    0.754050    1.058260
  C     -4.518187    1.785991    0.769701
  C     -3.865932    3.144311    0.611192
  O     -1.967462   -1.079079    0.648399
  C     -2.528658   -2.360005    0.299559
  C     -3.952795   -2.502504    0.793866
  H      5.487499   -0.612374    0.544816
  H      5.607310   -2.074504   -0.446227
  H      6.814119   -0.784883   -0.613815
  H      5.221198   -0.660513   -2.508081
  H      4.997393    0.753429   -1.434278
  H      3.017725   -2.121743    2.697153
  H      2.817570   -0.346426    2.584152
  H      0.757237   -1.489860    3.480900
  H      0.444696   -0.614742    1.978604
  H      0.617509   -2.373900    1.950242
  H     -0.602420    1.107568   -2.008963
  H      0.904184    1.762837   -1.269479
  H     -5.057833    1.511150   -0.142373
  H     -5.194718    1.760954    1.624966
  H     -4.634934    3.904516    0.518389
  H     -3.239396    3.365812    1.471608
  H     -3.246051    3.158300   -0.284457
  H     -2.479351   -2.474928   -0.788047
  H     -1.860337   -3.078293    0.775710
  H     -4.598248   -1.800110    0.267768
  H     -4.301705   -3.512559    0.603267
  H     -4.002043   -2.294898    1.859471

----------------------------
CARTESIAN COORDINATES (A.U.)
----------------------------
  NO LB      ZA    FRAG     MASS         X           Y           Z
   0 C     6.0000    0    12.011   10.894574   -1.888388   -0.821144
   1 C     6.0000    0    12.011    9.312830   -0.635965   -2.850884
   2 O     8.0000    0    15.999    6.683919   -1.342150   -2.687819
   3 P    15.0000    0    30.974    4.932373   -0.479050   -0.420782
   4 S    16.0000    0    32.060    5.566132    2.929986    0.901624
   5 O     8.0000    0    15.999    5.347692   -2.702868    1.560064
   6 C     6.0000    0    12.011    4.662819   -2.484552    4.177918
   7 C     6.0000    0    12.011    1.839905   -2.758057    4.569206
   8 S    16.0000    0    32.060    1.407191   -1.216754   -2.169674
   9 C     6.0000    0    12.011    0.165343    1.985367   -2.205847
  10 S    16.0000    0    32.060   -1.504384    2.826135    0.666494
  11 P    15.0000    0    30.974   -4.685882    0.510836   -0.003367
  12 S    16.0000    0    32.060   -5.893735    0.283947   -3.507287
  13 O     8.0000    0    15.999   -6.725202    1.424948    1.999822
  14 C     6.0000    0    12.011   -8.538135    3.375034    1.454523
  15 C     6.0000    0    12.011   -7.305553    5.941887    1.154985
  16 O     8.0000    0    15.999   -3.717964   -2.039164    1.225297
  17 C     6.0000    0    12.011   -4.778471   -4.459764    0.566085
  18 C     6.0000    0    12.011   -7.469700   -4.729047    1.500189
  19 H     1.0000    0     1.008   10.369870   -1.157220    1.029553
  20 H     1.0000    0     1.008   10.596280   -3.920245   -0.843248
  21 H     1.0000    0     1.008   12.876818   -1.483213   -1.159942
  22 H     1.0000    0     1.008    9.866635   -1.248190   -4.739587
  23 H     1.0000    0     1.008    9.443704    1.423775   -2.710392
  24 H     1.0000    0     1.008    5.702674   -4.009513    5.096881
  25 H     1.0000    0     1.008    5.324436   -0.654650    4.883340
  26 H     1.0000    0     1.008    1.430970   -2.815427    6.577947
  27 H     1.0000    0     1.008    0.840354   -1.161695    3.739019
  28 H     1.0000    0     1.008    1.166922   -4.486021    3.685423
  29 H     1.0000    0     1.008   -1.138409    2.093000   -3.796389
  30 H     1.0000    0     1.008    1.708660    3.331280   -2.398967
  31 H     1.0000    0     1.008   -9.557920    2.855661   -0.269047
  32 H     1.0000    0     1.008   -9.816595    3.327722    3.070740
  33 H     1.0000    0     1.008   -8.758757    7.378467    0.979613
  34 H     1.0000    0     1.008   -6.121572    6.360462    2.780937
  35 H     1.0000    0     1.008   -6.134147    5.968321   -0.537546
  36 H     1.0000    0     1.008   -4.685295   -4.676937   -1.489193
  37 H     1.0000    0     1.008   -3.515527   -5.817131    1.465879
  38 H     1.0000    0     1.008   -8.689430   -3.401714    0.506007
  39 H     1.0000    0     1.008   -8.129045   -6.637774    1.140010
  40 H     1.0000    0     1.008   -7.562765   -4.336729    3.513890

--------------------------------
INTERNAL COORDINATES (ANGSTROEM)
--------------------------------
 C      0   0   0     0.000000000000     0.00000000     0.00000000
 C      1   0   0     1.514438557208     0.00000000     0.00000000
 O      2   1   0     1.443059638716   112.15290654     0.00000000
 P      3   2   1     1.583320291180   122.34077200    68.30156287
 S      4   3   2     1.963806139024   115.78610051    36.19649117
 O      4   3   2     1.591196692119   101.82606322   270.82290929
 C      6   4   3     1.436584087123   122.74688930   163.83474798
 C      7   6   4     1.515033264538   111.89188055    76.87679143
 S      4   3   2     2.118674610129    97.54533157   162.81210176
 C      9   4   3     1.817557967256    98.69461367   242.48210484
 S     10   9   4     1.813559188475   113.33113727   272.66478822
 P     11  10   9     2.112156870170    96.04921187   288.68741578
 S     12  11  10     1.964939983337   116.94236026   321.64105763
 O     12  11  10     1.588165947498   104.65071652   192.70537327
 C     14  12  11     1.438244178304   122.53914698    90.92133037
 C     15  14  12     1.515121531129   112.15283390   291.97008478
 O     12  11  10     1.583026060021    99.65009553    87.65021287
 C     17  12  11     1.441319745739   122.15236876   201.36683641
 C     18  17  12     1.514203259817   111.76675399   291.43660110
 H      1   2   3     1.088999571147   109.96307924   292.72602358
 H      1   2   3     1.086800465787   110.18477048    52.79092490
 H      1   2   3     1.085554228319   109.29874039   173.17172630
 H      2   1   3     1.090761941753   111.80138036   244.00301469
 H      2   1   3     1.094692805899   110.64649344   121.10414406
 H      7   6   4     1.091093281816   104.06829714   197.34105738
 H      7   6   4     1.095268742685   108.60939213   314.41082665
 H      8   7   6     1.085208336345   109.46069757   173.01800259
 H      8   7   6     1.089216861885   110.46294198   292.62320195
 H      8   7   6     1.087048689736   110.15624740    52.65908019
 H     10   9   4     1.089794188621   106.60382600   152.72175784
 H     10   9   4     1.088434339276   109.86159949    31.63427994
 H     15  14  12     1.094821860919   108.40988174    54.23958779
 H     15  14  12     1.090779649678   103.88255475   171.19276016
 H     16  15  14     1.085305916890   109.38269741   186.97479459
 H     16  15  14     1.087164412015   110.36226600   307.46955724
 H     16  15  14     1.089328016155   110.02946138    67.38906968
 H     18  17  12     1.094771574258   108.43330368    53.98735148
 H     18  17  12     1.090555230763   103.94933534   170.65558809
 H     19  18  17     1.089378763192   109.81137320    66.30558395
 H     19  18  17     1.085484833354   109.42430732   185.84414288
 H     19  18  17     1.086756388309   110.16570477   306.39671164

---------------------------
INTERNAL COORDINATES (A.U.)
---------------------------
 C      0   0   0     0.000000000000     0.00000000     0.00000000
 C      1   0   0     2.861874119774     0.00000000     0.00000000
 O      2   1   0     2.726987512089   112.15290654     0.00000000
 P      3   2   1     2.992041732611   122.34077200    68.30156287
 S      4   3   2     3.711055782869   115.78610051    36.19649117
 O      4   3   2     3.006925973305   101.82606322   270.82290929
 C      6   4   3     2.714750493012   122.74688930   163.83474798
 C      7   6   4     2.862997953758   111.89188055    76.87679143
 S      4   3   2     4.003714780036    97.54533157   162.81210176
 C      9   4   3     3.434686790640    98.69461367   242.48210484
 S     10   9   4     3.427130193874   113.33113727   272.66478822
 P     11  10   9     3.991398036501    96.04921187   288.68741578
 S     12  11  10     3.713198438099   116.94236026   321.64105763
 O     12  11  10     3.001198695992   104.65071652   192.70537327
 C     14  12  11     2.717887610701   122.53914698    90.92133037
 C     15  14  12     2.863164753442   112.15283390   291.97008478
 O     12  11  10     2.991485716301    99.65009553    87.65021287
 C     17  12  11     2.723699590860   122.15236876   201.36683641
 C     18  17  12     2.861429472145   111.76675399   291.43660110
 H      1   2   3     2.057910949425   109.96307924   292.72602358
 H      1   2   3     2.053755242555   110.18477048    52.79092490
 H      1   2   3     2.051400195043   109.29874039   173.17172630
 H      2   1   3     2.061241347218   111.80138036   244.00301469
 H      2   1   3     2.068669603923   110.64649344   121.10414406
 H      7   6   4     2.061867489193   104.06829714   197.34105738
 H      7   6   4     2.069757966718   108.60939213   314.41082665
 H      8   7   6     2.050746553940   109.46069757   173.01800259
 H      8   7   6     2.058321569411   110.46294198   292.62320195
 H      8   7   6     2.054224317839   110.15624740    52.65908019
 H     10   9   4     2.059412558832   106.60382600   152.72175784
 H     10   9   4     2.056842815986   109.86159949    31.63427994
 H     15  14  12     2.068913482568   108.40988174    54.23958779
 H     15  14  12     2.061274810346   103.88255475   171.19276016
 H     16  15  14     2.050930954447   109.38269741   186.97479459
 H     16  15  14     2.054443001254   110.36226600   307.46955724
 H     16  15  14     2.058531620541   110.02946138    67.38906968
 H     18  17  12     2.068818454549   108.43330368    53.98735148
 H     18  17  12     2.060850720057   103.94933534   170.65558809
 H     19  18  17     2.058627518543   109.81137320    66.30558395
 H     19  18  17     2.051269057565   109.42430732   185.84414288
 H     19  18  17     2.053671948193   110.16570477   306.39671164

---------------------
BASIS SET INFORMATION
---------------------
There are 5 groups of distinct atoms

 Group   1 Type C   : 11s6p1d contracted to 5s3p1d pattern {62111/411/1}
 Group   2 Type O   : 11s6p2d contracted to 5s3p2d pattern {62111/411/11}
 Group   3 Type P   : 14s9p2d contracted to 5s4p2d pattern {73211/6111/11}
 Group   4 Type S   : 14s9p2d contracted to 5s4p2d pattern {73211/6111/11}
 Group   5 Type H   : 4s1p contracted to 2s1p pattern {31/1}

Atom   0C    basis set group =>   1
Atom   1C    basis set group =>   1
Atom   2O    basis set group =>   2
Atom   3P    basis set group =>   3
Atom   4S    basis set group =>   4
Atom   5O    basis set group =>   2
Atom   6C    basis set group =>   1
Atom   7C    basis set group =>   1
Atom   8S    basis set group =>   4
Atom   9C    basis set group =>   1
Atom  10S    basis set group =>   4
Atom  11P    basis set group =>   3
Atom  12S    basis set group =>   4
Atom  13O    basis set group =>   2
Atom  14C    basis set group =>   1
Atom  15C    basis set group =>   1
Atom  16O    basis set group =>   2
Atom  17C    basis set group =>   1
Atom  18C    basis set group =>   1
Atom  19H    basis set group =>   5
Atom  20H    basis set group =>   5
Atom  21H    basis set group =>   5
Atom  22H    basis set group =>   5
Atom  23H    basis set group =>   5
Atom  24H    basis set group =>   5
Atom  25H    basis set group =>   5
Atom  26H    basis set group =>   5
Atom  27H    basis set group =>   5
Atom  28H    basis set group =>   5
Atom  29H    basis set group =>   5
Atom  30H    basis set group =>   5
Atom  31H    basis set group =>   5
Atom  32H    basis set group =>   5
Atom  33H    basis set group =>   5
Atom  34H    basis set group =>   5
Atom  35H    basis set group =>   5
Atom  36H    basis set group =>   5
Atom  37H    basis set group =>   5
Atom  38H    basis set group =>   5
Atom  39H    basis set group =>   5
Atom  40H    basis set group =>   5
---------------------------------
AUXILIARY/J BASIS SET INFORMATION
---------------------------------
There are 5 groups of distinct atoms

 Group   1 Type C   : 12s5p4d2f1g contracted to 6s4p3d1f1g pattern {711111/2111/211/2/1}
 Group   2 Type O   : 12s5p4d2f1g contracted to 6s4p3d1f1g pattern {711111/2111/211/2/1}
 Group   3 Type P   : 14s5p5d2f1g contracted to 8s4p3d1f1g pattern {71111111/2111/311/2/1}
 Group   4 Type S   : 14s5p5d2f1g contracted to 8s4p3d1f1g pattern {71111111/2111/311/2/1}
 Group   5 Type H   : 5s2p1d contracted to 3s1p1d pattern {311/2/1}

Atom   0C    basis set group =>   1
Atom   1C    basis set group =>   1
Atom   2O    basis set group =>   2
Atom   3P    basis set group =>   3
Atom   4S    basis set group =>   4
Atom   5O    basis set group =>   2
Atom   6C    basis set group =>   1
Atom   7C    basis set group =>   1
Atom   8S    basis set group =>   4
Atom   9C    basis set group =>   1
Atom  10S    basis set group =>   4
Atom  11P    basis set group =>   3
Atom  12S    basis set group =>   4
Atom  13O    basis set group =>   2
Atom  14C    basis set group =>   1
Atom  15C    basis set group =>   1
Atom  16O    basis set group =>   2
Atom  17C    basis set group =>   1
Atom  18C    basis set group =>   1
Atom  19H    basis set group =>   5
Atom  20H    basis set group =>   5
Atom  21H    basis set group =>   5
Atom  22H    basis set group =>   5
Atom  23H    basis set group =>   5
Atom  24H    basis set group =>   5
Atom  25H    basis set group =>   5
Atom  26H    basis set group =>   5
Atom  27H    basis set group =>   5
Atom  28H    basis set group =>   5
Atom  29H    basis set group =>   5
Atom  30H    basis set group =>   5
Atom  31H    basis set group =>   5
Atom  32H    basis set group =>   5
Atom  33H    basis set group =>   5
Atom  34H    basis set group =>   5
Atom  35H    basis set group =>   5
Atom  36H    basis set group =>   5
Atom  37H    basis set group =>   5
Atom  38H    basis set group =>   5
Atom  39H    basis set group =>   5
Atom  40H    basis set group =>   5

Checking for AutoStart:
The File: sp_gas.gbw exists
Trying to determine its content:
     ... Fine, the file contains calculation information
     ... Fine, the calculation information was read
     ... Fine, the file contains a basis set
     ... Fine, the basis set was read
     ... Fine, the file contains a geometry
     ... Fine, the geometry was read
     ... Fine, the file contains a set of orbitals
     ... Fine, the orbitals can be read
     => possible old guess file was deleted
     => GBW file was renamed to GES file
     => GES file is set as startup file
     => Guess is set to MORead
     ... now leaving AutoStart

------------------------------------------------------------------------------
                             ORCA STARTUP CALCULATIONS
                           -- RI-GTO INTEGRALS CHOSEN --
------------------------------------------------------------------------------
------------------------------------------------------------------------------
                   ___                                                        
                  /   \      - P O W E R E D   B Y -                         
                 /     \                                                     
                 |  |  |   _    _      __       _____    __    __             
                 |  |  |  | |  | |    /  \     |  _  \  |  |  /  |          
                  \  \/   | |  | |   /    \    | | | |  |  | /  /          
                 / \  \   | |__| |  /  /\  \   | |_| |  |  |/  /          
                |  |  |   |  __  | /  /__\  \  |    /   |      \           
                |  |  |   | |  | | |   __   |  |    \   |  |\   \          
                \     /   | |  | | |  |  |  |  | |\  \  |  | \   \       
                 \___/    |_|  |_| |__|  |__|  |_| \__\ |__|  \__/        
                                                                              
                      - O R C A' S   B I G   F R I E N D -                    
                                      &                                       
                       - I N T E G R A L  F E E D E R -                       
                                                                              
 v1 FN, 2020, v2 2021, v3 2022-2024                                           
------------------------------------------------------------------------------


----------------------
SHARK INTEGRAL PACKAGE
----------------------

Number of atoms                             ...     41
Number of basis functions                   ...    539
Number of shells                            ...    253
Maximum angular momentum                    ...      2
Integral batch strategy                     ... SHARK/LIBINT Hybrid
RI-J (if used) integral strategy            ... SPLIT-RIJ (Revised 2003 algorithm where possible)
Printlevel                                  ...      1
Contraction scheme used                     ... SEGMENTED contraction
Prescreening option                         ... SCHWARTZ
   Thresh                                   ... 1.000e-10
   Tcut                                     ... 1.000e-11
   Tpresel                                  ... 1.000e-11 
Coulomb Range Separation                    ... NOT USED
Exchange Range Separation                   ... NOT USED
Multipole approximations                    ... NOT USED
Finite Nucleus Model                        ... NOT USED
CABS basis                                  ... NOT available
Auxiliary Coulomb fitting basis             ... AVAILABLE
   # of basis functions in Aux-J            ...   1185
   # of shells in Aux-J                     ...    407
   Maximum angular momentum in Aux-J        ...      4
Auxiliary J/K fitting basis                 ... NOT available
Auxiliary Correlation fitting basis         ... NOT available
Auxiliary 'external' fitting basis          ... NOT available

Checking pre-screening integrals            ... done (  0.0 sec) Dimension = 253
Check shell pair data                       ... done (  0.0 sec)
Shell pair information
Shell pair cut-off parameter TPreSel        ...   1.0e-11
Total number of shell pairs                 ...     32131
Shell pairs after pre-screening             ...     20538
Total number of primitive shell pairs       ...    124843
Primitive shell pairs kept                  ...     48149
          la=0 lb=0:   5770 shell pairs
          la=1 lb=0:   7470 shell pairs
          la=1 lb=1:   2461 shell pairs
          la=2 lb=0:   2728 shell pairs
          la=2 lb=1:   1771 shell pairs
          la=2 lb=2:    338 shell pairs

Calculating one electron integrals          ... done (  0.1 sec)
Calculating RI/J V-Matrix + Cholesky decomp.... done (  0.1 sec)
Calculating Nuclear repulsion               ... done (  0.0 sec) ENN=   2726.546863920606 Eh

Diagonalization of the overlap matrix:
Smallest eigenvalue                        ... 2.631e-04
Time for diagonalization                   ...    0.029 sec
Threshold for overlap eigenvalues          ... 1.000e-07
Number of eigenvalues below threshold      ... 0
Time for construction of square roots      ...    0.052 sec
Total time needed                          ...    0.090 sec

-------------------
DFT GRID GENERATION
-------------------

General Integration Accuracy     IntAcc      ... 4.388
Radial Grid Type                 RadialGrid  ... OptM3 with GC (2021)
Angular Grid (max. ang.)         AngularGrid ... 4 (Lebedev-302)
Angular grid pruning method      GridPruning ... 4 (adaptive)
Weight generation scheme         WeightScheme... mBecke (2022)
Basis function cutoff            BFCut       ... 1.0000e-10
Integration weight cutoff        WCut        ... 1.0000e-14
Partially contracted basis set               ... off
Rotationally invariant grid construction     ... off
Angular grids for H and He will be reduced by one unit
Diffuse basis detected: some atoms will have their outermost
                        angular grid increased by 1.

Total number of grid points                  ...   192596
Total number of batches                      ...     3030
Average number of points per batch           ...       63
Average number of grid points per atom       ...     4697
Initializing property integral containers    ... done (  0.0 sec)

SHARK setup successfully completed in   3.0 seconds

Maximum memory used throughout the entire STARTUP-calculation: 100.1 MB
-------------------------------------------------------------------------------
                                 ORCA GUESS
                   Start orbitals & Density for SCF / CASSCF
-------------------------------------------------------------------------------

------------
SCF SETTINGS
------------
Hamiltonian:
 Density Functional     Method          .... DFT(GTOs)
  Functional kind                       .... Exchange
  Functional name                       .... Re-regularized SCAN exchange by Furness et al
  Functional family                     .... MGGA
  Functional refs                              
    [ 0] J. W. Furness, A. D. Kaplan, J. Ning, J. P. Perdew, and J. Sun.,  J. Phys. Chem. Lett. 11, 8208-8215 (2020), doi: 10.1021/acs.jpclett.0c02405
    [ 1] J. W. Furness, A. D. Kaplan, J. Ning, J. P. Perdew, and J. Sun.,  J. Phys. Chem. Lett. 11, 9248-9248 (2020), doi: 10.1021/acs.jpclett.0c03077
  Functional external parameters        .... 6
    Parameter  0 _c1        =  6.670000e-01 : c1 parameter        
    Parameter  1 _c2        =  8.000000e-01 : c2 parameter        
    Parameter  2 _d         =  1.240000e+00 : d parameter         
    Parameter  3 _k1        =  6.500000e-02 : k1 parameter        
    Parameter  4 _eta       =  1.000000e-03 : eta parameter       
    Parameter  5 _dp2       =  3.610000e-01 : dp2 parameter       
  Functional kind                       .... Correlation
  Functional name                       .... Re-regularized SCAN correlation by Furness et al
  Functional family                     .... MGGA
  Functional refs                              
    [ 0] J. W. Furness, A. D. Kaplan, J. Ning, J. P. Perdew, and J. Sun.,  J. Phys. Chem. Lett. 11, 8208-8215 (2020), doi: 10.1021/acs.jpclett.0c02405
    [ 1] J. W. Furness, A. D. Kaplan, J. Ning, J. P. Perdew, and J. Sun.,  J. Phys. Chem. Lett. 11, 9248-9248 (2020), doi: 10.1021/acs.jpclett.0c03077
  Functional external parameters        .... 1
    Parameter  0 _eta       =  1.000000e-03 : Regularization parameter
 Gradients option       PostSCFGGA      .... off
 RI-approximation to the Coulomb term is turned on
   Number of AuxJ basis functions       .... 1185


General Settings:
 Integral files         IntName         .... sp_gas
 Hartree-Fock type      HFTyp           .... RHF
 Total Charge           Charge          ....    0
 Multiplicity           Mult            ....    1
 Number of Electrons    NEL             ....  202
 Basis Dimension        Dim             ....  539
 Nuclear Repulsion      ENuc            ....   2726.5468639206 Eh

Convergence Acceleration:
 AO-DIIS                CNVDIIS         .... on
   Start iteration      DIISMaxIt       ....    12
   Startup error        DIISStart       ....  0.200000
   # of expansion vecs  DIISMaxEq       ....     5
   Bias factor          DIISBfac        ....   1.050
   Max. coefficient     DIISMaxC        ....  10.000
 MO-DIIS                CNVKDIIS        .... off
 Trust-Rad. Augm. Hess. CNVTRAH         .... auto
   Auto Start mean grad. ratio tolernc. ....  1.125000
   Auto Start start iteration           ....     1
   Auto Start num. interpolation iter.  ....    10
   Max. Number of Micro iterations      ....    24
   Max. Number of Macro iterations      .... Maxiter - #DIIS iter
   Number of Davidson start vectors     ....     2
   Converg. threshold    (grad. norm)   ....   3.330e-04
   Grad. Scal. Fac. for Micro threshold ....   0.100
   Minimum threshold for Micro iter.    ....   1.000e-02
   NR start threshold (gradient norm)   ....   1.000e-04
   Initial trust radius                 ....   0.400
   Minimum AH scaling param. (alpha)    ....   1.000
   Maximum AH scaling param. (alpha)    .... 1000.000
   Quad. conv. algorithm                .... NR
   White noise on init. David. guess    .... on
   Maximum white noise                  ....   0.010
   Pseudo random numbers                .... off
   Inactive MOs                         .... canonical
   Orbital update algorithm             .... Taylor
   Preconditioner                       .... Diag
   Full preconditioner red. dimension   ....   250
   COSX micro iterations for RIJONX calc.... off
 SOSCF                  CNVSOSCF        .... on
   Start iteration      SOSCFMaxIt      ....   150
   Startup grad/error   SOSCFStart      ....  0.003300
   Hessian update       SOSCFHessUp     .... L-BFGS
 Level Shifting         CNVShift        .... on
   Level shift para.    LevelShift      ....    0.2500
   Turn off err/grad.   ShiftErr        ....    0.0010
 Zerner damping         CNVZerner       .... off
 Static damping         CNVDamp         .... on
   Fraction old density DampFac         ....    0.7000
   Max. Damping (<1)    DampMax         ....    0.9800
   Min. Damping (>=0)   DampMin         ....    0.0000
   Turn off err/grad.   DampErr         ....    0.1000

SCF Procedure:
 Maximum # iterations   MaxIter         ....   125
 SCF integral mode      SCFMode         .... Direct
   Integral package                     .... SHARK and LIBINT hybrid scheme
 Reset frequency        DirectResetFreq ....    20
 Integral Threshold     Thresh          ....  1.000e-10 Eh
 Primitive CutOff       TCut            ....  1.000e-11 Eh

Convergence Tolerance:
 Convergence Check Mode ConvCheckMode   .... Total+1el-Energy
 Convergence forced     ConvForced      .... 0
 Energy Change          TolE            ....  1.000e-06 Eh
 1-El. energy change                    ....  1.000e-03 Eh
 Orbital Gradient       TolG            ....  3.330e-04
 Orbital Rotation angle TolX            ....  3.330e-04
 DIIS Error             TolErr          ....  1.000e-06

---------------------
INITIAL GUESS: MOREAD
---------------------
Guess MOs are being read from file: sp_gas.ges
Input Geometry matches current geometry (good)
Atom 0: N(Shells)= 9 and 6 - projection required
Input basis set needs projection
NBasis(read)= 334
NBasis(calc)= 539
Basis set overlap was calculated
Using GuessMode=FMatrix for the initial guess
C*T matrix was formed
Effective Fockian was calculated
Effective Fockian was diagonalized
Initial density was built
                      ------------------
                      INITIAL GUESS DONE (   0.2 sec)
                      ------------------
             **** ENERGY FILE WAS UPDATED (sp_gas.en.tmp) ****
Finished Guess after   0.6 sec
Maximum memory used throughout the entire GUESS-calculation: 57.5 MB

-------------------------------------------------------------------------------------------
                                      ORCA LEAN-SCF
                              memory conserving SCF solver
-------------------------------------------------------------------------------------------

----------------------------------------D-I-I-S--------------------------------------------
Iteration    Energy (Eh)           Delta-E    RMSDP     MaxDP     DIISErr   Damp  Time(sec)
-------------------------------------------------------------------------------------------
               ***  Starting incremental Fock matrix formation  ***
    1    -2932.0131951843668503     0.00e+00  2.19e-03  8.85e-02  6.33e-01  0.700   9.0
    2    -2932.1550121185027820    -1.42e-01  1.79e-03  7.18e-02  4.45e-01  0.700   7.4
    3    -2932.2551783890048682    -1.00e-01  1.31e-03  5.22e-02  3.12e-01  0.700   7.0
    4    -2932.3254481129106352    -7.03e-02  9.40e-04  3.71e-02  2.18e-01  0.700   6.8
                               ***Turning on AO-DIIS***
    5    -2932.3747102256893413    -4.93e-02  6.80e-04  2.67e-02  1.53e-01  0.700   6.5
    6    -2932.4092269377406410    -3.45e-02  4.81e-04  1.89e-02  1.07e-01  0.700   6.9
    7    -2932.4334175485955711    -2.42e-02  3.39e-04  1.33e-02  7.48e-02  0.700   6.3
    8    -2932.4503634417660578    -1.69e-02  7.94e-04  3.12e-02  5.25e-02  0.000   6.4
                              *** Initializing SOSCF ***
---------------------------------------S-O-S-C-F--------------------------------------
Iteration    Energy (Eh)           Delta-E    RMSDP     MaxDP     MaxGrad    Time(sec)
--------------------------------------------------------------------------------------
    9    -2932.4899451590499666    -3.96e-02  4.85e-06  1.74e-04  1.49e-04     6.9
               *** Restarting incremental Fock matrix formation ***
   10    -2932.4899457978672217    -6.39e-07  4.37e-06  1.94e-04  4.16e-05     8.5
                  *** Gradient check signals convergence ***

               *****************************************************
               *                     SUCCESS                       *
               *           SCF CONVERGED AFTER  10 CYCLES          *
               *****************************************************

             **** ENERGY FILE WAS UPDATED (sp_gas.en.tmp) ****

----------------
TOTAL SCF ENERGY
----------------

Total Energy       :      -2932.48994579786722 Eh          -79797.10823 eV

Components:
Nuclear Repulsion  :       2726.54686392060557 Eh           74193.11207 eV
Electronic Energy  :      -5659.03680971847280 Eh         -153990.22030 eV
One Electron Energy:      -9474.14827678812799 Eh         -257804.68115 eV
Two Electron Energy:       3815.11146706965565 Eh          103814.46084 eV

Virial components:
Potential Energy   :      -5856.16936996236473 Eh         -159354.46998 eV
Kinetic Energy     :       2923.67942416449705 Eh           79557.36175 eV
Virial Ratio       :          2.00301350468199

DFT components:
N(Alpha)           :      101.000030442933 electrons
N(Beta)            :      101.000030442933 electrons
N(Total)           :      202.000060885866 electrons
E(X)               :     -233.538050306408 Eh       
E(C)               :       -7.119960763509 Eh       
E(XC)              :     -240.658011069917 Eh       

---------------
SCF CONVERGENCE
---------------

  Last Energy change         ...    6.3882e-07  Tolerance :   1.0000e-06
  Last MAX-Density change    ...    1.9357e-04  Tolerance :   1.0000e-05
  Last RMS-Density change    ...    4.3750e-06  Tolerance :   1.0000e-06
  Last DIIS Error            ...    1.4868e-04  Tolerance :   1.0000e-06
  Last Orbital Gradient      ...    4.1555e-05  Tolerance :   3.3300e-04
  Last Orbital Rotation      ...    1.0431e-04  Tolerance :   3.3300e-04


----------------
ORBITAL ENERGIES
----------------

  NO   OCC          E(Eh)            E(eV) 
   0   2.0000     -88.574003     -2410.2212 
   1   2.0000     -88.572195     -2410.1720 
   2   2.0000     -88.524395     -2408.8713 
   3   2.0000     -88.522975     -2408.8326 
   4   2.0000     -76.914149     -2092.9404 
   5   2.0000     -76.913572     -2092.9247 
   6   2.0000     -18.994952      -516.8789 
   7   2.0000     -18.991073      -516.7734 
   8   2.0000     -18.989783      -516.7383 
   9   2.0000     -18.987713      -516.6819 
  10   2.0000     -10.102657      -274.9073 
  11   2.0000     -10.100416      -274.8463 
  12   2.0000     -10.097401      -274.7642 
  13   2.0000     -10.097035      -274.7543 
  14   2.0000     -10.095726      -274.7187 
  15   2.0000     -10.029320      -272.9117 
  16   2.0000     -10.029291      -272.9109 
  17   2.0000     -10.028632      -272.8929 
  18   2.0000     -10.022328      -272.7214 
  19   2.0000      -7.868234      -214.1055 
  20   2.0000      -7.866407      -214.0558 
  21   2.0000      -7.819128      -212.7693 
  22   2.0000      -7.817719      -212.7309 
  23   2.0000      -6.592888      -179.4016 
  24   2.0000      -6.592177      -179.3823 
  25   2.0000      -5.815077      -158.2363 
  26   2.0000      -5.813363      -158.1897 
  27   2.0000      -5.812134      -158.1562 
  28   2.0000      -5.810432      -158.1099 
  29   2.0000      -5.805360      -157.9719 
  30   2.0000      -5.803278      -157.9152 
  31   2.0000      -5.766728      -156.9206 
  32   2.0000      -5.765252      -156.8805 
  33   2.0000      -5.759471      -156.7232 
  34   2.0000      -5.759118      -156.7136 
  35   2.0000      -5.758020      -156.6837 
  36   2.0000      -5.757821      -156.6783 
  37   2.0000      -4.738276      -128.9350 
  38   2.0000      -4.737746      -128.9206 
  39   2.0000      -4.737376      -128.9105 
  40   2.0000      -4.737039      -128.9014 
  41   2.0000      -4.736756      -128.8937 
  42   2.0000      -4.736243      -128.8797 
  43   2.0000      -1.051532       -28.6136 
  44   2.0000      -1.048447       -28.5297 
  45   2.0000      -1.012865       -27.5615 
  46   2.0000      -1.009580       -27.4721 
  47   2.0000      -0.799157       -21.7462 
  48   2.0000      -0.758347       -20.6357 
  49   2.0000      -0.747217       -20.3328 
  50   2.0000      -0.732246       -19.9254 
  51   2.0000      -0.729330       -19.8461 
  52   2.0000      -0.710785       -19.3414 
  53   2.0000      -0.687048       -18.6955 
  54   2.0000      -0.669498       -18.2180 
  55   2.0000      -0.636645       -17.3240 
  56   2.0000      -0.627549       -17.0765 
  57   2.0000      -0.606676       -16.5085 
  58   2.0000      -0.603339       -16.4177 
  59   2.0000      -0.587451       -15.9854 
  60   2.0000      -0.520734       -14.1699 
  61   2.0000      -0.516139       -14.0449 
  62   2.0000      -0.494669       -13.4606 
  63   2.0000      -0.491447       -13.3730 
  64   2.0000      -0.475870       -12.9491 
  65   2.0000      -0.460950       -12.5431 
  66   2.0000      -0.459477       -12.5030 
  67   2.0000      -0.455583       -12.3970 
  68   2.0000      -0.446454       -12.1486 
  69   2.0000      -0.432260       -11.7624 
  70   2.0000      -0.421116       -11.4591 
  71   2.0000      -0.412352       -11.2207 
  72   2.0000      -0.410110       -11.1597 
  73   2.0000      -0.406892       -11.0721 
  74   2.0000      -0.401962       -10.9379 
  75   2.0000      -0.392871       -10.6906 
  76   2.0000      -0.381398       -10.3784 
  77   2.0000      -0.372467       -10.1353 
  78   2.0000      -0.369489       -10.0543 
  79   2.0000      -0.365527        -9.9465 
  80   2.0000      -0.362807        -9.8725 
  81   2.0000      -0.359531        -9.7833 
  82   2.0000      -0.355590        -9.6761 
  83   2.0000      -0.352354        -9.5880 
  84   2.0000      -0.348022        -9.4702 
  85   2.0000      -0.332971        -9.0606 
  86   2.0000      -0.322858        -8.7854 
  87   2.0000      -0.311693        -8.4816 
  88   2.0000      -0.307671        -8.3721 
  89   2.0000      -0.300163        -8.1679 
  90   2.0000      -0.298829        -8.1316 
  91   2.0000      -0.289918        -7.8891 
  92   2.0000      -0.286966        -7.8087 
  93   2.0000      -0.280563        -7.6345 
  94   2.0000      -0.275612        -7.4998 
  95   2.0000      -0.242273        -6.5926 
  96   2.0000      -0.231643        -6.3033 
  97   2.0000      -0.227261        -6.1841 
  98   2.0000      -0.221008        -6.0139 
  99   2.0000      -0.218248        -5.9388 
 100   2.0000      -0.215399        -5.8613 
 101   0.0000      -0.044721        -1.2169 
 102   0.0000      -0.029014        -0.7895 
 103   0.0000      -0.005719        -0.1556 
 104   0.0000       0.003597         0.0979 
 105   0.0000       0.017046         0.4638 
 106   0.0000       0.026183         0.7125 
 107   0.0000       0.038709         1.0533 
 108   0.0000       0.040412         1.0997 
 109   0.0000       0.052733         1.4349 
 110   0.0000       0.060973         1.6592 
 111   0.0000       0.079461         2.1622 
*Only the first 10 virtual orbitals were printed.

                    ********************************
                    * MULLIKEN POPULATION ANALYSIS *
                    ********************************

-----------------------
MULLIKEN ATOMIC CHARGES
-----------------------
   0 C :   -0.434697
   1 C :   -0.156039
   2 O :   -0.292506
   3 P :    0.663555
   4 S :   -0.478166
   5 O :   -0.278101
   6 C :   -0.153244
   7 C :   -0.440867
   8 S :   -0.102560
   9 C :   -0.245426
  10 S :   -0.103814
  11 P :    0.686074
  12 S :   -0.486840
  13 O :   -0.306010
  14 C :   -0.150800
  15 C :   -0.452916
  16 O :   -0.276251
  17 C :   -0.149891
  18 C :   -0.442773
  19 H :    0.164705
  20 H :    0.156554
  21 H :    0.146880
  22 H :    0.149982
  23 H :    0.169841
  24 H :    0.146043
  25 H :    0.169250
  26 H :    0.144815
  27 H :    0.185036
  28 H :    0.146204
  29 H :    0.217653
  30 H :    0.206211
  31 H :    0.170997
  32 H :    0.148746
  33 H :    0.148255
  34 H :    0.157252
  35 H :    0.177671
  36 H :    0.173463
  37 H :    0.150375
  38 H :    0.167262
  39 H :    0.147317
  40 H :    0.156759
Sum of atomic charges:    0.0000000

--------------------------------
MULLIKEN REDUCED ORBITAL CHARGES
--------------------------------
  0 C s       :     3.298703  s :     3.298703
      pz      :     1.013719  p :     3.110201
      px      :     1.037162
      py      :     1.059320
      dz2     :     0.007389  d :     0.025794
      dxz     :     0.004517
      dyz     :     0.004072
      dx2y2   :     0.007139
      dxy     :     0.002677

  1 C s       :     3.284789  s :     3.284789
      pz      :     1.048926  p :     2.816605
      px      :     0.703334
      py      :     1.064345
      dz2     :     0.012052  d :     0.054645
      dxz     :     0.011292
      dyz     :     0.004220
      dx2y2   :     0.016629
      dxy     :     0.010453

  2 O s       :     3.736827  s :     3.736827
      pz      :     1.592643  p :     4.541250
      px      :     1.202335
      py      :     1.746272
      dz2     :     0.011010  d :     0.014429
      dxz     :     0.005664
      dyz     :     0.004710
      dx2y2   :    -0.004754
      dxy     :    -0.002201

  3 P s       :     5.119077  s :     5.119077
      pz      :     2.832590  p :     8.505257
      px      :     2.843767
      py      :     2.828900
      dz2     :     0.133517  d :     0.712110
      dxz     :     0.126065
      dyz     :     0.161209
      dx2y2   :     0.120188
      dxy     :     0.171131

  4 S s       :     5.916464  s :     5.916464
      pz      :     3.629501  p :    10.493486
      px      :     3.639333
      py      :     3.224652
      dz2     :     0.009287  d :     0.068216
      dxz     :     0.004499
      dyz     :     0.019507
      dx2y2   :     0.019445
      dxy     :     0.015479

  5 O s       :     3.729333  s :     3.729333
      pz      :     1.157580  p :     4.526897
      px      :     1.765874
      py      :     1.603444
      dz2     :    -0.000896  d :     0.021871
      dxz     :     0.005880
      dyz     :     0.002524
      dx2y2   :     0.004987
      dxy     :     0.009376

  6 C s       :     3.284713  s :     3.284713
      pz      :     0.710203  p :     2.813450
      px      :     0.981500
      py      :     1.121747
      dz2     :     0.015739  d :     0.055081
      dxz     :     0.013371
      dyz     :     0.010028
      dx2y2   :     0.008053
      dxy     :     0.007890

  7 C s       :     3.308996  s :     3.308996
      pz      :     1.086294  p :     3.106324
      px      :     0.922613
      py      :     1.097417
      dz2     :     0.006541  d :     0.025548
      dxz     :     0.002921
      dyz     :     0.003140
      dx2y2   :     0.006646
      dxy     :     0.006299

  8 S s       :     5.903056  s :     5.903056
      pz      :     3.691814  p :    10.098904
      px      :     3.206571
      py      :     3.200519
      dz2     :     0.011098  d :     0.100599
      dxz     :     0.022063
      dyz     :     0.015022
      dx2y2   :     0.029885
      dxy     :     0.022532

  9 C s       :     3.184546  s :     3.184546
      pz      :     0.987232  p :     3.025261
      px      :     1.081638
      py      :     0.956392
      dz2     :     0.007923  d :     0.035620
      dxz     :     0.008296
      dyz     :     0.005654
      dx2y2   :     0.005246
      dxy     :     0.008500

 10 S s       :     5.908491  s :     5.908491
      pz      :     3.334067  p :    10.088631
      px      :     3.156041
      py      :     3.598524
      dz2     :     0.023948  d :     0.106692
      dxz     :     0.025053
      dyz     :     0.016676
      dx2y2   :     0.013945
      dxy     :     0.027070

 11 P s       :     5.125049  s :     5.125049
      pz      :     2.827142  p :     8.473148
      px      :     2.827160
      py      :     2.818846
      dz2     :     0.142581  d :     0.715728
      dxz     :     0.165290
      dyz     :     0.181003
      dx2y2   :     0.109434
      dxy     :     0.117420

 12 S s       :     5.915264  s :     5.915264
      pz      :     3.197718  p :    10.503337
      px      :     3.618831
      py      :     3.686788
      dz2     :     0.027109  d :     0.068239
      dxz     :     0.020328
      dyz     :     0.013649
      dx2y2   :     0.003927
      dxy     :     0.003226

 13 O s       :     3.740959  s :     3.740959
      pz      :     1.633873  p :     4.541406
      px      :     1.372786
      py      :     1.534747
      dz2     :     0.001872  d :     0.023644
      dxz     :     0.013099
      dyz     :     0.002377
      dx2y2   :     0.003163
      dxy     :     0.003132

 14 C s       :     3.284008  s :     3.284008
      pz      :     1.116477  p :     2.811931
      px      :     0.871767
      py      :     0.823688
      dz2     :     0.007660  d :     0.054862
      dxz     :     0.012514
      dyz     :     0.006903
      dx2y2   :     0.012503
      dxy     :     0.015281

 15 C s       :     3.315738  s :     3.315738
      pz      :     1.097409  p :     3.111445
      px      :     1.065440
      py      :     0.948597
      dz2     :     0.004984  d :     0.025732
      dxz     :     0.007139
      dyz     :     0.002726
      dx2y2   :     0.003525
      dxy     :     0.007359

 16 O s       :     3.733941  s :     3.733941
      pz      :     1.717153  p :     4.529261
      px      :     1.705471
      py      :     1.106637
      dz2     :    -0.001836  d :     0.013049
      dxz     :     0.007779
      dyz     :     0.002704
      dx2y2   :    -0.005011
      dxy     :     0.009413

 17 C s       :     3.284569  s :     3.284569
      pz      :     1.088160  p :     2.810692
      px      :     0.955606
      py      :     0.766926
      dz2     :     0.011784  d :     0.054630
      dxz     :     0.006506
      dyz     :     0.008737
      dx2y2   :     0.012315
      dxy     :     0.015289

 18 C s       :     3.308714  s :     3.308714
      pz      :     1.073705  p :     3.108246
      px      :     0.941844
      py      :     1.092697
      dz2     :     0.007176  d :     0.025812
      dxz     :     0.004871
      dyz     :     0.002409
      dx2y2   :     0.006361
      dxy     :     0.004996

 19 H s       :     0.816955  s :     0.816955
      pz      :     0.009791  p :     0.018339
      px      :     0.004072
      py      :     0.004476

 20 H s       :     0.825299  s :     0.825299
      pz      :     0.003538  p :     0.018147
      px      :     0.003642
      py      :     0.010967

 21 H s       :     0.834636  s :     0.834636
      pz      :     0.003781  p :     0.018484
      px      :     0.010746
      py      :     0.003956

 22 H s       :     0.832639  s :     0.832639
      pz      :     0.010432  p :     0.017378
      px      :     0.002854
      py      :     0.004092

 23 H s       :     0.812388  s :     0.812388
      pz      :     0.003459  p :     0.017771
      px      :     0.002254
      py      :     0.012058

 24 H s       :     0.836567  s :     0.836567
      pz      :     0.004010  p :     0.017390
      px      :     0.005520
      py      :     0.007860

 25 H s       :     0.812762  s :     0.812762
      pz      :     0.003234  p :     0.017988
      px      :     0.004099
      py      :     0.010656

 26 H s       :     0.836622  s :     0.836622
      pz      :     0.010685  p :     0.018564
      px      :     0.004042
      py      :     0.003836

 27 H s       :     0.796024  s :     0.796024
      pz      :     0.005002  p :     0.018940
      px      :     0.005620
      py      :     0.008319

 28 H s       :     0.835580  s :     0.835580
      pz      :     0.005048  p :     0.018216
      px      :     0.004414
      py      :     0.008754

 29 H s       :     0.762838  s :     0.762838
      pz      :     0.008599  p :     0.019509
      px      :     0.007713
      py      :     0.003197

 30 H s       :     0.774048  s :     0.774048
      pz      :     0.003436  p :     0.019741
      px      :     0.009144
      py      :     0.007161

 31 H s       :     0.811231  s :     0.811231
      pz      :     0.009744  p :     0.017772
      px      :     0.004822
      py      :     0.003207

 32 H s       :     0.833862  s :     0.833862
      pz      :     0.008347  p :     0.017392
      px      :     0.006246
      py      :     0.002799

 33 H s       :     0.833238  s :     0.833238
      pz      :     0.003844  p :     0.018506
      px      :     0.007104
      py      :     0.007558

 34 H s       :     0.824592  s :     0.824592
      pz      :     0.008133  p :     0.018156
      px      :     0.006265
      py      :     0.003757

 35 H s       :     0.803879  s :     0.803879
      pz      :     0.008687  p :     0.018450
      px      :     0.006278
      py      :     0.003485

 36 H s       :     0.808709  s :     0.808709
      pz      :     0.012176  p :     0.017828
      px      :     0.003164
      py      :     0.002489

 37 H s       :     0.832211  s :     0.832211
      pz      :     0.004914  p :     0.017413
      px      :     0.006366
      py      :     0.006133

 38 H s       :     0.814369  s :     0.814369
      pz      :     0.005362  p :     0.018369
      px      :     0.006206
      py      :     0.006801

 39 H s       :     0.834198  s :     0.834198
      pz      :     0.003933  p :     0.018485
      px      :     0.004537
      py      :     0.010015

 40 H s       :     0.825101  s :     0.825101
      pz      :     0.010779  p :     0.018141
      px      :     0.003489
      py      :     0.003873


------------------------
MULLIKEN OVERLAP CHARGES
------------------------
B(  0-C ,  1-C ) :   0.4019 B(  0-C ,  2-O ) :  -0.1663 B(  0-C ,  5-O ) :   0.0670 
B(  0-C , 19-H ) :   0.8162 B(  0-C , 20-H ) :   0.8091 B(  0-C , 21-H ) :   0.7904 
B(  0-C , 23-H ) :  -0.1121 B(  1-C ,  2-O ) :   0.3436 B(  1-C ,  3-P ) :  -0.1707 
B(  1-C , 19-H ) :  -0.0673 B(  1-C , 20-H ) :  -0.0623 B(  1-C , 21-H ) :  -0.0628 
B(  1-C , 22-H ) :   0.7985 B(  1-C , 23-H ) :   0.8788 B(  2-O ,  3-P ) :   0.7230 
B(  2-O ,  4-S ) :  -0.0967 B(  2-O ,  5-O ) :  -0.2288 B(  2-O ,  8-S ) :  -0.1449 
B(  2-O , 22-H ) :  -0.1029 B(  2-O , 23-H ) :  -0.0820 B(  3-P ,  4-S ) :   1.2062 
B(  3-P ,  5-O ) :   0.4659 B(  3-P ,  6-C ) :  -0.1628 B(  3-P ,  8-S ) :   0.7470 
B(  3-P ,  9-C ) :  -0.0750 B(  4-S ,  5-O ) :  -0.0917 B(  4-S ,  8-S ) :  -0.0999 
B(  5-O ,  6-C ) :   0.3192 B(  5-O ,  7-C ) :  -0.1495 B(  5-O ,  8-S ) :  -0.0818 
B(  5-O , 24-H ) :  -0.1088 B(  5-O , 25-H ) :  -0.0797 B(  6-C ,  7-C ) :   0.4605 
B(  6-C , 24-H ) :   0.8063 B(  6-C , 25-H ) :   0.8650 B(  6-C , 26-H ) :  -0.0606 
B(  6-C , 27-H ) :  -0.0659 B(  6-C , 28-H ) :  -0.0698 B(  7-C , 24-H ) :  -0.0505 
B(  7-C , 25-H ) :  -0.1044 B(  7-C , 26-H ) :   0.7903 B(  7-C , 27-H ) :   0.8268 
B(  7-C , 28-H ) :   0.8027 B(  8-S ,  9-C ) :   0.3561 B(  8-S , 10-S ) :  -0.1457 
B(  8-S , 29-H ) :  -0.0778 B(  9-C , 10-S ) :   0.4029 B(  9-C , 11-P ) :  -0.1196 
B(  9-C , 29-H ) :   0.7965 B(  9-C , 30-H ) :   0.7685 B( 10-S , 11-P ) :   0.7557 
B( 10-S , 12-S ) :  -0.1028 B( 10-S , 13-O ) :  -0.0789 B( 10-S , 16-O ) :  -0.1590 
B( 10-S , 29-H ) :  -0.0662 B( 10-S , 30-H ) :  -0.0661 B( 11-P , 12-S ) :   1.2286 
B( 11-P , 13-O ) :   0.4838 B( 11-P , 14-C ) :  -0.1494 B( 11-P , 16-O ) :   0.6078 
B( 11-P , 17-C ) :  -0.1672 B( 12-S , 13-O ) :  -0.0903 B( 12-S , 16-O ) :  -0.0925 
B( 13-O , 14-C ) :   0.3459 B( 13-O , 15-C ) :  -0.1714 B( 13-O , 16-O ) :  -0.2164 
B( 13-O , 18-C ) :   0.0588 B( 13-O , 31-H ) :  -0.0831 B( 13-O , 32-H ) :  -0.1091 
B( 14-C , 15-C ) :   0.4327 B( 14-C , 31-H ) :   0.8786 B( 14-C , 32-H ) :   0.7954 
B( 14-C , 33-H ) :  -0.0516 B( 14-C , 34-H ) :  -0.0664 B( 14-C , 35-H ) :  -0.0824 
B( 15-C , 31-H ) :  -0.1141 B( 15-C , 33-H ) :   0.7758 B( 15-C , 34-H ) :   0.8062 
B( 15-C , 35-H ) :   0.8379 B( 16-O , 17-C ) :   0.2839 B( 16-O , 18-C ) :  -0.1605 
B( 16-O , 36-H ) :  -0.0739 B( 16-O , 37-H ) :  -0.1036 B( 17-C , 18-C ) :   0.4033 
B( 17-C , 36-H ) :   0.8694 B( 17-C , 37-H ) :   0.8064 B( 17-C , 38-H ) :  -0.0701 
B( 17-C , 39-H ) :  -0.0635 B( 17-C , 40-H ) :  -0.0678 B( 18-C , 36-H ) :  -0.1037 
B( 18-C , 37-H ) :  -0.0504 B( 18-C , 38-H ) :   0.8197 B( 18-C , 39-H ) :   0.7915 
B( 18-C , 40-H ) :   0.8155 B( 24-H , 25-H ) :  -0.0530 B( 31-H , 32-H ) :  -0.0517 



                     *******************************
                     * LOEWDIN POPULATION ANALYSIS *
                     *******************************

----------------------
LOEWDIN ATOMIC CHARGES
----------------------
   0 C :   -0.399557
   1 C :    0.023012
   2 O :   -0.668190
   3 P :    0.387040
   4 S :   -0.126269
   5 O :   -0.665025
   6 C :    0.019209
   7 C :   -0.404558
   8 S :    0.186620
   9 C :   -0.420847
  10 S :    0.163190
  11 P :    0.376142
  12 S :   -0.136154
  13 O :   -0.660033
  14 C :    0.020457
  15 C :   -0.406420
  16 O :   -0.676621
  17 C :    0.018955
  18 C :   -0.399065
  19 H :    0.163970
  20 H :    0.161718
  21 H :    0.159126
  22 H :    0.180465
  23 H :    0.179062
  24 H :    0.178114
  25 H :    0.179878
  26 H :    0.158562
  27 H :    0.171954
  28 H :    0.159038
  29 H :    0.192108
  30 H :    0.192392
  31 H :    0.179361
  32 H :    0.179795
  33 H :    0.159638
  34 H :    0.161009
  35 H :    0.166005
  36 H :    0.180997
  37 H :    0.179658
  38 H :    0.164664
  39 H :    0.159510
  40 H :    0.161090

-------------------------------
LOEWDIN REDUCED ORBITAL CHARGES
-------------------------------
  0 C s       :     2.974923  s :     2.974923
      pz      :     1.112062  p :     3.363728
      px      :     1.108880
      py      :     1.142786
      dz2     :     0.017579  d :     0.060907
      dxz     :     0.009936
      dyz     :     0.009409
      dx2y2   :     0.018166
      dxy     :     0.005816

  1 C s       :     2.875534  s :     2.875534
      pz      :     1.079338  p :     2.979316
      px      :     0.816629
      py      :     1.083349
      dz2     :     0.026883  d :     0.122138
      dxz     :     0.026719
      dyz     :     0.008100
      dx2y2   :     0.038003
      dxy     :     0.022433

  2 O s       :     3.467791  s :     3.467791
      pz      :     1.626775  p :     4.732853
      px      :     1.402098
      py      :     1.703980
      dz2     :     0.077931  d :     0.467546
      dxz     :     0.131777
      dyz     :     0.048801
      dx2y2   :     0.116600
      dxy     :     0.092437

  3 P s       :     4.653650  s :     4.653650
      pz      :     2.748166  p :     8.392879
      px      :     2.796511
      py      :     2.848203
      dz2     :     0.264794  d :     1.566431
      dxz     :     0.316269
      dyz     :     0.374817
      dx2y2   :     0.333912
      dxy     :     0.276640

  4 S s       :     5.567164  s :     5.567164
      pz      :     3.578155  p :    10.418044
      px      :     3.573481
      py      :     3.266407
      dz2     :     0.017855  d :     0.141061
      dxz     :     0.009513
      dyz     :     0.040145
      dx2y2   :     0.046181
      dxy     :     0.027367

  5 O s       :     3.466006  s :     3.466006
      pz      :     1.380404  p :     4.734253
      px      :     1.707912
      py      :     1.645937
      dz2     :     0.129400  d :     0.464766
      dxz     :     0.103401
      dyz     :     0.137400
      dx2y2   :     0.057311
      dxy     :     0.037254

  6 C s       :     2.874446  s :     2.874446
      pz      :     0.816200  p :     2.982695
      px      :     1.052280
      py      :     1.114215
      dz2     :     0.035732  d :     0.123650
      dxz     :     0.028465
      dyz     :     0.024908
      dx2y2   :     0.019254
      dxy     :     0.015292

  7 C s       :     2.974582  s :     2.974582
      pz      :     1.146486  p :     3.369339
      px      :     1.059215
      py      :     1.163638
      dz2     :     0.016539  d :     0.060636
      dxz     :     0.006480
      dyz     :     0.008011
      dx2y2   :     0.015400
      dxy     :     0.014206

  8 S s       :     5.438882  s :     5.438882
      pz      :     3.625857  p :    10.084991
      px      :     3.208396
      py      :     3.250739
      dz2     :     0.029992  d :     0.289507
      dxz     :     0.057354
      dyz     :     0.040617
      dx2y2   :     0.089763
      dxy     :     0.071781

  9 C s       :     3.012387  s :     3.012387
      pz      :     1.100729  p :     3.325689
      px      :     1.136963
      py      :     1.087997
      dz2     :     0.019175  d :     0.082771
      dxz     :     0.019821
      dyz     :     0.011435
      dx2y2   :     0.011917
      dxy     :     0.020423

 10 S s       :     5.440133  s :     5.440133
      pz      :     3.358879  p :    10.095218
      px      :     3.189904
      py      :     3.546434
      dz2     :     0.073225  d :     0.301459
      dxz     :     0.076578
      dyz     :     0.040908
      dx2y2   :     0.039846
      dxy     :     0.070902

 11 P s       :     4.650507  s :     4.650507
      pz      :     2.859316  p :     8.395385
      px      :     2.784174
      py      :     2.751896
      dz2     :     0.348766  d :     1.577965
      dxz     :     0.345233
      dyz     :     0.330963
      dx2y2   :     0.237424
      dxy     :     0.315580

 12 S s       :     5.567868  s :     5.567868
      pz      :     3.244834  p :    10.429005
      px      :     3.563888
      py      :     3.620283
      dz2     :     0.063199  d :     0.139282
      dxz     :     0.040984
      dyz     :     0.021442
      dx2y2   :     0.007320
      dxy     :     0.006337

 13 O s       :     3.465958  s :     3.465958
      pz      :     1.656613  p :     4.731955
      px      :     1.513536
      py      :     1.561806
      dz2     :     0.080047  d :     0.462119
      dxz     :     0.111269
      dyz     :     0.063858
      dx2y2   :     0.104332
      dxy     :     0.102612

 14 C s       :     2.874662  s :     2.874662
      pz      :     1.105941  p :     2.981744
      px      :     0.945486
      py      :     0.930318
      dz2     :     0.017856  d :     0.123136
      dxz     :     0.031019
      dyz     :     0.013250
      dx2y2   :     0.027150
      dxy     :     0.033861

 15 C s       :     2.976321  s :     2.976321
      pz      :     1.160318  p :     3.369383
      px      :     1.147967
      py      :     1.061099
      dz2     :     0.012023  d :     0.060716
      dxz     :     0.017905
      dyz     :     0.005147
      dx2y2   :     0.007428
      dxy     :     0.018213

 16 O s       :     3.466370  s :     3.466370
      pz      :     1.690731  p :     4.727669
      px      :     1.669567
      py      :     1.367371
      dz2     :     0.072242  d :     0.482581
      dxz     :     0.041558
      dyz     :     0.116582
      dx2y2   :     0.126548
      dxy     :     0.125651

 17 C s       :     2.874744  s :     2.874744
      pz      :     1.094987  p :     2.983941
      px      :     1.033510
      py      :     0.855444
      dz2     :     0.028036  d :     0.122361
      dxz     :     0.012579
      dyz     :     0.019396
      dx2y2   :     0.027964
      dxy     :     0.034386

 18 C s       :     2.974712  s :     2.974712
      pz      :     1.150154  p :     3.363423
      px      :     1.064372
      py      :     1.148897
      dz2     :     0.017700  d :     0.060930
      dxz     :     0.010749
      dyz     :     0.005846
      dx2y2   :     0.014837
      dxy     :     0.011798

 19 H s       :     0.791797  s :     0.791797
      pz      :     0.024568  p :     0.044234
      px      :     0.009192
      py      :     0.010474

 20 H s       :     0.794732  s :     0.794732
      pz      :     0.007944  p :     0.043550
      px      :     0.007996
      py      :     0.027611

 21 H s       :     0.796848  s :     0.796848
      pz      :     0.008691  p :     0.044026
      px      :     0.026464
      py      :     0.008872

 22 H s       :     0.779607  s :     0.779607
      pz      :     0.024674  p :     0.039928
      px      :     0.005626
      py      :     0.009628

 23 H s       :     0.778562  s :     0.778562
      pz      :     0.007946  p :     0.042375
      px      :     0.005182
      py      :     0.029247

 24 H s       :     0.782020  s :     0.782020
      pz      :     0.007784  p :     0.039866
      px      :     0.013135
      py      :     0.018947

 25 H s       :     0.777309  s :     0.777309
      pz      :     0.007025  p :     0.042813
      px      :     0.009988
      py      :     0.025800

 26 H s       :     0.797377  s :     0.797377
      pz      :     0.026507  p :     0.044061
      px      :     0.009108
      py      :     0.008447

 27 H s       :     0.782116  s :     0.782116
      pz      :     0.011563  p :     0.045930
      px      :     0.013141
      py      :     0.021226

 28 H s       :     0.797568  s :     0.797568
      pz      :     0.011701  p :     0.043393
      px      :     0.009836
      py      :     0.021857

 29 H s       :     0.758622  s :     0.758622
      pz      :     0.022500  p :     0.049270
      px      :     0.019316
      py      :     0.007454

 30 H s       :     0.758434  s :     0.758434
      pz      :     0.007948  p :     0.049175
      px      :     0.023072
      py      :     0.018154

 31 H s       :     0.778257  s :     0.778257
      pz      :     0.023336  p :     0.042381
      px      :     0.010967
      py      :     0.008078

 32 H s       :     0.780290  s :     0.780290
      pz      :     0.020415  p :     0.039915
      px      :     0.013240
      py      :     0.006260

 33 H s       :     0.796255  s :     0.796255
      pz      :     0.008498  p :     0.044107
      px      :     0.017628
      py      :     0.017981

 34 H s       :     0.795384  s :     0.795384
      pz      :     0.020504  p :     0.043607
      px      :     0.014887
      py      :     0.008217

 35 H s       :     0.789206  s :     0.789206
      pz      :     0.022110  p :     0.044789
      px      :     0.014921
      py      :     0.007757

 36 H s       :     0.776491  s :     0.776491
      pz      :     0.029502  p :     0.042512
      px      :     0.007527
      py      :     0.005482

 37 H s       :     0.780403  s :     0.780403
      pz      :     0.011799  p :     0.039940
      px      :     0.015472
      py      :     0.012668

 38 H s       :     0.791016  s :     0.791016
      pz      :     0.012811  p :     0.044319
      px      :     0.014950
      py      :     0.016559

 39 H s       :     0.796456  s :     0.796456
      pz      :     0.008761  p :     0.044034
      px      :     0.010392
      py      :     0.024881

 40 H s       :     0.795359  s :     0.795359
      pz      :     0.027203  p :     0.043551
      px      :     0.007676
      py      :     0.008673


---------------------------------
LOEWDIN BOND ORDERS (THRESH 0.050000)
---------------------------------
B(  0-C ,  1-C ) :   1.0958 B(  0-C ,  2-O ) :   0.1526 B(  0-C , 19-H ) :   0.9151 
B(  0-C , 20-H ) :   0.9218 B(  0-C , 21-H ) :   0.9161 B(  1-C ,  2-O ) :   1.2917 
B(  1-C ,  3-P ) :   0.0963 B(  1-C , 21-H ) :   0.0512 B(  1-C , 22-H ) :   0.8289 
B(  1-C , 23-H ) :   0.8286 B(  2-O ,  3-P ) :   1.5724 B(  2-O ,  4-S ) :   0.1842 
B(  2-O ,  5-O ) :   0.2159 B(  2-O ,  8-S ) :   0.1799 B(  2-O , 22-H ) :   0.0998 
B(  2-O , 23-H ) :   0.0961 B(  3-P ,  4-S ) :   2.0082 B(  3-P ,  5-O ) :   1.5605 
B(  3-P ,  6-C ) :   0.0948 B(  3-P ,  8-S ) :   1.2351 B(  3-P ,  9-C ) :   0.0902 
B(  4-S ,  5-O ) :   0.1874 B(  4-S ,  8-S ) :   0.1441 B(  4-S ,  9-C ) :   0.0571 
B(  5-O ,  6-C ) :   1.3012 B(  5-O ,  7-C ) :   0.1567 B(  5-O ,  8-S ) :   0.1440 
B(  5-O , 24-H ) :   0.1002 B(  5-O , 25-H ) :   0.0972 B(  6-C ,  7-C ) :   1.0956 
B(  6-C , 24-H ) :   0.8277 B(  6-C , 25-H ) :   0.8246 B(  6-C , 26-H ) :   0.0514 
B(  7-C , 26-H ) :   0.9157 B(  7-C , 27-H ) :   0.9056 B(  7-C , 28-H ) :   0.9202 
B(  8-S ,  9-C ) :   1.2906 B(  8-S , 10-S ) :   0.2118 B(  8-S , 29-H ) :   0.0561 
B(  8-S , 30-H ) :   0.0579 B(  9-C , 10-S ) :   1.2965 B(  9-C , 11-P ) :   0.0947 
B(  9-C , 12-S ) :   0.0518 B(  9-C , 29-H ) :   0.8363 B(  9-C , 30-H ) :   0.8383 
B( 10-S , 11-P ) :   1.2388 B( 10-S , 12-S ) :   0.1474 B( 10-S , 13-O ) :   0.1409 
B( 10-S , 16-O ) :   0.1706 B( 10-S , 29-H ) :   0.0609 B( 10-S , 30-H ) :   0.0565 
B( 11-P , 12-S ) :   2.0038 B( 11-P , 13-O ) :   1.5686 B( 11-P , 14-C ) :   0.0943 
B( 11-P , 16-O ) :   1.5660 B( 11-P , 17-C ) :   0.0963 B( 12-S , 13-O ) :   0.1839 
B( 12-S , 16-O ) :   0.1858 B( 13-O , 14-C ) :   1.3003 B( 13-O , 15-C ) :   0.1550 
B( 13-O , 16-O ) :   0.2148 B( 13-O , 31-H ) :   0.0971 B( 13-O , 32-H ) :   0.1002 
B( 14-C , 15-C ) :   1.0946 B( 14-C , 31-H ) :   0.8277 B( 14-C , 32-H ) :   0.8285 
B( 14-C , 33-H ) :   0.0513 B( 15-C , 33-H ) :   0.9151 B( 15-C , 34-H ) :   0.9208 
B( 15-C , 35-H ) :   0.9146 B( 16-O , 17-C ) :   1.2909 B( 16-O , 18-C ) :   0.1545 
B( 16-O , 36-H ) :   0.0965 B( 16-O , 37-H ) :   0.1000 B( 17-C , 18-C ) :   1.0943 
B( 17-C , 36-H ) :   0.8272 B( 17-C , 37-H ) :   0.8283 B( 17-C , 39-H ) :   0.0508 
B( 18-C , 38-H ) :   0.9143 B( 18-C , 39-H ) :   0.9162 B( 18-C , 40-H ) :   0.9219 


------------------------------------------
LOEWDIN REDUCED ORBITAL POPULATIONS PER MO
-------------------------------------------
THRESHOLD FOR PRINTING IS 0.1%%
                      0         1         2         3         4         5   
                 -88.57400 -88.57220 -88.52440 -88.52297 -76.91415 -76.91357
                   2.00000   2.00000   2.00000   2.00000   2.00000   2.00000
                  --------  --------  --------  --------  --------  --------
 3 P  s               0.0       0.0       0.0       0.0       0.0     100.0
 4 S  s               0.0       0.0     100.0       0.0       0.0       0.0
 8 S  s               0.0     100.0       0.0       0.0       0.0       0.0
10 S  s             100.0       0.0       0.0       0.0       0.0       0.0
11 P  s               0.0       0.0       0.0       0.0     100.0       0.0
12 S  s               0.0       0.0       0.0     100.0       0.0       0.0

                      6         7         8         9        10        11   
                 -18.99495 -18.99107 -18.98978 -18.98771 -10.10266 -10.10042
                   2.00000   2.00000   2.00000   2.00000   2.00000   2.00000
                  --------  --------  --------  --------  --------  --------
 2 O  s               0.0       0.0       0.0      99.9       0.0       0.0
 5 O  s               0.0      99.9       0.0       0.0       0.0       0.0
 9 C  s               0.0       0.0       0.0       0.0      99.6       0.0
13 O  s              99.9       0.0       0.0       0.0       0.0       0.0
13 O  dxy             0.0       0.0       0.0       0.0       0.0       0.2
14 C  s               0.0       0.0       0.0       0.0       0.0      99.4
16 O  s               0.0       0.0      99.9       0.0       0.0       0.0

                     12        13        14        15        16        17   
                 -10.09740 -10.09704 -10.09573 -10.02932 -10.02929 -10.02863
                   2.00000   2.00000   2.00000   2.00000   2.00000   2.00000
                  --------  --------  --------  --------  --------  --------
 0 C  s               0.0       0.0       0.0       0.0       0.0      99.7
 1 C  s               0.0      99.4       0.0       0.0       0.0       0.0
 2 O  dx2y2           0.0       0.2       0.0       0.0       0.0       0.0
 5 O  pz              0.0       0.0       0.1       0.0       0.0       0.0
 5 O  dz2             0.0       0.0       0.2       0.0       0.0       0.0
 6 C  s               0.0       0.0      99.4       0.0       0.0       0.0
15 C  s               0.0       0.0       0.0      99.6       0.1       0.0
16 O  dxy             0.1       0.0       0.0       0.0       0.0       0.0
17 C  s              99.4       0.0       0.0       0.0       0.0       0.0
[...]
36 H  s               0.0       0.1       0.2       0.2       0.0       0.0
36 H  pz              0.0       0.1       0.3       0.4       0.0       0.0
37 H  s               0.0       0.1       0.2       0.2       0.0       0.0
37 H  pz              0.0       0.1       0.2       0.2       0.0       0.0
37 H  px              0.0       0.1       0.4       0.3       0.0       0.0

                    522       523       524       525       526       527   
                  18.87295  18.87949  19.09921  19.25562  21.95338  21.95835
                   0.00000   0.00000   0.00000   0.00000   0.00000   0.00000
                  --------  --------  --------  --------  --------  --------
 0 C  s               0.0       0.0       0.0       0.0      30.4      51.0
 1 C  s               0.0       0.0       0.0       0.0       0.1       0.2
 3 P  s               0.0       0.2       0.1       0.1       0.0       0.0
 3 P  py              0.1       0.1       0.0       0.0       0.0       0.0
 4 S  s              28.6      68.8       0.1       1.4       0.0       0.0
 6 C  s               0.0       0.0       0.0       0.0       1.1       1.4
 7 C  s               0.0       0.0       0.0       0.0       6.8       7.9
 8 S  s               3.3       0.0      19.7      75.8       0.0       0.0
 9 C  s               0.0       0.0       0.1       0.9       1.5       0.0
10 S  s               0.3       0.4      78.9      19.2       0.0       0.0
11 P  s               0.2       0.1       0.0       0.0       0.0       0.0
11 P  pz              0.2       0.1       0.0       0.0       0.0       0.0
12 S  s              66.8      29.8       0.4       2.0       0.0       0.0
14 C  s               0.0       0.0       0.0       0.0       0.4       0.3
15 C  s               0.0       0.0       0.0       0.0      23.4      12.3
17 C  s               0.0       0.0       0.1       0.0       0.2       0.0
18 C  s               0.0       0.0       0.0       0.0      35.8      26.5

                    528       529       530       531       532       533   
                  21.99292  22.00686  22.03720  22.04748  22.05595  22.08515
                   0.00000   0.00000   0.00000   0.00000   0.00000   0.00000
                  --------  --------  --------  --------  --------  --------
 0 C  s               1.7      15.0       0.8       0.0       0.2       0.0
 1 C  s               0.0       0.0       7.4       3.3      67.2       0.0
 6 C  s               0.1       5.7       0.9       1.2      18.2       1.1
 7 C  s               3.9      71.3       0.3       0.7       1.3       0.4
 8 S  s               0.0       0.0       0.1       0.0       0.0       0.0
 9 C  s               0.2       0.4      78.5       4.4       9.0       5.0
10 S  s               0.0       0.0       0.1       0.0       0.0       0.0
14 C  s               0.2       0.0       1.6      69.1       3.5      24.1
15 C  s              58.6       4.3       0.1       0.3       0.0       0.7
17 C  s               0.2       1.4       9.2      20.5       0.1      67.9
18 C  s              34.9       1.5       0.6       0.0       0.0       0.3

                    534       535       536       537       538   
                  22.09092  43.79070  43.81237  43.81768  43.87628
                   0.00000   0.00000   0.00000   0.00000   0.00000
                  --------  --------  --------  --------  --------
 0 C  s               0.4       0.0       0.0       0.0       0.0
 1 C  s              21.3       0.0       0.0       0.0       0.0
 2 O  s               0.0      37.6      40.4      18.6       3.2
 5 O  s               0.0      52.7      47.2       0.0       0.0
 6 C  s              69.9       0.0       0.0       0.0       0.0
 7 C  s               7.2       0.0       0.0       0.0       0.0
 9 C  s               0.3       0.0       0.0       0.0       0.0
13 O  s               0.0       9.6      12.2      69.4       8.7
14 C  s               0.4       0.0       0.0       0.0       0.0
16 O  s               0.0       0.0       0.1      11.9      87.9


                      *****************************
                      * MAYER POPULATION ANALYSIS *
                      *****************************

  NA   - Mulliken gross atomic population
  ZA   - Total nuclear charge
  QA   - Mulliken gross atomic charge
  VA   - Mayer's total valence
  BVA  - Mayer's bonded valence
  FA   - Mayer's free valence

  ATOM       NA         ZA         QA         VA         BVA        FA
  0 C      6.4347     6.0000    -0.4347     3.7855     3.7855    -0.0000
  1 C      6.1560     6.0000    -0.1560     3.6979     3.6979     0.0000
  2 O      8.2925     8.0000    -0.2925     1.8749     1.8749     0.0000
  3 P     14.3364    15.0000     0.6636     5.2084     5.2084     0.0000
  4 S     16.4782    16.0000    -0.4782     2.0318     2.0318    -0.0000
  5 O      8.2781     8.0000    -0.2781     1.8075     1.8075    -0.0000
  6 C      6.1532     6.0000    -0.1532     3.7008     3.7008     0.0000
  7 C      6.4409     6.0000    -0.4409     3.7863     3.7863    -0.0000
  8 S     16.1026    16.0000    -0.1026     2.2018     2.2018    -0.0000
  9 C      6.2454     6.0000    -0.2454     3.7148     3.7148     0.0000
 10 S     16.1038    16.0000    -0.1038     2.2155     2.2155    -0.0000
 11 P     14.3139    15.0000     0.6861     5.1684     5.1684    -0.0000
 12 S     16.4868    16.0000    -0.4868     2.0281     2.0281     0.0000
 13 O      8.3060     8.0000    -0.3060     1.8144     1.8144     0.0000
 14 C      6.1508     6.0000    -0.1508     3.7009     3.7009    -0.0000
 15 C      6.4529     6.0000    -0.4529     3.7657     3.7657    -0.0000
 16 O      8.2763     8.0000    -0.2763     1.8229     1.8229    -0.0000
 17 C      6.1499     6.0000    -0.1499     3.6497     3.6497    -0.0000
 18 C      6.4428     6.0000    -0.4428     3.7880     3.7880    -0.0000
 19 H      0.8353     1.0000     0.1647     0.9612     0.9612    -0.0000
 20 H      0.8434     1.0000     0.1566     0.9617     0.9617     0.0000
 21 H      0.8531     1.0000     0.1469     0.9637     0.9637    -0.0000
 22 H      0.8500     1.0000     0.1500     0.9503     0.9503     0.0000
 23 H      0.8302     1.0000     0.1698     0.9534     0.9534    -0.0000
 24 H      0.8540     1.0000     0.1460     0.9503     0.9503     0.0000
 25 H      0.8308     1.0000     0.1692     0.9551     0.9551     0.0000
 26 H      0.8552     1.0000     0.1448     0.9648     0.9648    -0.0000
 27 H      0.8150     1.0000     0.1850     0.9574     0.9574    -0.0000
 28 H      0.8538     1.0000     0.1462     0.9609     0.9609    -0.0000
 29 H      0.7823     1.0000     0.2177     0.9468     0.9468     0.0000
 30 H      0.7938     1.0000     0.2062     0.9531     0.9531     0.0000
 31 H      0.8290     1.0000     0.1710     0.9528     0.9528     0.0000
 32 H      0.8513     1.0000     0.1487     0.9494     0.9494     0.0000
 33 H      0.8517     1.0000     0.1483     0.9641     0.9641    -0.0000
 34 H      0.8427     1.0000     0.1573     0.9594     0.9594    -0.0000
 35 H      0.8223     1.0000     0.1777     0.9567     0.9567    -0.0000
 36 H      0.8265     1.0000     0.1735     0.9551     0.9551     0.0000
 37 H      0.8496     1.0000     0.1504     0.9519     0.9519    -0.0000
 38 H      0.8327     1.0000     0.1673     0.9608     0.9608     0.0000
 39 H      0.8527     1.0000     0.1473     0.9637     0.9637     0.0000
 40 H      0.8432     1.0000     0.1568     0.9611     0.9611    -0.0000

  Mayer bond orders larger than 0.100000
B(  0-C ,  1-C ) :   0.9281 B(  0-C , 19-H ) :   0.9603 B(  0-C , 20-H ) :   0.9706 
B(  0-C , 21-H ) :   0.9616 B(  1-C ,  2-O ) :   0.8134 B(  1-C , 22-H ) :   0.9608 
B(  1-C , 23-H ) :   0.9663 B(  2-O ,  3-P ) :   1.1838 B(  3-P ,  4-S ) :   1.7345 
B(  3-P ,  5-O ) :   1.0691 B(  3-P ,  8-S ) :   1.0931 B(  5-O ,  6-C ) :   0.7965 
B(  6-C ,  7-C ) :   0.9403 B(  6-C , 24-H ) :   0.9614 B(  6-C , 25-H ) :   0.9613 
B(  7-C , 26-H ) :   0.9618 B(  7-C , 27-H ) :   0.9502 B(  7-C , 28-H ) :   0.9692 
B(  8-S ,  9-C ) :   0.8987 B(  9-C , 10-S ) :   0.9166 B(  9-C , 29-H ) :   0.9065 
B(  9-C , 30-H ) :   0.9055 B( 10-S , 11-P ) :   1.0962 B( 11-P , 12-S ) :   1.7449 
B( 11-P , 13-O ) :   1.0639 B( 11-P , 16-O ) :   1.1402 B( 13-O , 14-C ) :   0.8135 
B( 14-C , 15-C ) :   0.9229 B( 14-C , 31-H ) :   0.9664 B( 14-C , 32-H ) :   0.9583 
B( 15-C , 33-H ) :   0.9584 B( 15-C , 34-H ) :   0.9684 B( 15-C , 35-H ) :   0.9617 
B( 16-O , 17-C ) :   0.7902 B( 17-C , 18-C ) :   0.9213 B( 17-C , 36-H ) :   0.9631 
B( 17-C , 37-H ) :   0.9627 B( 18-C , 38-H ) :   0.9600 B( 18-C , 39-H ) :   0.9619 
B( 18-C , 40-H ) :   0.9724 

-------
TIMINGS
-------

Total SCF time: 0 days 0 hours 1 min 12 sec 

Total time                  ....      72.823 sec
Sum of individual times     ....      72.254 sec  ( 99.2%)

SCF preparation             ....       0.382 sec  (  0.5%)
Fock matrix formation       ....      68.667 sec  ( 94.3%)
  Startup                   ....       0.160 sec  (  0.2% of F)
  Split-RI-J                ....      22.914 sec  ( 33.4% of F)
  XC integration            ....      44.115 sec  ( 64.2% of F)
    XC Preparation          ....       0.000 sec  (  0.0% of XC)
    Basis function eval.    ....       6.935 sec  ( 15.7% of XC)
    Density eval.           ....      16.177 sec  ( 36.7% of XC)
    XC-Functional eval.     ....       3.199 sec  (  7.3% of XC)
    XC-Potential eval.      ....      16.509 sec  ( 37.4% of XC)
Diagonalization             ....       0.000 sec  (  0.0%)
Density matrix formation    ....       0.824 sec  (  1.1%)
Total Energy calculation    ....       0.059 sec  (  0.1%)
Population analysis         ....       0.439 sec  (  0.6%)
Orbital Transformation      ....       0.249 sec  (  0.3%)
Orbital Orthonormalization  ....       0.000 sec  (  0.0%)
DIIS solution               ....       1.417 sec  (  1.9%)
  MO trafo                  ....       0.000 sec  (  0.0 % of DIIS)
  Orb grad                  ....       0.000 sec  (  0.0 % of DIIS)
  Energy W gradient         ....       0.000 sec  (  0.0 % of DIIS)
  DIIS error                ....       0.117 sec  (  8.3 % of DIIS)
  DIIS work                 ....       1.141 sec  ( 80.5 % of DIIS)
  Form Q                    ....       0.000 sec  (  0.0 % of DIIS)
  Form QpQm                 ....       0.000 sec  (  0.0 % of DIIS)
  Exp/Cayley                ....       0.000 sec  (  0.0 % of DIIS)
  Orb update                ....       0.000 sec  (  0.0 % of DIIS)
  Wake-sleep                ....       0.030 sec  (  2.1 % of DIIS)
SOSCF solution              ....       0.216 sec  (  0.3%)
  MO trafo                  ....       0.166 sec  ( 76.5 % of SOSCF)
  Orb grad                  ....       0.003 sec  (  1.6 % of SOSCF)
  Rot update                ....       0.000 sec  (  0.1 % of SOSCF)
  Step                      ....       0.047 sec  ( 21.8 % of SOSCF)
Finished LeanSCF after  72.9 sec

Maximum memory used throughout the entire LEANSCF-calculation: 71.6 MB


-------------------------------------------------------------------------------
                          DFT DISPERSION CORRECTION                            
                                                                               
                                DFTD4 V3.4.0                                   
-------------------------------------------------------------------------------
The R2SCAN3C composite method is recognized
Using three-body term ABC
Active option DFTDOPT                   ...         5   

-------------------------   ----------------
Dispersion correction           -0.021321694
-------------------------   ----------------

------------------   -----------------
gCP correction             0.046485603
------------------   -----------------

-------------------------   --------------------
FINAL SINGLE POINT ENERGY     -2932.464781889221
-------------------------   --------------------


------------------------------------------------------------------------------
                              ORCA PROPERTY CALCULATIONS
------------------------------------------------------------------------------

GBWName                                 ... sp_gas.gbw
Number of atoms                         ...     41
Number of basis functions               ...    539
Max core memory                         ...   1024 MB

Electric properties:
Dipole moment                           ... YES
Quadrupole moment                       ...  NO
Static polarizability (Dipole/Dipole)   ...  NO
Static polarizability (Dipole/Quad.)    ...  NO
Static polarizability (Quad./Quad.)     ...  NO
Static polarizability (Velocity)        ...  NO

Atomic electric properties:
Dipole moment                           ...  NO
Quadrupole moment                       ...  NO
Static polarizability                   ...  NO

Choice of electric origin               ... Center of mass
Position of electric origin             ...    -0.000003     0.000001     0.000003

General magnetic properties:
Magnetizability                         ...  NO

EPR properties:
g-Tensor (aka g-matrix)                 ...  NO
Zero-Field splitting spin-orbit         ...  NO
Zero-field splitting spin-spin          ...  NO
Hyperfine couplings                     ...  NO (   0 nuclei)
Quadrupole couplings                    ...  NO (   0 nuclei)
Contact density                         ...  NO (   0 nuclei)

NMR properties:
Chemical shifts                         ...  NO (   0 nuclei)
Spin-rotation constants                 ...  NO (   0 nuclei)
Spin-spin couplings                     ...  NO (   0 nuclei,    0 pairs)

Choice of magnetic origin               ... GIAO
Position of magnetic origin             ...     0.000000     0.000000     0.000000

Properties with geometric perturbations:
SCF Hessian                             ...  NO
IR spectrum                             ...  NO
VCD spectrum                            ...  NO
X-ray spectroscopy properties:
SCF XES/XAS/RIXS spectra                ...  NO


-------------
DIPOLE MOMENT
-------------

Method             : SCF
Type of density    : Electron Density
Multiplicity       :   1
Irrep              :   0
Energy             : -2932.4899457978672217 Eh
Relativity type    : 
Basis              : AO
                                X                 Y                 Z
Electronic contribution:      2.412897316       6.003607587      -9.677337053
Nuclear contribution   :     -2.471726165      -6.613044175      10.469713222
                        -----------------------------------------
Total Dipole Moment    :     -0.058828849      -0.609436588       0.792376169
                        -----------------------------------------
Magnitude (a.u.)       :      1.001365958
Magnitude (Debye)      :      2.545269990



--------------------
Rotational spectrum 
--------------------
 
Rotational constants in cm-1:             0.014558             0.004277             0.004055 
Rotational constants in MHz :           436.449852           128.221538           121.575751 

Dipole components along the rotational axes: 
x,y,z [a.u.] :     0.020164     0.783921    -0.622732 
x,y,z [Debye]:     0.051253     1.992568    -1.582860 

 

Dipole moment calculation done in   0.1 sec 

Maximum memory used throughout the entire PROP-calculation: 50.2 MB

--------------------------------
SUGGESTED CITATIONS FOR THIS RUN
--------------------------------

Below you find a list of papers that are relevant to this ORCA run
We neither can nor want to force you to cite these papers, but we appreciate if you do
You receive ORCA, which is the product of decades of hard work by many enthusiastic individuals, for free
The only thing we kindly ask in return is that you cite our papers,
We deeply appreciate it, if you show your appreciation for ORCA by not just citing the generic ORCA reference.

Please note that relegating all ORCA citations to the supporting information does *not* help us.
SI sections are not indexed - citations you put there will not count into any citation statistics
But we need these citations in order to attract the funding resources that allow us to do what we are doing

Therefore, if you are a happy ORCA user, please consider citing a few of the papers listed below in the main body of your paper

In addition to the list printed below, the program has created the file sp_gas.bibtex that contains the list in bibtex format
You can import this file easily into all common literature databanks and citation aid programs


List of essential papers. We consider these as the minimum necessary citations

  1. Neese,F.
     Software update: the ORCA program system, version 5.0
     WIRES Comput. Molec. Sci., 2022 12(1)e1606
     doi.org/10.1002/wcms.1606
  2. Grimme,S.; Hansen,A.; Ehlert,S.; Mewes,J.
     r2SCAN-3c: A 'Swiss army knife' composite electronic-structure method
     J. Chem. Phys., 2021 154 064103
     doi.org/10.1063/5.0040021

List of papers to cite with high priority. The work reported in these papers was absolutely
necessary for this run to complete.
Our perspective: the developers of density functionals and basis sets usually get cited in chemistry papers
Good! But without the algorithms to do something with them, the functionals or basis sets would not do anything.
Hence, in our opinion, the algorithm design and method developments papers are equally worthy of getting cited

  1. Neese,F.
     An improvement of the resolution of the identity approximation for the formation of the Coulomb matrix
     J. Comp. Chem., 2003 24(14)1740-1747
     doi.org/10.1002/jcc.10318
  2. Neese,F.
     The SHARK Integral Generation and Digestion System
     J. Comp. Chem., 2022  1-16
     doi.org/10.1002/jcc.26942
  3. Lehtola,S.; Steigemann,C.; Oliveira,M.; Marques,M.
     Recent developments in Libxc - A comprehensive library of functionals for density functional theory
     Software X, 2018 7 
     doi.org/10.1016/j.softx.2017.11.002
  4. Caldeweyher,E.; Bannwarth,C.; Grimme,S.
     Extension of the D3 dispersion coefficient model
     J. Chem. Phys., 2017 147 034112-XXXX
     doi.org/10.1063/1.4993215
  5. Caldeweyher,E.; Ehlert,S.; Hansen,A.; Neugebauer,H.; Spicher,S.; Bannwarth,C.; Grimme,S.
     A generally applicable atomic-charge dependent London dispersion correction
     J. Chem. Phys., 2019 150 154122-XXXX
     doi.org/10.1063/1.5090222
  6. Caldeweyher,E.; Mewes,J.; Ehlert,S.; Grimme,S.
     Extension and evaluation of the D4 London-dispersion model for periodic systems
     Phys. Chem. Chem. Phys., 2020 22(16)8499-8512
     doi.org/10.1039/D0CP00502A

List of suggested additional citations. These are papers that are important in the 'surrounding' of 
of this run, or papers that preceded the highly important papers. If you like your results we are grateful for a citation.

  1. Neese,F.
     The ORCA program system
     WIRES Comput. Molec. Sci., 2012 2(1)73-78
     doi.org/10.1002/wcms.81
  2. Neese,F.
     Software update: the ORCA program system, version 4.0
     WIRES Comput. Molec. Sci., 2018 8(1)1-6
     doi.org/10.1002/wcms.1327
  3. Neese,F.; Wennmohs,F.; Becker,U.; Riplinger,C.
     The ORCA quantum chemistry program package
     J. Chem. Phys., 2020 152 Art. No. L224108
     doi.org/10.1063/5.0004608

List of optional additional citations

  1. Neese,F.
     Approximate second-order SCF convergence for spin unrestricted wavefunctions
     Chem. Phys. Lett., 2000 325(1-3)93-98
     doi.org/10.1016/s0009-2614(00)00662-x

Timings for individual modules:

Sum of individual times          ...       76.852 sec (=   1.281 min)
Startup calculation              ...        3.004 sec (=   0.050 min)   3.9 %
SCF iterations                   ...       73.577 sec (=   1.226 min)  95.7 %
Property calculations            ...        0.272 sec (=   0.005 min)   0.4 %
                             ****ORCA TERMINATED NORMALLY****
TOTAL RUN TIME: 0 days 0 hours 1 minutes 17 seconds 583 msec
