41
 energy: -2932.485696731976 gnorm: 0.002110506811 xtb: 6.7.1 (edcfbbe)
C            5.51556203374997       -1.98306133343582       -1.21448080628733
C            4.49972490169294       -0.88160220934526       -1.36978976273925
O            3.60151513679269       -0.95441351469072       -0.20832149807912
P            2.53733797573550        0.21342107531714        0.09925661378266
S            3.17011935611687        2.05022050175764        0.16933424692542
O            1.95208330895119       -0.25558001337772        1.51347613097127
C            1.47438937161449       -1.63054039818565        1.75859026127084
C            2.50470984074389       -2.39971710857832        2.54641634912148
S            1.08883504899161       -0.20111499278735       -1.40415889196274
C            0.12208675403066        1.35837827551397       -1.39573751557161
S           -0.87209308287432        1.72897609078979        0.10216239882295
P           -2.35738013850342        0.22573140616176       -0.03265288065124
S           -3.03446159348960       -0.17893880032706       -1.81361189086489
O           -3.41811655081913        0.74494885967718        1.06451450057236
C           -4.63224523787572        1.49590077373952        0.71381027274305
C           -4.34012123863819        2.95181517623566        0.45032510758148
O           -1.65277173486724       -0.97902095698585        0.76450191217242
C           -2.13028113724314       -2.36528269461273        0.64803808527182
C           -3.44479845435944       -2.57183329248441        1.36006913548687
H            6.09900380507075       -1.85117745155093       -0.29842905162116
H            5.03192886032776       -2.96419687408264       -1.19447862158575
H            6.19955332861114       -1.95264697683592       -2.06799844412837
H            3.89906466574486       -1.00738824559771       -2.27690435810294
H            4.96944248988748        0.10745637358421       -1.38001396402802
H            0.54818262821539       -1.50183926107042        2.32219796447963
H            1.24001678835984       -2.11182257424353        0.80355904172434
H            2.73287753766193       -1.89247206880248        3.48835805727637
H            2.09830677599250       -3.38937264273529        2.77971994560948
H            3.42825264388584       -2.53067653235905        1.97692586087994
H           -0.53965971724350        1.29975022342371       -2.26524565928402
H            0.80323717357707        2.20704922489191       -1.51030646136134
H           -5.10166355890902        1.00802040903258       -0.14572628974123
H           -5.27174341158642        1.36615443891545        1.58925262344968
H           -3.82430818903074        3.40885613507511        1.29945505897435
H           -3.73367937541808        3.08581919435823       -0.44933617582036
H           -5.28989709916434        3.47493019933091        0.30219968420499
H           -2.19350889418079       -2.61783153933215       -0.41527631087117
H           -1.32793755813552       -2.94904762973054        1.10444621375926
H           -4.25624021656325       -2.01544167562426        0.88120733461899
H           -3.69752814315448       -3.63675953168908        1.32561157752230
H           -3.37441010177625       -2.26771894972466        2.40850074108229
41
 energy: -2932.485702453553 gnorm: 0.001183886840 xtb: 6.7.1 (edcfbbe)
C            5.51612970237981       -1.98328076327527       -1.21503607239417
C            4.50120352750051       -0.88125292745831       -1.36965660348546
O            3.60258357445817       -0.95428691103790       -0.20831576882028
P            2.53754869023165        0.21279848839269        0.09876552125154
S            3.16841866961084        2.04953583227925        0.16944796739022
O            1.95271069436349       -0.25571242929113        1.51323776421509
C            1.47489224732172       -1.63087251432543        1.75830793054915
C            2.50476796753713       -2.40077452961633        2.54587145756621
S            1.08742282452122       -0.20045844173476       -1.40228257091041
C            0.12355827435423        1.36022944982452       -1.39729815927121
S           -0.87352689883951        1.72928046405142        0.09847757021236
P           -2.35880388235270        0.22460199844064       -0.02982661954286
S           -3.03217670871127       -0.17435575625016       -1.81343689500385
O           -3.41966138689520        0.74456517560263        1.06619964446534
C           -4.63296080595270        1.49597255365278        0.71423141980578
C           -4.34099170456756        2.95180890572926        0.44987111284225
O           -1.65321730934670       -0.97973581833695        0.76658133149945
C           -2.13067635728599       -2.36576697093632        0.64920595978218
C           -3.44535216752130       -2.57232957369676        1.36073830049672
H            6.09904449471929       -1.85100963242316       -0.29925156103815
H            5.03113831364125       -2.96332391675568       -1.19380141537359
H            6.20036748840552       -1.95457311616348       -2.06848121159945
H            3.90063531486449       -1.00572385999971       -2.27633769956355
H            4.97139465959869        0.10711344073872       -1.37883894614681
H            0.54889780530899       -1.50196016099804        2.32207373218880
H            1.24038724128449       -2.11125608876550        0.80317939725167
H            2.73275939070196       -1.89354932022063        3.48766436781937
H            2.09818496773173       -3.39040709790198        2.77914792552324
H            3.42818997553219       -2.53159268890996        1.97624967513450
H           -0.53753600407988        1.29956435613203       -2.26699567427728
H            0.80444863932663        2.20873352510794       -1.51232831930669
H           -5.10162198406986        1.00825801564526       -0.14570496566138
H           -5.27317580452087        1.36697586497256        1.58920724839971
H           -3.82421387906634        3.40870393906230        1.29881876601777
H           -3.73544988165847        3.08535411032112       -0.45083686657852
H           -5.29122436271632        3.47517430777258        0.30236203452590
H           -2.19354066995341       -2.61745776791433       -0.41414440258945
H           -1.32827993520214       -2.94918643919717        1.10603852982970
H           -4.25680695536796       -2.01666095899476        0.88101520097073
H           -3.69689755924646       -3.63744491498288        1.32637323636257
H           -3.37520942095861       -2.26777884243315        2.40893652993544
41
 energy: -2932.485707018505 gnorm: 0.000892618896 xtb: 6.7.1 (edcfbbe)
C            5.51598270360792       -1.98334805772992       -1.21535868145617
C            4.50248968709071       -0.88014638847841       -1.36971757876660
O            3.60295495766390       -0.95356302317657       -0.20877309263098
P            2.53749680250378        0.21293534494886        0.09870105964848
S            3.16821128168009        2.04958270077078        0.16939802949782
O            1.95364398737779       -0.25596798034941        1.51346367202145
C            1.47540458705273       -1.63139847000889        1.75782988838965
C            2.50499829815642       -2.40216306984872        2.54483431437797
S            1.08652090487700       -0.20098888599602       -1.40128278078111
C            0.12171775109347        1.35876220698058       -1.39428632269026
S           -0.87298197333068        1.73113052182320        0.10218564824858
P           -2.35787630071589        0.22521095352163       -0.03107473722231
S           -3.03472163497606       -0.17667155189582       -1.81279341659407
O           -3.41809731412567        0.74568196379473        1.06456720421003
C           -4.63224273331521        1.49600455054442        0.71322217075411
C           -4.34157209876301        2.95206975543930        0.44856073811166
O           -1.65243418487893       -0.97854286027566        0.76575992212621
C           -2.13077696221286       -2.36460096910151        0.64975219060856
C           -3.44542138448408       -2.57171503104446        1.36119012492110
H            6.09884113908945       -1.85107170152136       -0.29991857561414
H            5.02941493042769       -2.96230151995392       -1.19297927892104
H            6.20036170265039       -1.95660758032123       -2.06879751451817
H            3.90227327862355       -1.00266087150693       -2.27637815133810
H            4.97374345197891        0.10737582786269       -1.37707436954932
H            0.54971098505025       -1.50234984954375        2.32195139370202
H            1.24055913687344       -2.11072055651374        0.80249102876645
H            2.73299900739960       -1.89530427997128        3.48667601601435
H            2.09807577887544       -3.39174573475698        2.77785131256537
H            3.42828255294458       -2.53295332906963        1.97505771680790
H           -0.53900692911926        1.29755599989029       -2.26424752780087
H            0.80236884572071        2.20715203557166       -1.51071530064146
H           -5.10076851304879        1.00814556761887       -0.14659278633522
H           -5.27213759524000        1.36700229825135        1.58843342157729
H           -3.82340503990844        3.40897010556924        1.29688761864581
H           -3.73796469104255        3.08590701647285       -0.45363134253876
H           -5.29273070807767        3.47494031588731        0.30295031701906
H           -2.19347663426293       -2.61685080220580       -0.41330277983355
H           -1.32852910864568       -2.94773432754970        1.10728307370657
H           -4.25740503244456       -2.01760595743000        0.88056556831550
H           -3.69542601690558       -3.63718530838176        1.32756824272145
H           -3.37573985762690       -2.26633804842167        2.40907005990230
41
 energy: -2932.485707018505 gnorm: 0.000892618896 xtb: 6.7.1 (edcfbbe)
C            5.51598270360792       -1.98334805772992       -1.21535868145617
C            4.50248968709071       -0.88014638847841       -1.36971757876660
O            3.60295495766390       -0.95356302317657       -0.20877309263098
P            2.53749680250378        0.21293534494886        0.09870105964848
S            3.16821128168009        2.04958270077078        0.16939802949782
O            1.95364398737779       -0.25596798034941        1.51346367202145
C            1.47540458705273       -1.63139847000889        1.75782988838965
C            2.50499829815642       -2.40216306984872        2.54483431437797
S            1.08652090487700       -0.20098888599602       -1.40128278078111
C            0.12171775109347        1.35876220698058       -1.39428632269026
S           -0.87298197333068        1.73113052182320        0.10218564824858
P           -2.35787630071589        0.22521095352163       -0.03107473722231
S           -3.03472163497606       -0.17667155189582       -1.81279341659407
O           -3.41809731412567        0.74568196379473        1.06456720421003
C           -4.63224273331521        1.49600455054442        0.71322217075411
C           -4.34157209876301        2.95206975543930        0.44856073811166
O           -1.65243418487893       -0.97854286027566        0.76575992212621
C           -2.13077696221286       -2.36460096910151        0.64975219060856
C           -3.44542138448408       -2.57171503104446        1.36119012492110
H            6.09884113908945       -1.85107170152136       -0.29991857561414
H            5.02941493042769       -2.96230151995392       -1.19297927892104
H            6.20036170265039       -1.95660758032123       -2.06879751451817
H            3.90227327862355       -1.00266087150693       -2.27637815133810
H            4.97374345197891        0.10737582786269       -1.37707436954932
H            0.54971098505025       -1.50234984954375        2.32195139370202
H            1.24055913687344       -2.11072055651374        0.80249102876645
H            2.73299900739960       -1.89530427997128        3.48667601601435
H            2.09807577887544       -3.39174573475698        2.77785131256537
H            3.42828255294458       -2.53295332906963        1.97505771680790
H           -0.53900692911926        1.29755599989029       -2.26424752780087
H            0.80236884572071        2.20715203557166       -1.51071530064146
H           -5.10076851304879        1.00814556761887       -0.14659278633522
H           -5.27213759524000        1.36700229825135        1.58843342157729
H           -3.82340503990844        3.40897010556924        1.29688761864581
H           -3.73796469104255        3.08590701647285       -0.45363134253876
H           -5.29273070807767        3.47494031588731        0.30295031701906
H           -2.19347663426293       -2.61685080220580       -0.41330277983355
H           -1.32852910864568       -2.94773432754970        1.10728307370657
H           -4.25740503244456       -2.01760595743000        0.88056556831550
H           -3.69542601690558       -3.63718530838176        1.32756824272145
H           -3.37573985762690       -2.26633804842167        2.40907005990230
