21
 energy: -350.082829342436 gnorm: 0.020622240187 xtb: 6.7.1 (edcfbbe)
C           -3.06026588495608       -0.38120108766892       -0.00178716960079
C           -1.59723384370778       -0.05445838472413        0.00260271490115
C           -1.16855415511782        1.26898540126232        0.00061753520027
C            0.17839002967905        1.55868524449069       -0.00098631060044
C            1.15045072450980        0.55865584304756       -0.00092994460041
C            0.73266903132467       -0.77083977544158       -0.00050256230022
C           -0.63415312008101       -1.04669834536382        0.00139492640062
C            1.65846481893491       -1.95495839696629       -0.00046104020020
C            2.58537768334565        1.00563974994563        0.00095320070042
H           -3.51365278045699       -0.06134492992718       -0.93933293021624
H           -3.21995765472685       -1.44999457324253        0.11315007075014
H           -3.56816129868115        0.13951074086182        0.80815654675812
H           -1.89518874433981        2.06889371801678        0.00111233400049
H            0.49940220062130        2.59124346564825       -0.00166728220074
H           -0.94651774091943       -2.08247406022280        0.00275095030122
H            1.45878961444643       -2.57650064804172       -0.87217389388648
H            2.70539969179883       -1.67462400464207       -0.01577454350699
H            1.48004982955585       -2.55987830813435        0.88746226509326
H            3.28687966325650        0.17934692957947       -0.00778643710345
H            2.77793862473098        1.62623170122063       -0.87318141798693
H            2.78040007673207        1.60914955051306        0.88654307749285
21
 energy: -350.083789116198 gnorm: 0.006208639064 xtb: 6.7.1 (edcfbbe)
C           -3.07328867212470       -0.38251212302147       -0.00264997683694
C           -1.60780077829164       -0.05350897794148        0.00381516043369
C           -1.17605169496723        1.27617612692891        0.00158879119181
C            0.17672536476472        1.56719158702025       -0.00151432517945
C            1.15549404197775        0.56352972067374       -0.00175120835912
C            0.73483908173265       -0.77258945877165       -0.00109005717169
C           -0.63978522657957       -1.04872504386772        0.00209593279327
C            1.66627954902720       -1.95711995355566       -0.00039559050430
C            2.59573769012276        1.00574184705646        0.00073696370499
H           -3.53708387693804       -0.06376506860780       -0.94114169113392
H           -3.23643371928233       -1.45557461261126        0.11195026760655
H           -3.59150753267068        0.13672549312378        0.80813876240367
H           -1.90567836023373        2.08011504562415        0.00253647828406
H            0.49898630149194        2.60450226675879       -0.00153067924163
H           -0.95460091976766       -2.08915017060845        0.00412777362330
H            1.47025930182522       -2.58877166325556       -0.87145025381961
H            2.71876786248654       -1.68191045017511       -0.01642909517106
H            1.49262161248343       -2.57117575318269        0.88793216522763
H            3.30310886353029        0.17909801588461       -0.00814655334662
H            2.79876273656500        1.63132777724263       -0.87316947503059
H            2.80117534393393        1.61376526998369        0.88650677794901
21
 energy: -350.083883207986 gnorm: 0.000803557018 xtb: 6.7.1 (edcfbbe)
C           -3.07930871186302       -0.38317889825751       -0.00316681455634
C           -1.61281685573583       -0.05288294664300        0.00368647150613
C           -1.17882627761673        1.27902671895679        0.00204627831219
C            0.17584727450328        1.57046694984057       -0.00112599204879
C            1.15770406556974        0.56583330797173       -0.00173830310018
C            0.73546361629955       -0.77294596079697       -0.00068098771510
C           -0.64245526333086       -1.04881792635767        0.00242501584943
C            1.66973781381288       -1.95655270895984       -0.00017454402851
C            2.60001863343404        1.00474203578161        0.00034345120093
H           -3.54853118528065       -0.06544523911753       -0.94140976837895
H           -3.24431755514130       -1.45763229529574        0.11073826911443
H           -3.60356176379080        0.13404080060107        0.80747137025662
H           -1.90882818466042        2.08475485111200        0.00352201512285
H            0.49793735254432        2.60949824630858       -0.00134437641511
H           -0.95833684078718       -2.09057796522668        0.00478482084810
H            1.47705829567323       -2.59343801202006       -0.87046050023751
H            2.72328317519316       -1.67995207089946       -0.01730154752769
H            1.50094065011939       -2.57467016411461        0.88853316013806
H            3.30659437609988        0.17557244208421       -0.00900809869182
H            2.81010961622192        1.63193254709795       -0.87307956596252
H            2.81281480263901        1.61359592078769        0.88609994231393
21
 energy: -350.083885137133 gnorm: 0.000271722310 xtb: 6.7.1 (edcfbbe)
C           -3.07995517313427       -0.38337508957999       -0.00353899161977
C           -1.61361992859135       -0.05270339253985        0.00382675230669
C           -1.17899178688401        1.27923598010063        0.00229793128541
C            0.17562891315015        1.57055896540312       -0.00087103294753
C            1.15792334164040        0.56619076733672       -0.00166280328494
C            0.73530339520800       -0.77278406739342       -0.00056367922198
C           -0.64282017473161       -1.04839426827096        0.00261453485038
C            1.66991114180042       -1.95575322284087        0.00010982810088
C            2.60025826211499        1.00400746415476        0.00008705232972
H           -3.54966313237113       -0.06549584638828       -0.94155477425637
H           -3.24477864275276       -1.45793339526633        0.10962855441813
H           -3.60513556739037        0.13281197837582        0.80720969732228
H           -1.90847536109049        2.08537243419356        0.00386825774318
H            0.49709073717140        2.60970602341253       -0.00085926732676
H           -0.95881721083923       -2.09000158654373        0.00488446201319
H            1.47787464509027       -2.59362589128776       -0.86952843271198
H            2.72296333293829       -1.67792243026741       -0.01821310075301
H            1.50342500450443       -2.57350345149130        0.88947154717102
H            3.30567253328663        0.17401024055238       -0.00993721484967
H            2.81165244634241        1.63104948559282       -0.87310620921904
H            2.81508026830364        1.61191881998488        0.88599707161875
21
 energy: -350.083885137133 gnorm: 0.000271722310 xtb: 6.7.1 (edcfbbe)
C           -3.07995517313427       -0.38337508957999       -0.00353899161977
C           -1.61361992859135       -0.05270339253985        0.00382675230669
C           -1.17899178688401        1.27923598010063        0.00229793128541
C            0.17562891315015        1.57055896540312       -0.00087103294753
C            1.15792334164040        0.56619076733672       -0.00166280328494
C            0.73530339520800       -0.77278406739342       -0.00056367922198
C           -0.64282017473161       -1.04839426827096        0.00261453485038
C            1.66991114180042       -1.95575322284087        0.00010982810088
C            2.60025826211499        1.00400746415476        0.00008705232972
H           -3.54966313237113       -0.06549584638828       -0.94155477425637
H           -3.24477864275276       -1.45793339526633        0.10962855441813
H           -3.60513556739037        0.13281197837582        0.80720969732228
H           -1.90847536109049        2.08537243419356        0.00386825774318
H            0.49709073717140        2.60970602341253       -0.00085926732676
H           -0.95881721083923       -2.09000158654373        0.00488446201319
H            1.47787464509027       -2.59362589128776       -0.86952843271198
H            2.72296333293829       -1.67792243026741       -0.01821310075301
H            1.50342500450443       -2.57350345149130        0.88947154717102
H            3.30567253328663        0.17401024055238       -0.00993721484967
H            2.81165244634241        1.63104948559282       -0.87310620921904
H            2.81508026830364        1.61191881998488        0.88599707161875
