18
 energy: -25.475024735034 gnorm: 0.018127992450 xtb: 6.7.1 (edcfbbe)
C           -2.42616003601157       -0.70652591541729       -0.00008700750414
C           -2.42618050410812        0.70644887203197        0.00004644818924
C           -1.24010685240576        1.40180971908774        0.00009526340983
C           -0.00001968596939        0.71605065461560        0.00002882516042
C            1.24005346000932        1.40184321139693       -0.00007929662661
C            2.42614142178563        0.70651257996904       -0.00011447811903
C            2.42615939951784       -0.70646647782370        0.00002402145036
C            1.24008835637664       -1.40182151636000        0.00009866391668
C            0.00000019001779       -0.71605894269319        0.00003748929532
C           -1.24006668068492       -1.40185108783288       -0.00005563002585
H           -3.37058329128602       -1.24179316710902       -0.00019707350624
H           -3.37062054927519        1.24168806382843        0.00009076392121
H           -1.23573159567835        2.48834720931000        0.00017553856482
H            1.23564807788794        2.48838075450847       -0.00016275059305
H            3.37057222596077        1.24176848933827       -0.00024498250188
H            3.37060643399272       -1.24169269652247        0.00007394135420
H            1.23569638733481       -2.48835761113670        0.00018771806962
H           -1.23566092019656       -2.48838681288029       -0.00012411521183
18
 energy: -25.475907087130 gnorm: 0.003102315988 xtb: 6.7.1 (edcfbbe)
C           -2.41628160284874       -0.70247208551914       -0.00005747724359
C           -2.41630060385436        0.70239680503968        0.00002982688338
C           -1.23577639660429        1.39336008074283        0.00006156413384
C           -0.00001899439108        0.71130279608942        0.00001306880122
C            1.23572295575380        1.39339303571308       -0.00006575418462
C            2.41626255219796        0.70246017547384       -0.00008899650277
C            2.41628115006148       -0.70241172015960        0.00001444761877
C            1.23575877103796       -1.39337229574543        0.00006423485942
C            0.00000020186842       -0.71131231203212        0.00002018891600
C           -1.23573845230237       -1.39340265528174       -0.00003853242025
H           -3.35784452286647       -1.23359424186059       -0.00013923946671
H           -3.35787847182905        1.23349290883118        0.00006753448922
H           -1.23171244206443        2.47506533514885        0.00012205056078
H            1.23162915349782        2.47509819820900       -0.00012169081467
H            3.35782947949115        1.23357577620546       -0.00018439344367
H            3.35786350196289       -1.23349965421733        0.00004674029438
H            1.23168477814289       -2.47507730488783        0.00013497832184
H           -1.23164521998598       -2.47510751543864       -0.00008521155949
18
 energy: -25.475928580517 gnorm: 0.000932225211 xtb: 6.7.1 (edcfbbe)
C           -2.41464525033416       -0.70197705607429       -0.00003633214667
C           -2.41466373306999        0.70190241334642        0.00001844701605
C           -1.23491828860080        1.39204191445606        0.00003489378329
C           -0.00001864506832        0.71016532452281        0.00000232647286
C            1.23486457456873        1.39207448390524       -0.00005083667613
C            2.41462644644901        0.70196554554008       -0.00006660892213
C            2.41464499505154       -0.70191571408195        0.00000133220234
C            1.23490064688142       -1.39205401185249        0.00003665854232
C            0.00000012965810       -0.71017583463884        0.00000948269689
C           -1.23488139500895       -1.39208511272093       -0.00002514894753
H           -3.35570385031090       -1.23180919198521       -0.00008308444255
H           -3.35573651206421        1.23170946110988        0.00004332886149
H           -1.23020685739562        2.47267038216207        0.00006967075897
H            1.23012375896892        2.47270281032631       -0.00008804420824
H            3.35568709690499        1.23179414562976       -0.00012865122504
H            3.35572023294330       -1.23171828113217        0.00002340364936
H            1.23018383284506       -2.47268247646785        0.00008300185624
H           -1.23014134515050       -2.47271347573401       -0.00005050002845
18
 energy: -25.475929320382 gnorm: 0.000294916845 xtb: 6.7.1 (edcfbbe)
C           -2.41459279651696       -0.70211882390955       -0.00001425164075
C           -2.41461107703773        0.70204445826486        0.00000702490418
C           -1.23488388827873        1.39218176821633        0.00000919335012
C           -0.00001844286593        0.70995385748716       -0.00000824637855
C            1.23482986785163        1.39221403017302       -0.00003795502792
C            2.41457433129441        0.70210735454907       -0.00004533040260
C            2.41459267413976       -0.70205669824110       -0.00000833113663
C            1.23486599103137       -1.39219362432032        0.00001187062196
C            0.00000007280202       -0.70996511567065       -0.00000060169019
C           -1.23484755808622       -1.39222530917699       -0.00001108773177
H           -3.35580247856399       -1.23142125825597       -0.00003405242084
H           -3.35583459029929        1.23132230697340        0.00002163263893
H           -1.22967867010449        2.47270272968388        0.00002484178761
H            1.22959584146512        2.47273484451511       -0.00005856951800
H            3.35578482115399        1.23140835884450       -0.00007934702078
H            3.35581712308767       -1.23133282504215        0.00000090360223
H            1.22965873355904       -2.47271457976610        0.00003734965605
H           -1.22961411736405       -2.47274614801361       -0.00002170434999
18
 energy: -25.475929415017 gnorm: 0.000030613852 xtb: 6.7.1 (edcfbbe)
C           -2.41455248983042       -0.70217379214855       -0.00000212347941
C           -2.41457070387015        0.70209953932151        0.00000026683025
C           -1.23492886879922        1.39227508068835       -0.00000581292797
C           -0.00001833842936        0.70990491566385       -0.00001200346922
C            1.23487460976928        1.39230714446333       -0.00002776151354
C            2.41453424027535        0.70216223114567       -0.00003238976839
C            2.41455243778922       -0.70211122573579       -0.00001806628756
C            1.23491070654087       -1.39228674134909       -0.00000498737320
C            0.00000006367768       -0.70991654625486       -0.00000561141761
C           -1.23489276226701       -1.39231874306589       -0.00000254653705
H           -3.35595752357584       -1.23121372166451       -0.00000031717806
H           -3.35598944673378        1.23111506998849        0.00000498665502
H           -1.22953538035553        2.47282370730826       -0.00000832410905
H            1.22945284862312        2.47285563002667       -0.00003785117715
H            3.35593940068514        1.23120193057832       -0.00004566658411
H            3.35597127991191       -1.23112657215091       -0.00001429526369
H            1.22951700110931       -2.47283535874993        0.00000582338550
H           -1.22947123725299       -2.47286722175398        0.00000001945831
