
                                 *****************
                                 * O   R   C   A *
                                 *****************

                                            #,                                       
                                            ###                                      
                                            ####                                     
                                            #####                                    
                                            ######                                   
                                           ########,                                 
                                     ,,################,,,,,                         
                               ,,#################################,,                 
                          ,,##########################################,,             
                       ,#########################################, ''#####,          
                    ,#############################################,,   '####,        
                  ,##################################################,,,,####,       
                ,###########''''           ''''###############################       
              ,#####''   ,,,,##########,,,,          '''####'''          '####       
            ,##' ,,,,###########################,,,                        '##       
           ' ,,###''''                  '''############,,,                           
         ,,##''                                '''############,,,,        ,,,,,,###''
      ,#''                                            '''#######################'''  
     '                                                          ''''####''''         
             ,#######,   #######,   ,#######,      ##                                
            ,#'     '#,  ##    ##  ,#'     '#,    #''#        ,####,   ,####,        
            ##       ##  ##   ,#'  ##            #'  '#       #'       #'  '#        
            ##       ##  #######   ##           ,######,      #####,   #    #        
            '#,     ,#'  ##    ##  '#,     ,#' ,#      #,     #,   #   #,  ,#        
             '#######'   ##     ##  '#######'  #'      '#     '####' # '####'        



                #########################################################
                #                        -***-                          #
                #          Department of theory and spectroscopy        #
                #                                                       #
                #                      Frank Neese                      #
                #                                                       #
                #     Directorship, Architecture, Infrastructure        #
                #                    SHARK, DRIVERS                     #
                #        Core code/Algorithms in most modules           #
                #                                                       #
                #        Max Planck Institute fuer Kohlenforschung      #
                #                Kaiser Wilhelm Platz 1                 #
                #                 D-45470 Muelheim/Ruhr                 #
                #                      Germany                          #
                #                                                       #
                #                  All rights reserved                  #
                #                        -***-                          #
                #########################################################


                         Program Version 6.0.1  -  RELEASE   -


 With contributions from (in alphabetic order):
[Max-Planck-Institut fuer Kohlenforschung]                               
  Daniel Aravena         : Magnetic Suceptibility                        
  Michael Atanasov       : Ab Initio Ligand Field Theory (pilot matlab implementation)
  Alexander A. Auer      : GIAO ZORA, VPT2 properties, NMR spectrum      
  Ute Becker             : All parallelization in ORCA, NUMFREQ, NUMCALC 
  Giovanni Bistoni       : ED, misc. LED, open-shell LED, HFLD           
  Martin Brehm           : Molecular dynamics                            
  Dmytro Bykov           : pre 5.0 version of the SCF Hessian            
  Marcos Casanova-Páez   : Triplet and SCS-CIS(D). UHF-(DLPNO)-IP/EA/STEOM-CCSD. UHF-CVS-IP/STEOM-CCSD   
  Vijay G. Chilkuri      : MRCI spin determinant printing, contributions to CSF-ICE 
  Pauline Colinet        : FMM embedding                                 
  Dipayan Datta          : RHF DLPNO-CCSD density                        
  Achintya Kumar Dutta   : EOM-CC, STEOM-CC                              
  Nicolas Foglia         : Exact transition moments, OPA infrastructure, MCD improvements    
  Dmitry Ganyushin       : Spin-Orbit,Spin-Spin,Magnetic field MRCI      
  Miquel Garcia-Rates    : C-PCM and meta-GGA Hessian, CCSD/C-PCM, Gaussian charge scheme 
  Tiago L. C. Gouveia    : GS-ROHF, GS-ROCIS                             
  Yang Guo               : DLPNO-NEVPT2, F12-NEVPT2, CIM, IAO-localization        
  Andreas Hansen         : Spin unrestricted coupled pair/coupled cluster methods 
  Ingolf Harden          : AUTO-CI MPn and infrastructure                
  Benjamin Helmich-Paris : MC-RPA, TRAH-(SCF,CASSCF), AVAS, COSX integrals, SCF dyn. polar. 
  Lee Huntington         : MR-EOM, pCC                                   
  Robert Izsak           : Overlap fitted RIJCOSX, COSX-SCS-MP3, EOM     
  Riya Kayal             : Wick's Theorem for AUTO-CI, AUTO-CI UHF-CCSDT 
  Emily Kempfer          : AUTO-CI, RHF CISDT and CCSDT                  
  Christian Kollmar      : KDIIS, OOCD, Brueckner-CCSD(T), CCSD density, CASPT2, CASPT2-K, improved NEVPT2 
  Axel Koslowski         : Symmetry handling                             
  Simone Kossmann        : meta-GGA functionals, TD-DFT gradient, OOMP2, (MP2 Hessian; deprecated post 5.0) 
  Lucas Lang             : DCDCAS                                        
  Marvin Lechner         : AUTO-CI (C++ implementation), FIC-MRCC        
  Spencer Leger          : CASSCF response                               
  Dagmar Lenk            : GEPOL surface, SMD, ORCA-2-JSON               
  Dimitrios Liakos       : Extrapolation schemes; Compound Job, initial MDCI parallelization 
  Dimitrios Manganas     : Further ROCIS development; embedding schemes. LFT, Crystal Embedding 
  Dimitrios Pantazis     : SARC Basis sets                               
  Anastasios Papadopoulos: AUTO-CI, single reference methods and gradients 
  Taras Petrenko         : pre 6.0 DFT Hessian and TD-DFT gradient, (ASA, deprecated), ECA, 1-Electron XAS/XES, NRVS 
  Peter Pinski           : DLPNO-MP2, DLPNO-MP2 Gradient                 
  Christoph Reimann      : Effective Core Potentials                     
  Marius Retegan         : Local ZFS, SOC                                
  Christoph Riplinger    : Optimizer, TS searches, QM/MM, DLPNO-CCSD(T), (RO)-DLPNO pert. Triples 
  Michael Roemelt        : Original ROCIS implementation                 
  Masaaki Saitow         : Open-shell DLPNO-CCSD energy and density      
  Barbara Sandhoefer     : DKH picture change effects                    
  Kantharuban Sivalingam : CASSCF convergence/infrastructure, NEVPT2 and variants, FIC-MRCI 
  Bernardo de Souza      : ESD, SOC TD-DFT                               
  Georgi L. Stoychev     : AutoAux, RI-MP2 NMR, DLPNO-MP2 response, X2C  
  Van Anh Tran           : RI-MP2 g-tensors                              
  Willem Van den Heuvel  : Paramagnetic NMR                              
  Zikuan Wang            : NOTCH, Electric field optimization            
  Frank Wennmohs         : Technical directorship and infrastructure     
  Hang Xu                : AUTO-CI-Response properties                   
                                                                         
[FACCTs GmbH]                                                            
  Markus Bursch, Miquel Garcia-Rates, Christoph Riplinger, Bernardo de Souza, Georgi L. Stoychev 
                                                                 
  APM, Basis sets (HGBS, AHGBS, def-TZVP (Ac-Lr), def2-XVPD (La-Lu)), CI-OPT, improved COSX, DLPNO-Multilevel,           
  DOCKER, DRACO, updates on ESD, GOAT, IRC, LR-CPCM, MBIS, meta-GGA TD-DFT gradient, ML-optimized integration grids, 
  MM, NACMEs, nearIR, NEB, NEB-TS, NL-DFT gradient (VV10), 2- and 3-layer-ONIOM, interface openCOSMO-RS, QMMM,   
  Crystal-QMMM, SF, symmetry and pop. for TD-DFT, r2SCAN hybrids, SOLVATOR                                   
                                                                         
[Other institutions]                                                     
  V. Asgeirsson          : NEB                                           
  Christoph Bannwarth    : sTDA-DFT, sTD-DFT, PBEh-3c, B97-3c, D3        
  Sebastian Ehlert       : rSCAN, r2SCAN, r2SCAN-3c, D4, dhf basis sets  
  Marvin Friede          : D4 for Fr, Ra, Ac-Lr                          
  Lars Goerigk           : TD-DFT with DH, B97 family of functionals     
  Stefan Grimme          : VdW corrections, initial TS optimization, DFT functionals, gCP, sTDA/sTD-DF 
  Waldemar Hujo          : DFT-NL                                        
  H. Jonsson             : NEB                                           
  Holger Kruse           : gCP                                           
  Marcel Mueller         : wB97X-3c, vDZP basis set                      
  Hagen Neugebauer       : wr2SCAN                                       
  Tobias Risthaus        : range-separated hybrid DFT                    
  Lukas Wittmann         : regularized MP2, r2SCAN double-hybrids, wr2SCAN        
                                                                         
We gratefully acknowledge several colleagues who have allowed us to      
interface, adapt or use parts of their codes:                            
  Ed Valeev, F. Pavosevic, A. Kumar             : LibInt (2-el integral package), F12 methods 
  Garnet Chan, S. Sharma, J. Yang, R. Olivares  : DMRG                   
  Ulf Ekstrom                                   : XCFun DFT Library      
  Mihaly Kallay                                 : mrcc  (arbitrary order and MRCC methods)
  Frank Weinhold                                : gennbo (NPA and NBO analysis)           
  Simon Mueller                                 : openCOSMO-RS                            
  Christopher J. Cramer and Donald G. Truhlar   : smd solvation model                     
  S Lehtola, MJT Oliveira, MAL Marques          : LibXC Library                           
  Liviu Ungur et al                             : ANISO software                          


 Your calculation uses the libint2 library for the computation of 2-el integrals
 For citations please refer to: http://libint.valeyev.net

 Your ORCA version has been built with support for libXC version: 6.2.2
 For citations please refer to: https://libxc.gitlab.io

 This ORCA versions uses:
   CBLAS   interface :  Fast vector & matrix operations
   LAPACKE interface :  Fast linear algebra routines
   SCALAPACK package :  Parallel linear algebra routines
   Shared memory     :  Shared parallel matrices
   BLAS/LAPACK       :  OpenBLAS 0.3.27  USE64BITINT DYNAMIC_ARCH NO_AFFINITY Zen SINGLE_THREADED
        Core in use  :  Zen
   Copyright (c) 2011-2014, The OpenBLAS Project


Your calculation utilizes the geometrical counterpoise correction gCP
Please cite in your paper:
H.Kruse, S. Grimme J.Chem.Phys., 136, (2012), 154101 
   

Your calculation utilizes the atom-pairwise dispersion correction
based on EEQ partial charges (D4)


================================================================================

----- Orbital basis set information -----
Your calculation utilizes the basis: def2-SV(P)
   F. Weigend and R. Ahlrichs, Phys. Chem. Chem. Phys. 7, 3297 (2005).

----- AuxJ basis set information -----
Your calculation utilizes the auxiliary basis: def2/J
   F. Weigend, Phys. Chem. Chem. Phys. 8, 1057 (2006).

================================================================================
                                        WARNINGS
                       Please study these warnings very carefully!
================================================================================

WARNING: Old DensityContainer found on disk!
         Will remove this file - 
         If you want to keep old densities, please start your calculation with a different basename. 


================================================================================
                                       INPUT FILE
================================================================================
NAME = sp.inp
|  1> ! pbe def2-sv(p) def2/J RI DEFGRID1 loosescf d4 GCP(DFT/SV(P)) printgap
|  2> %output
|  3>     printlevel normal
|  4> end
|  5> * xyz 0 1
|  6> C 2.1067153791 -3.1404535344 -2.8681213768
|  7> C 3.0758567089 -3.0439776655 -1.7004264643
|  8> O 2.9024079712 -1.7925127709 -1.0078934624
|  9> C 2.040950385 -1.7383916991 -0.0138602078
| 10> O 1.426781274 -2.6854224477 0.4244596122
| 11> C 1.8799067933 -0.31832182 0.4980151534
| 12> C 1.0761870138 0.4764693071 -0.5334764904
| 13> H 1.6794471452 0.6343118893 -1.4325692472
| 14> C 0.6134116046 1.8274168921 -0.0130380535
| 15> O -0.518534893 2.2349393751 -0.1778783669
| 16> O 1.5714784761 2.4640186649 0.6008851761
| 17> C 1.2795617782 3.7621627769 1.1618683661
| 18> C 1.4001280815 4.8509788558 0.1088556389
| 19> S -0.3940555431 -0.4249943588 -1.1292263646
| 20> P -1.7594080975 -0.0695155589 0.4606422784
| 21> S -1.1180248687 0.4312924451 2.2422007586
| 22> O -2.9222455894 0.8603032083 -0.0617173158
| 23> C -3.5775315004 0.6576529846 -1.3286066813
| 24> O -2.5317439527 -1.4805596233 0.4681111344
| 25> C -1.9373076921 -2.6459703305 1.0456129685
| 26> H 2.2612140049 -4.0805286448 -3.3869579806
| 27> H 1.081250905 -3.0967199258 -2.507509586
| 28> H 2.2671238154 -2.3179554432 -3.5590593803
| 29> H 4.1114310623 -3.0324028875 -2.0404640491
| 30> H 2.9155278439 -3.8606877054 -0.9912226247
| 31> H 2.8553042322 0.1501615306 0.6228931327
| 32> H 1.3547777123 -0.3476025246 1.4544882085
| 33> H 0.2727249141 3.7348126625 1.5883127759
| 34> H 2.0214336094 3.8815882205 1.9510387785
| 35> H 1.2455969956 5.8170924117 0.5775783413
| 36> H 2.3871887541 4.8258095139 -0.3442732899
| 37> H 0.6477491922 4.7109063678 -0.6639630491
| 38> H -4.3030998777 1.4635956396 -1.4002602958
| 39> H -4.0690205807 -0.3136759227 -1.3414685928
| 40> H -2.8488197347 0.7232483816 -2.1365805595
| 41> H -0.9790984266 -2.8701113946 0.5741614603
| 42> H -2.6462915498 -3.4511840813 0.8744582714
| 43> H -1.7810129169 -2.4909010507 2.1138705547
| 44> *
| 45> 
| 46>                          ****END OF INPUT****
================================================================================

                       ****************************
                       * Single Point Calculation *
                       ****************************

---------------------------------
CARTESIAN COORDINATES (ANGSTROEM)
---------------------------------
  C      2.106715   -3.140454   -2.868121
  C      3.075857   -3.043978   -1.700426
  O      2.902408   -1.792513   -1.007893
  C      2.040950   -1.738392   -0.013860
  O      1.426781   -2.685422    0.424460
  C      1.879907   -0.318322    0.498015
  C      1.076187    0.476469   -0.533476
  H      1.679447    0.634312   -1.432569
  C      0.613412    1.827417   -0.013038
  O     -0.518535    2.234939   -0.177878
  O      1.571478    2.464019    0.600885
  C      1.279562    3.762163    1.161868
  C      1.400128    4.850979    0.108856
  S     -0.394056   -0.424994   -1.129226
  P     -1.759408   -0.069516    0.460642
  S     -1.118025    0.431292    2.242201
  O     -2.922246    0.860303   -0.061717
  C     -3.577532    0.657653   -1.328607
  O     -2.531744   -1.480560    0.468111
  C     -1.937308   -2.645970    1.045613
  H      2.261214   -4.080529   -3.386958
  H      1.081251   -3.096720   -2.507510
  H      2.267124   -2.317955   -3.559059
  H      4.111431   -3.032403   -2.040464
  H      2.915528   -3.860688   -0.991223
  H      2.855304    0.150162    0.622893
  H      1.354778   -0.347603    1.454488
  H      0.272725    3.734813    1.588313
  H      2.021434    3.881588    1.951039
  H      1.245597    5.817092    0.577578
  H      2.387189    4.825810   -0.344273
  H      0.647749    4.710906   -0.663963
  H     -4.303100    1.463596   -1.400260
  H     -4.069021   -0.313676   -1.341469
  H     -2.848820    0.723248   -2.136581
  H     -0.979098   -2.870111    0.574161
  H     -2.646292   -3.451184    0.874458
  H     -1.781013   -2.490901    2.113871

----------------------------
CARTESIAN COORDINATES (A.U.)
----------------------------
  NO LB      ZA    FRAG     MASS         X           Y           Z
   0 C     6.0000    0    12.011    3.981115   -5.934597   -5.419964
   1 C     6.0000    0    12.011    5.812527   -5.752284   -3.213340
   2 O     8.0000    0    15.999    5.484756   -3.387358   -1.904643
   3 C     6.0000    0    12.011    3.856837   -3.285084   -0.026192
   4 O     8.0000    0    15.999    2.696226   -5.074713    0.802112
   5 C     6.0000    0    12.011    3.552509   -0.601541    0.941112
   6 C     6.0000    0    12.011    2.033699    0.900397   -1.008124
   7 H     1.0000    0     1.008    3.173695    1.198676   -2.707164
   8 C     6.0000    0    12.011    1.159180    3.453317   -0.024638
   9 O     8.0000    0    15.999   -0.979889    4.223423   -0.336141
  10 O     8.0000    0    15.999    2.969664    4.656320    1.135508
  11 C     6.0000    0    12.011    2.418021    7.109457    2.195613
  12 C     6.0000    0    12.011    2.645859    9.167022    0.205707
  13 S    16.0000    0    32.060   -0.744657   -0.803123   -2.133929
  14 P    15.0000    0    30.974   -3.324799   -0.131365    0.870488
  15 S    16.0000    0    32.060   -2.112761    0.815025    4.237145
  16 O     8.0000    0    15.999   -5.522244    1.625737   -0.116629
  17 C     6.0000    0    12.011   -6.760555    1.242784   -2.510703
  18 O     8.0000    0    15.999   -4.784303   -2.797852    0.884602
  19 C     6.0000    0    12.011   -3.660981   -5.000159    1.975922
  20 H     1.0000    0     1.008    4.273075   -7.711082   -6.400423
  21 H     1.0000    0     1.008    2.043268   -5.851953   -4.738506
  22 H     1.0000    0     1.008    4.284243   -4.380301   -6.725648
  23 H     1.0000    0     1.008    7.769479   -5.730411   -3.855918
  24 H     1.0000    0     1.008    5.509549   -7.295642   -1.873139
  25 H     1.0000    0     1.008    5.395743    0.283764    1.177097
  26 H     1.0000    0     1.008    2.560159   -0.656874    2.748584
  27 H     1.0000    0     1.008    0.515375    7.057773    3.001476
  28 H     1.0000    0     1.008    3.819956    7.335139    3.686929
  29 H     1.0000    0     1.008    2.353837   10.992712    1.091465
  30 H     1.0000    0     1.008    4.511133    9.119458   -0.650582
  31 H     1.0000    0     1.008    1.224069    8.902323   -1.254708
  32 H     1.0000    0     1.008   -8.131680    2.765795   -2.646108
  33 H     1.0000    0     1.008   -7.689335   -0.592762   -2.535008
  34 H     1.0000    0     1.008   -5.383489    1.366741   -4.037552
  35 H     1.0000    0     1.008   -1.850228   -5.423725    1.085008
  36 H     1.0000    0     1.008   -5.000766   -6.521793    1.652487
  37 H     1.0000    0     1.008   -3.365627   -4.707121    3.994636

--------------------------------
INTERNAL COORDINATES (ANGSTROEM)
--------------------------------
 C      0   0   0     0.000000000000     0.00000000     0.00000000
 C      1   0   0     1.520543954999     0.00000000     0.00000000
 O      2   1   0     1.440781317809   110.33487188     0.00000000
 C      3   2   1     1.316487893786   118.51681663    89.96418892
 O      4   3   2     1.210865475726   124.96483883     4.47821626
 C      4   3   2     1.518074400469   111.25206126   186.07664787
 C      6   4   3     1.530239664532   108.31786565    73.05628625
 H      7   6   4     1.094168566640   109.83069760   290.12293750
 C      7   6   4     1.519893622390   113.00192576   168.53393049
 O      9   7   6     1.214310411922   122.38732381   225.36731530
 O      9   7   6     1.303861832880   111.80634709    45.88687190
 C     11   9   7     1.443986022611   118.24928224   180.50562346
 C     12  11   9     1.519504027901   111.03390593   276.14550113
 S      7   6   4     1.824600731576   112.74938058    45.98559224
 P     14   7   6     2.125614047041   100.99625479    80.22426049
 S     15  14   7     1.958604534210   120.84808468   338.66341207
 O     15  14   7     1.577850917564   108.92426221   112.07179251
 C     17  15  14     1.440651034338   122.91883473    44.60472752
 O     15  14   7     1.608603061266    99.50759070   215.59652498
 C     19  15  14     1.430050681886   121.14159747    77.22467090
 H      1   2   3     1.084805263635   109.35981276   179.12624855
 H      1   2   3     1.087902054335   110.10123012   299.01848920
 H      1   2   3     1.086107407738   110.26448879    58.88318118
 H      2   1   3     1.090033841668   111.50813846   243.99479732
 H      2   1   3     1.093476437940   110.93020603   120.42316799
 H      6   4   3     1.089252644393   110.24231671   313.97237158
 H      6   4   3     1.091539562502   108.74801077   193.31055583
 H     12  11   9     1.093765667005   108.36581394    38.51395737
 H     12  11   9     1.089690869153   104.01930075   155.89001972
 H     13  12  11     1.084876136316   109.11131716   184.05214554
 H     13  12  11     1.086392237307   110.15346540   304.01802194
 H     13  12  11     1.087631840046   110.19639247    64.58880460
 H     18  17  15     1.086796795062   104.91196533   181.15712053
 H     18  17  15     1.088672030952   109.95247423    61.65722672
 H     18  17  15     1.090020816971   109.83383666   300.11725225
 H     20  19  15     1.091178600271   110.97383541   302.42796946
 H     20  19  15     1.086425894986   105.61191473   182.46960475
 H     20  19  15     1.090710231348   109.82948083    63.09036091

---------------------------
INTERNAL COORDINATES (A.U.)
---------------------------
 C      0   0   0     0.000000000000     0.00000000     0.00000000
 C      1   0   0     2.873411649538     0.00000000     0.00000000
 O      2   1   0     2.722682109529   110.33487188     0.00000000
 C      3   2   1     2.487801577878   118.51681663    89.96418892
 O      4   3   2     2.288204134142   124.96483883     4.47821626
 C      4   3   2     2.868744867803   111.25206126   186.07664787
 C      6   4   3     2.891733885228   108.31786565    73.05628625
 H      7   6   4     2.067678935294   109.83069760   290.12293750
 C      7   6   4     2.872182699010   113.00192576   168.53393049
 O      9   7   6     2.294714120101   122.38732381   225.36731530
 O      9   7   6     2.463941780615   111.80634709    45.88687190
 C     11   9   7     2.728738123945   118.24928224   180.50562346
 C     12  11   9     2.871446472123   111.03390593   276.14550113
 S      7   6   4     3.447995686431   112.74938058    45.98559224
 P     14   7   6     4.016828415324   100.99625479    80.22426049
 S     15  14   7     3.701226174314   120.84808468   338.66341207
 O     15  14   7     2.981706114353   108.92426221   112.07179251
 C     17  15  14     2.722435909448   122.91883473    44.60472752
 O     15  14   7     3.039819243981    99.50759070   215.59652498
 C     19  15  14     2.702404146391   121.14159747    77.22467090
 H      1   2   3     2.049984856907   109.35981276   179.12624855
 H      1   2   3     2.055836943223   110.10123012   299.01848920
 H      1   2   3     2.052445552649   110.26448879    58.88318118
 H      2   1   3     2.059865437459   111.50813846   243.99479732
 H      2   1   3     2.066371001602   110.93020603   120.42316799
 H      6   4   3     2.058389188551   110.24231671   313.97237158
 H      6   4   3     2.062710837468   108.74801077   193.31055583
 H     12  11   9     2.066917565324   108.36581394    38.51395737
 H     12  11   9     2.059217313333   104.01930075   155.89001972
 H     13  12  11     2.050118786864   109.11131716   184.05214554
 H     13  12  11     2.052983802528   110.15346540   304.01802194
 H     13  12  11     2.055326312219   110.19639247    64.58880460
 H     18  17  15     2.053748305891   104.91196533   181.15712053
 H     18  17  15     2.057291988160   109.95247423    61.65722672
 H     18  17  15     2.059840824349   109.83383666   300.11725225
 H     20  19  15     2.062028717708   110.97383541   302.42796946
 H     20  19  15     2.053047406324   105.61191473   182.46960475
 H     20  19  15     2.061143628713   109.82948083    63.09036091

---------------------
BASIS SET INFORMATION
---------------------
There are 5 groups of distinct atoms

 Group   1 Type C   : 7s4p1d contracted to 3s2p1d pattern {511/31/1}
 Group   2 Type O   : 7s4p1d contracted to 3s2p1d pattern {511/31/1}
 Group   3 Type H   : 4s contracted to 2s pattern {31}
 Group   4 Type S   : 10s7p1d contracted to 4s3p1d pattern {5311/511/1}
 Group   5 Type P   : 10s7p1d contracted to 4s3p1d pattern {5311/511/1}

Atom   0C    basis set group =>   1
Atom   1C    basis set group =>   1
Atom   2O    basis set group =>   2
Atom   3C    basis set group =>   1
Atom   4O    basis set group =>   2
Atom   5C    basis set group =>   1
Atom   6C    basis set group =>   1
Atom   7H    basis set group =>   3
Atom   8C    basis set group =>   1
Atom   9O    basis set group =>   2
Atom  10O    basis set group =>   2
Atom  11C    basis set group =>   1
Atom  12C    basis set group =>   1
Atom  13S    basis set group =>   4
Atom  14P    basis set group =>   5
Atom  15S    basis set group =>   4
Atom  16O    basis set group =>   2
Atom  17C    basis set group =>   1
Atom  18O    basis set group =>   2
Atom  19C    basis set group =>   1
Atom  20H    basis set group =>   3
Atom  21H    basis set group =>   3
Atom  22H    basis set group =>   3
Atom  23H    basis set group =>   3
Atom  24H    basis set group =>   3
Atom  25H    basis set group =>   3
Atom  26H    basis set group =>   3
Atom  27H    basis set group =>   3
Atom  28H    basis set group =>   3
Atom  29H    basis set group =>   3
Atom  30H    basis set group =>   3
Atom  31H    basis set group =>   3
Atom  32H    basis set group =>   3
Atom  33H    basis set group =>   3
Atom  34H    basis set group =>   3
Atom  35H    basis set group =>   3
Atom  36H    basis set group =>   3
Atom  37H    basis set group =>   3
---------------------------------
AUXILIARY/J BASIS SET INFORMATION
---------------------------------
There are 5 groups of distinct atoms

 Group   1 Type C   : 12s5p4d2f1g contracted to 6s4p3d1f1g pattern {711111/2111/211/2/1}
 Group   2 Type O   : 12s5p4d2f1g contracted to 6s4p3d1f1g pattern {711111/2111/211/2/1}
 Group   3 Type H   : 5s2p1d contracted to 3s1p1d pattern {311/2/1}
 Group   4 Type S   : 14s5p5d2f1g contracted to 8s4p3d1f1g pattern {71111111/2111/311/2/1}
 Group   5 Type P   : 14s5p5d2f1g contracted to 8s4p3d1f1g pattern {71111111/2111/311/2/1}

Atom   0C    basis set group =>   1
Atom   1C    basis set group =>   1
Atom   2O    basis set group =>   2
Atom   3C    basis set group =>   1
Atom   4O    basis set group =>   2
Atom   5C    basis set group =>   1
Atom   6C    basis set group =>   1
Atom   7H    basis set group =>   3
Atom   8C    basis set group =>   1
Atom   9O    basis set group =>   2
Atom  10O    basis set group =>   2
Atom  11C    basis set group =>   1
Atom  12C    basis set group =>   1
Atom  13S    basis set group =>   4
Atom  14P    basis set group =>   5
Atom  15S    basis set group =>   4
Atom  16O    basis set group =>   2
Atom  17C    basis set group =>   1
Atom  18O    basis set group =>   2
Atom  19C    basis set group =>   1
Atom  20H    basis set group =>   3
Atom  21H    basis set group =>   3
Atom  22H    basis set group =>   3
Atom  23H    basis set group =>   3
Atom  24H    basis set group =>   3
Atom  25H    basis set group =>   3
Atom  26H    basis set group =>   3
Atom  27H    basis set group =>   3
Atom  28H    basis set group =>   3
Atom  29H    basis set group =>   3
Atom  30H    basis set group =>   3
Atom  31H    basis set group =>   3
Atom  32H    basis set group =>   3
Atom  33H    basis set group =>   3
Atom  34H    basis set group =>   3
Atom  35H    basis set group =>   3
Atom  36H    basis set group =>   3
Atom  37H    basis set group =>   3

Checking for AutoStart:
The File: sp.gbw exists
Trying to determine its content:
     ... Fine, the file contains calculation information
     ... Fine, the calculation information was read
     ... Fine, the file contains a basis set
     ... Fine, the basis set was read
     ... Fine, the file contains a geometry
     ... Fine, the geometry was read
     ... Fine, the file contains a set of orbitals
     ... Fine, the orbitals can be read
     => possible old guess file was deleted
     => GBW file was renamed to GES file
     => GES file is set as startup file
     => Guess is set to MORead
     ... now leaving AutoStart

------------------------------------------------------------------------------
                             ORCA STARTUP CALCULATIONS
                           -- RI-GTO INTEGRALS CHOSEN --
------------------------------------------------------------------------------
------------------------------------------------------------------------------
                   ___                                                        
                  /   \      - P O W E R E D   B Y -                         
                 /     \                                                     
                 |  |  |   _    _      __       _____    __    __             
                 |  |  |  | |  | |    /  \     |  _  \  |  |  /  |          
                  \  \/   | |  | |   /    \    | | | |  |  | /  /          
                 / \  \   | |__| |  /  /\  \   | |_| |  |  |/  /          
                |  |  |   |  __  | /  /__\  \  |    /   |      \           
                |  |  |   | |  | | |   __   |  |    \   |  |\   \          
                \     /   | |  | | |  |  |  |  | |\  \  |  | \   \       
                 \___/    |_|  |_| |__|  |__|  |_| \__\ |__|  \__/        
                                                                              
                      - O R C A' S   B I G   F R I E N D -                    
                                      &                                       
                       - I N T E G R A L  F E E D E R -                       
                                                                              
 v1 FN, 2020, v2 2021, v3 2022-2024                                           
------------------------------------------------------------------------------


----------------------
SHARK INTEGRAL PACKAGE
----------------------

Number of atoms                             ...     38
Number of basis functions                   ...    316
Number of shells                            ...    158
Maximum angular momentum                    ...      2
Integral batch strategy                     ... SHARK/LIBINT Hybrid
RI-J (if used) integral strategy            ... SPLIT-RIJ (Revised 2003 algorithm where possible)
Printlevel                                  ...      1
Contraction scheme used                     ... SEGMENTED contraction
Prescreening option                         ... SCHWARTZ
   Thresh                                   ... 1.000e-09
   Tcut                                     ... 1.000e-10
   Tpresel                                  ... 1.000e-10 
Coulomb Range Separation                    ... NOT USED
Exchange Range Separation                   ... NOT USED
Multipole approximations                    ... NOT USED
Finite Nucleus Model                        ... NOT USED
CABS basis                                  ... NOT available
Auxiliary Coulomb fitting basis             ... AVAILABLE
   # of basis functions in Aux-J            ...   1146
   # of shells in Aux-J                     ...    386
   Maximum angular momentum in Aux-J        ...      4
Auxiliary J/K fitting basis                 ... NOT available
Auxiliary Correlation fitting basis         ... NOT available
Auxiliary 'external' fitting basis          ... NOT available

Checking pre-screening integrals            ... done (  0.0 sec) Dimension = 158
Check shell pair data                       ... done (  0.0 sec)
Shell pair information
Shell pair cut-off parameter TPreSel        ...   1.0e-10
Total number of shell pairs                 ...     12561
Shell pairs after pre-screening             ...      9269
Total number of primitive shell pairs       ...     52337
Primitive shell pairs kept                  ...     22740
          la=0 lb=0:   3472 shell pairs
          la=1 lb=0:   3136 shell pairs
          la=1 lb=1:    739 shell pairs
          la=2 lb=0:   1229 shell pairs
          la=2 lb=1:    579 shell pairs
          la=2 lb=2:    114 shell pairs

Calculating one electron integrals          ... done (  0.1 sec)
Calculating RI/J V-Matrix + Cholesky decomp.... done (  0.1 sec)
Calculating Nuclear repulsion               ... done (  0.0 sec) ENN=   2185.352947564144 Eh

Diagonalization of the overlap matrix:
Smallest eigenvalue                        ... 1.058e-03
Time for diagonalization                   ...    0.010 sec
Threshold for overlap eigenvalues          ... 1.000e-07
Number of eigenvalues below threshold      ... 0
Time for construction of square roots      ...    0.006 sec
Total time needed                          ...    0.017 sec

-------------------
DFT GRID GENERATION
-------------------

General Integration Accuracy     IntAcc      ... 4.159
Radial Grid Type                 RadialGrid  ... OptM3 with GC (2021)
Angular Grid (max. ang.)         AngularGrid ... 3 (Lebedev-194)
Angular grid pruning method      GridPruning ... 4 (adaptive)
Weight generation scheme         WeightScheme... mBecke (2022)
Basis function cutoff            BFCut       ... 1.0000e-10
Integration weight cutoff        WCut        ... 1.0000e-14
Partially contracted basis set               ... off
Rotationally invariant grid construction     ... off
Angular grids for H and He will be reduced by one unit

Total number of grid points                  ...    90823
Total number of batches                      ...     1437
Average number of points per batch           ...       63
Average number of grid points per atom       ...     2390
Initializing property integral containers    ... done (  0.0 sec)

SHARK setup successfully completed in   1.2 seconds

Maximum memory used throughout the entire STARTUP-calculation: 49.3 MB
-------------------------------------------------------------------------------
                                 ORCA GUESS
                   Start orbitals & Density for SCF / CASSCF
-------------------------------------------------------------------------------

------------
SCF SETTINGS
------------
Hamiltonian:
 Density Functional     Method          .... DFT(GTOs)
 Exchange Functional    Exchange        .... PBE
   PBE kappa parameter   XKappa         ....  0.804000
   PBE mue parameter    XMuePBE         ....  0.219520
 Correlation Functional Correlation     .... PBE
   PBE beta parameter  CBetaPBE         ....  0.066725
 LDA part of GGA corr.  LDAOpt          .... PW91-LDA
 Gradients option       PostSCFGGA      .... off
   NL short-range parameter             ....  6.400000
 RI-approximation to the Coulomb term is turned on
   Number of AuxJ basis functions       .... 1146


General Settings:
 Integral files         IntName         .... sp
 Hartree-Fock type      HFTyp           .... RHF
 Total Charge           Charge          ....    0
 Multiplicity           Mult            ....    1
 Number of Electrons    NEL             ....  174
 Basis Dimension        Dim             ....  316
 Nuclear Repulsion      ENuc            ....   2185.3529475641 Eh

Convergence Acceleration:
 AO-DIIS                CNVDIIS         .... on
   Start iteration      DIISMaxIt       ....    12
   Startup error        DIISStart       ....  0.200000
   # of expansion vecs  DIISMaxEq       ....     5
   Bias factor          DIISBfac        ....   1.050
   Max. coefficient     DIISMaxC        ....  10.000
 MO-DIIS                CNVKDIIS        .... off
 Trust-Rad. Augm. Hess. CNVTRAH         .... auto
   Auto Start mean grad. ratio tolernc. ....  1.125000
   Auto Start start iteration           ....     1
   Auto Start num. interpolation iter.  ....    10
   Max. Number of Micro iterations      ....    24
   Max. Number of Macro iterations      .... Maxiter - #DIIS iter
   Number of Davidson start vectors     ....     2
   Converg. threshold    (grad. norm)   ....   1.000e-04
   Grad. Scal. Fac. for Micro threshold ....   0.100
   Minimum threshold for Micro iter.    ....   1.000e-02
   NR start threshold (gradient norm)   ....   1.000e-04
   Initial trust radius                 ....   0.400
   Minimum AH scaling param. (alpha)    ....   1.000
   Maximum AH scaling param. (alpha)    .... 1000.000
   Quad. conv. algorithm                .... NR
   White noise on init. David. guess    .... on
   Maximum white noise                  ....   0.010
   Pseudo random numbers                .... off
   Inactive MOs                         .... canonical
   Orbital update algorithm             .... Taylor
   Preconditioner                       .... Diag
   Full preconditioner red. dimension   ....   250
 SOSCF                  CNVSOSCF        .... on
   Start iteration      SOSCFMaxIt      ....   150
   Startup grad/error   SOSCFStart      ....  0.003300
   Hessian update       SOSCFHessUp     .... L-BFGS
 Level Shifting         CNVShift        .... on
   Level shift para.    LevelShift      ....    0.2500
   Turn off err/grad.   ShiftErr        ....    0.0010
 Zerner damping         CNVZerner       .... off
 Static damping         CNVDamp         .... on
   Fraction old density DampFac         ....    0.7000
   Max. Damping (<1)    DampMax         ....    0.9800
   Min. Damping (>=0)   DampMin         ....    0.0000
   Turn off err/grad.   DampErr         ....    0.1000

SCF Procedure:
 Maximum # iterations   MaxIter         ....   125
 SCF integral mode      SCFMode         .... Direct
   Integral package                     .... SHARK and LIBINT hybrid scheme
 Reset frequency        DirectResetFreq ....    20
 Integral Threshold     Thresh          ....  1.000e-09 Eh
 Primitive CutOff       TCut            ....  1.000e-10 Eh

Convergence Tolerance:
 Convergence Check Mode ConvCheckMode   .... Total+1el-Energy
 Convergence forced     ConvForced      .... 0
 Energy Change          TolE            ....  1.000e-05 Eh
 1-El. energy change                    ....  1.000e-02 Eh
 Orbital Gradient       TolG            ....  1.000e-04
 Orbital Rotation angle TolX            ....  1.000e-04
 DIIS Error             TolErr          ....  5.000e-04

---------------------
INITIAL GUESS: MOREAD
---------------------
Guess MOs are being read from file: sp.ges
Input Geometry matches current geometry (good)
Input basis set matches current basis set (good)
Occupation numbers will be reassigned to an Aufbau configuration
MOs were renormalized
MOs were reorthogonalized (Cholesky)
                      ------------------
                      INITIAL GUESS DONE (   0.0 sec)
                      ------------------
             **** ENERGY FILE WAS UPDATED (sp.en.tmp) ****
Finished Guess after   0.2 sec
Maximum memory used throughout the entire GUESS-calculation: 25.0 MB

-------------------------------------------------------------------------------------------
                                      ORCA LEAN-SCF
                              memory conserving SCF solver
-------------------------------------------------------------------------------------------

----------------------------------------D-I-I-S--------------------------------------------
Iteration    Energy (Eh)           Delta-E    RMSDP     MaxDP     DIISErr   Damp  Time(sec)
-------------------------------------------------------------------------------------------
               ***  Starting incremental Fock matrix formation  ***
                              *** Initializing SOSCF ***
---------------------------------------S-O-S-C-F--------------------------------------
Iteration    Energy (Eh)           Delta-E    RMSDP     MaxDP     MaxGrad    Time(sec)
--------------------------------------------------------------------------------------
    1    -1979.1461146754099900     0.00e+00  1.03e-05  4.70e-04  4.39e-05     1.9
               *** Restarting incremental Fock matrix formation ***
    2    -1979.1461146558376640     1.96e-08  1.81e-05  7.98e-04  8.44e-05     1.8
    3    -1979.1461118456145414     2.81e-06  1.35e-05  6.38e-04  3.09e-04     1.3
                 **** Energy Check signals convergence ****

               *****************************************************
               *                     SUCCESS                       *
               *           SCF CONVERGED AFTER   3 CYCLES          *
               *****************************************************

             **** ENERGY FILE WAS UPDATED (sp.en.tmp) ****

----------------
TOTAL SCF ENERGY
----------------

Total Energy       :      -1979.14611184561454 Eh          -53855.30365 eV

Components:
Nuclear Repulsion  :       2185.35294756414442 Eh           59466.47692 eV
Electronic Energy  :      -4164.49905940975896 Eh         -113321.78057 eV
One Electron Energy:      -7075.02516668737371 Eh         -192521.22238 eV
Two Electron Energy:       2910.52610727761476 Eh           79199.44180 eV

Virial components:
Potential Energy   :      -3949.32198384410549 Eh         -107466.51467 eV
Kinetic Energy     :       1970.17587199849072 Eh           53611.21102 eV
Virial Ratio       :          2.00455301477123

DFT components:
N(Alpha)           :       87.000373477313 electrons
N(Beta)            :       87.000373477313 electrons
N(Total)           :      174.000746954625 electrons
E(X)               :     -180.018597632996 Eh       
E(C)               :       -6.127076511687 Eh       
E(XC)              :     -186.145674144683 Eh       

---------------
SCF CONVERGENCE
---------------

  Last Energy change         ...   -2.8102e-06  Tolerance :   1.0000e-05
  Last MAX-Density change    ...    6.3775e-04  Tolerance :   1.0000e-03
  Last RMS-Density change    ...    1.3482e-05  Tolerance :   1.0000e-04
  Last DIIS Error            ...    1.9289e-04  Tolerance :   5.0000e-04
  Last Orbital Gradient      ...    3.0868e-04  Tolerance :   1.0000e-04
  Last Orbital Rotation      ...    3.5113e-04  Tolerance :   1.0000e-04


----------------
ORBITAL ENERGIES
----------------

  NO   OCC          E(Eh)            E(eV) 
   0   2.0000     -88.037576     -2395.6242 
   1   2.0000     -87.975150     -2393.9255 
   2   2.0000     -76.419206     -2079.4723 
   3   2.0000     -18.816500      -512.0230 
   4   2.0000     -18.805998      -511.7372 
   5   2.0000     -18.782216      -511.0901 
   6   2.0000     -18.777404      -510.9591 
   7   2.0000     -18.744564      -510.0655 
   8   2.0000     -18.740705      -509.9605 
   9   2.0000     -10.022001      -272.7125 
  10   2.0000     -10.011093      -272.4157 
  11   2.0000      -9.953705      -270.8541 
  12   2.0000      -9.953070      -270.8368 
  13   2.0000      -9.950747      -270.7736 
  14   2.0000      -9.941614      -270.5251 
  15   2.0000      -9.924631      -270.0630 
  16   2.0000      -9.903950      -269.5002 
  17   2.0000      -9.891304      -269.1561 
  18   2.0000      -9.889768      -269.1143 
  19   2.0000      -7.682220      -209.0438 
  20   2.0000      -7.620370      -207.3608 
  21   2.0000      -6.415632      -174.5782 
  22   2.0000      -5.710227      -155.3832 
  23   2.0000      -5.706764      -155.2889 
  24   2.0000      -5.699015      -155.0781 
  25   2.0000      -5.649630      -153.7343 
  26   2.0000      -5.641047      -153.5007 
  27   2.0000      -5.640046      -153.4734 
  28   2.0000      -4.638302      -126.2146 
  29   2.0000      -4.637639      -126.1966 
  30   2.0000      -4.636071      -126.1539 
  31   2.0000      -1.024726       -27.8842 
  32   2.0000      -1.013812       -27.5872 
  33   2.0000      -0.974754       -26.5244 
  34   2.0000      -0.929700       -25.2984 
  35   2.0000      -0.926206       -25.2034 
  36   2.0000      -0.917280       -24.9604 
  37   2.0000      -0.767154       -20.8753 
  38   2.0000      -0.713253       -19.4086 
  39   2.0000      -0.709216       -19.2987 
  40   2.0000      -0.686702       -18.6861 
  41   2.0000      -0.655112       -17.8265 
  42   2.0000      -0.627698       -17.0805 
  43   2.0000      -0.620542       -16.8858 
  44   2.0000      -0.613669       -16.6988 
  45   2.0000      -0.596052       -16.2194 
  46   2.0000      -0.569141       -15.4871 
  47   2.0000      -0.511117       -13.9082 
  48   2.0000      -0.502862       -13.6836 
  49   2.0000      -0.499556       -13.5936 
  50   2.0000      -0.482876       -13.1397 
  51   2.0000      -0.463144       -12.6028 
  52   2.0000      -0.456145       -12.4123 
  53   2.0000      -0.445565       -12.1244 
  54   2.0000      -0.437042       -11.8925 
  55   2.0000      -0.430673       -11.7192 
  56   2.0000      -0.426432       -11.6038 
  57   2.0000      -0.420657       -11.4467 
  58   2.0000      -0.409876       -11.1533 
  59   2.0000      -0.400903       -10.9091 
  60   2.0000      -0.398114       -10.8332 
  61   2.0000      -0.396515       -10.7897 
  62   2.0000      -0.390029       -10.6132 
  63   2.0000      -0.389249       -10.5920 
  64   2.0000      -0.379722       -10.3328 
  65   2.0000      -0.365389        -9.9427 
  66   2.0000      -0.360903        -9.8207 
  67   2.0000      -0.355165        -9.6645 
  68   2.0000      -0.349544        -9.5116 
  69   2.0000      -0.336767        -9.1639 
  70   2.0000      -0.333730        -9.0813 
  71   2.0000      -0.330659        -8.9977 
  72   2.0000      -0.327262        -8.9052 
  73   2.0000      -0.311810        -8.4848 
  74   2.0000      -0.303184        -8.2501 
  75   2.0000      -0.297668        -8.1000 
  76   2.0000      -0.291595        -7.9347 
  77   2.0000      -0.285584        -7.7711 
  78   2.0000      -0.270100        -7.3498 
  79   2.0000      -0.265167        -7.2156 
  80   2.0000      -0.262336        -7.1385 
  81   2.0000      -0.248295        -6.7565 
  82   2.0000      -0.239504        -6.5172 
  83   2.0000      -0.220456        -5.9989 
  84   2.0000      -0.216448        -5.8899 
  85   2.0000      -0.194941        -5.3046 
  86   2.0000      -0.189309        -5.1514 
  87   0.0000      -0.043978        -1.1967 
  88   0.0000      -0.032925        -0.8959 
  89   0.0000      -0.018255        -0.4967 
  90   0.0000       0.004957         0.1349 
  91   0.0000       0.026404         0.7185 
  92   0.0000       0.037833         1.0295 
  93   0.0000       0.047443         1.2910 
  94   0.0000       0.052564         1.4303 
  95   0.0000       0.060534         1.6472 
  96   0.0000       0.063395         1.7251 
  97   0.0000       0.070086         1.9071 
*Only the first 10 virtual orbitals were printed.

                    ********************************
                    * MULLIKEN POPULATION ANALYSIS *
                    ********************************

-----------------------
MULLIKEN ATOMIC CHARGES
-----------------------
   0 C :   -0.305534
   1 C :   -0.016668
   2 O :   -0.234973
   3 C :    0.118263
   4 O :   -0.188213
   5 C :   -0.035013
   6 C :   -0.333796
   7 H :    0.153435
   8 C :    0.203788
   9 O :   -0.182864
  10 O :   -0.220448
  11 C :   -0.007524
  12 C :   -0.310197
  13 S :   -0.099324
  14 P :    0.622651
  15 S :   -0.322317
  16 O :   -0.353868
  17 C :   -0.103786
  18 O :   -0.394194
  19 C :   -0.123926
  20 H :    0.113612
  21 H :    0.129745
  22 H :    0.111898
  23 H :    0.104181
  24 H :    0.112528
  25 H :    0.110886
  26 H :    0.118005
  27 H :    0.124504
  28 H :    0.106873
  29 H :    0.117808
  30 H :    0.113020
  31 H :    0.130272
  32 H :    0.130043
  33 H :    0.121562
  34 H :    0.120416
  35 H :    0.140058
  36 H :    0.112537
  37 H :    0.116562
Sum of atomic charges:    0.0000000

--------------------------------
MULLIKEN REDUCED ORBITAL CHARGES
--------------------------------
  0 C s       :     3.102973  s :     3.102973
      pz      :     1.036836  p :     3.174691
      px      :     1.072999
      py      :     1.064856
      dz2     :     0.003764  d :     0.027870
      dxz     :     0.005411
      dyz     :     0.008637
      dx2y2   :     0.008830
      dxy     :     0.001227

  1 C s       :     3.076197  s :     3.076197
      pz      :     0.976632  p :     2.882000
      px      :     1.070307
      py      :     0.835060
      dz2     :     0.008566  d :     0.058471
      dxz     :     0.007842
      dyz     :     0.019066
      dx2y2   :     0.016510
      dxy     :     0.006487

  2 O s       :     3.727526  s :     3.727526
      pz      :     1.421090  p :     4.491084
      px      :     1.570878
      py      :     1.499116
      dz2     :     0.003303  d :     0.016364
      dxz     :     0.003856
      dyz     :     0.002966
      dx2y2   :     0.004095
      dxy     :     0.002144

  3 C s       :     3.041842  s :     3.041842
      pz      :     0.857539  p :     2.706747
      px      :     0.850622
      py      :     0.998587
      dz2     :     0.027171  d :     0.133148
      dxz     :     0.024948
      dyz     :     0.025386
      dx2y2   :     0.034482
      dxy     :     0.021161

  4 O s       :     3.750340  s :     3.750340
      pz      :     1.543872  p :     4.420511
      px      :     1.418719
      py      :     1.457920
      dz2     :     0.002379  d :     0.017362
      dxz     :     0.001862
      dyz     :     0.004143
      dx2y2   :     0.004075
      dxy     :     0.004903

  5 C s       :     2.996818  s :     2.996818
      pz      :     1.046863  p :     3.006344
      px      :     0.984607
      py      :     0.974874
      dz2     :     0.007653  d :     0.031851
      dxz     :     0.005985
      dyz     :     0.005278
      dx2y2   :     0.006845
      dxy     :     0.006089

  6 C s       :     3.166242  s :     3.166242
      pz      :     1.108137  p :     3.125027
      px      :     0.999081
      py      :     1.017809
      dz2     :     0.007807  d :     0.042527
      dxz     :     0.010864
      dyz     :     0.006422
      dx2y2   :     0.008906
      dxy     :     0.008527

  7 H s       :     0.846565  s :     0.846565

  8 C s       :     3.009788  s :     3.009788
      pz      :     0.848583  p :     2.652774
      px      :     0.872598
      py      :     0.931594
      dz2     :     0.014116  d :     0.133649
      dxz     :     0.033802
      dyz     :     0.010910
      dx2y2   :     0.033325
      dxy     :     0.041496

  9 O s       :     3.759056  s :     3.759056
      pz      :     1.470478  p :     4.405849
      px      :     1.314803
      py      :     1.620568
      dz2     :     0.002052  d :     0.017959
      dxz     :     0.004699
      dyz     :     0.000907
      dx2y2   :     0.005387
      dxy     :     0.004914

 10 O s       :     3.728565  s :     3.728565
      pz      :     1.551017  p :     4.475029
      px      :     1.563189
      py      :     1.360822
      dz2     :     0.002464  d :     0.016855
      dxz     :     0.003763
      dyz     :     0.002330
      dx2y2   :     0.003877
      dxy     :     0.004420

 11 C s       :     3.080043  s :     3.080043
      pz      :     1.033372  p :     2.869272
      px      :     1.075288
      py      :     0.760612
      dz2     :     0.007660  d :     0.058208
      dxz     :     0.011716
      dyz     :     0.013616
      dx2y2   :     0.017271
      dxy     :     0.007945

 12 C s       :     3.102779  s :     3.102779
      pz      :     1.058646  p :     3.179549
      px      :     1.088766
      py      :     1.032136
      dz2     :     0.002671  d :     0.027870
      dxz     :     0.009090
      dyz     :     0.006485
      dx2y2   :     0.007853
      dxy     :     0.001772

 13 S s       :     5.864493  s :     5.864493
      pz      :     3.430615  p :    10.163174
      px      :     3.093952
      py      :     3.638608
      dz2     :     0.011810  d :     0.071657
      dxz     :     0.024620
      dyz     :     0.008410
      dx2y2   :     0.009909
      dxy     :     0.016908

 14 P s       :     5.218917  s :     5.218917
      pz      :     2.922212  p :     8.576488
      px      :     2.856921
      py      :     2.797354
      dz2     :     0.107469  d :     0.581945
      dxz     :     0.123748
      dyz     :     0.106569
      dx2y2   :     0.112763
      dxy     :     0.131396

 15 S s       :     5.912467  s :     5.912467
      pz      :     3.072687  p :    10.367727
      px      :     3.619158
      py      :     3.675881
      dz2     :     0.017035  d :     0.042123
      dxz     :     0.011695
      dyz     :     0.009831
      dx2y2   :     0.001689
      dxy     :     0.001873

 16 O s       :     3.756542  s :     3.756542
      pz      :     1.429931  p :     4.583738
      px      :     1.489408
      py      :     1.664399
      dz2     :     0.003349  d :     0.013588
      dxz     :     0.002223
      dyz     :     0.002668
      dx2y2   :     0.001991
      dxy     :     0.003356

 17 C s       :     3.127561  s :     3.127561
      pz      :     0.804304  p :     2.924547
      px      :     1.020805
      py      :     1.099438
      dz2     :     0.015727  d :     0.051678
      dxz     :     0.015285
      dyz     :     0.006353
      dx2y2   :     0.004021
      dxy     :     0.010292

 18 O s       :     3.762047  s :     3.762047
      pz      :     1.726410  p :     4.619119
      px      :     1.637956
      py      :     1.254754
      dz2     :     0.001919  d :     0.013028
      dxz     :     0.001904
      dyz     :     0.002265
      dx2y2   :     0.002280
      dxy     :     0.004660

 19 C s       :     3.129441  s :     3.129441
      pz      :     1.060194  p :     2.942428
      px      :     1.057091
      py      :     0.825143
      dz2     :     0.012612  d :     0.052057
      dxz     :     0.006131
      dyz     :     0.009288
      dx2y2   :     0.009538
      dxy     :     0.014488

 20 H s       :     0.886388  s :     0.886388

 21 H s       :     0.870255  s :     0.870255

 22 H s       :     0.888102  s :     0.888102

 23 H s       :     0.895819  s :     0.895819

 24 H s       :     0.887472  s :     0.887472

 25 H s       :     0.889114  s :     0.889114

 26 H s       :     0.881995  s :     0.881995

 27 H s       :     0.875496  s :     0.875496

 28 H s       :     0.893127  s :     0.893127

 29 H s       :     0.882192  s :     0.882192

 30 H s       :     0.886980  s :     0.886980

 31 H s       :     0.869728  s :     0.869728

 32 H s       :     0.869957  s :     0.869957

 33 H s       :     0.878438  s :     0.878438

 34 H s       :     0.879584  s :     0.879584

 35 H s       :     0.859942  s :     0.859942

 36 H s       :     0.887463  s :     0.887463

 37 H s       :     0.883438  s :     0.883438


------------------------
MULLIKEN OVERLAP CHARGES
------------------------
B(  0-C ,  1-C ) :   0.9369 B(  0-C ,  2-O ) :  -0.0768 B(  0-C , 20-H ) :   0.7102 
B(  0-C , 21-H ) :   0.7412 B(  0-C , 22-H ) :   0.7432 B(  0-C , 23-H ) :  -0.0558 
B(  0-C , 24-H ) :  -0.0577 B(  1-C ,  2-O ) :   0.5099 B(  1-C , 23-H ) :   0.7378 
B(  1-C , 24-H ) :   0.7091 B(  2-O ,  3-C ) :   0.6938 B(  2-O ,  4-O ) :  -0.1658 
B(  2-O ,  5-C ) :  -0.2746 B(  2-O , 23-H ) :  -0.0545 B(  2-O , 24-H ) :  -0.0638 
B(  3-C ,  4-O ) :   1.2935 B(  3-C ,  5-C ) :   0.6524 B(  3-C ,  6-C ) :  -0.1054 
B(  4-O ,  5-C ) :  -0.1745 B(  4-O , 24-H ) :   0.0572 B(  4-O , 35-H ) :   0.0627 
B(  5-C ,  6-C ) :   0.4769 B(  5-C , 13-S ) :  -0.1522 B(  5-C , 25-H ) :   0.5379 
B(  5-C , 26-H ) :   0.6233 B(  6-C ,  7-H ) :   0.5695 B(  6-C ,  8-C ) :   0.0615 
B(  6-C ,  9-O ) :  -0.2691 B(  6-C , 10-O ) :  -0.3000 B(  6-C , 13-S ) :   0.4873 
B(  6-C , 14-P ) :  -0.0590 B(  7-H , 13-S ) :  -0.0589 B(  8-C ,  9-O ) :   1.3593 
B(  8-C , 10-O ) :   0.8006 B(  8-C , 11-C ) :  -0.0777 B(  8-C , 13-S ) :  -0.0923 
B(  9-O , 10-O ) :  -0.1507 B( 10-O , 11-C ) :   0.5377 B( 10-O , 12-C ) :  -0.0772 
B( 10-O , 27-H ) :  -0.0598 B( 10-O , 28-H ) :  -0.0541 B( 11-C , 12-C ) :   0.9277 
B( 11-C , 27-H ) :   0.7118 B( 11-C , 28-H ) :   0.7356 B( 12-C , 27-H ) :  -0.0515 
B( 12-C , 28-H ) :  -0.0548 B( 12-C , 29-H ) :   0.7183 B( 12-C , 30-H ) :   0.7347 
B( 12-C , 31-H ) :   0.7463 B( 13-S , 14-P ) :   0.5373 B( 13-S , 15-S ) :  -0.0761 
B( 13-S , 16-O ) :  -0.0593 B( 13-S , 18-O ) :  -0.0801 B( 14-P , 15-S ) :   0.9034 
B( 14-P , 16-O ) :   0.6630 B( 14-P , 17-C ) :  -0.0562 B( 14-P , 18-O ) :   0.6270 
B( 14-P , 19-C ) :  -0.0861 B( 15-S , 16-O ) :  -0.0567 B( 15-S , 18-O ) :  -0.0693 
B( 15-S , 26-H ) :   0.0730 B( 15-S , 37-H ) :   0.0518 B( 16-O , 17-C ) :   0.5535 
B( 16-O , 18-O ) :  -0.0687 B( 16-O , 32-H ) :  -0.0527 B( 16-O , 33-H ) :  -0.0607 
B( 16-O , 34-H ) :  -0.0608 B( 17-C , 32-H ) :   0.7670 B( 17-C , 33-H ) :   0.7532 
B( 17-C , 34-H ) :   0.7417 B( 18-O , 19-C ) :   0.5690 B( 18-O , 35-H ) :  -0.0539 
B( 18-O , 36-H ) :  -0.0551 B( 18-O , 37-H ) :  -0.0690 B( 19-C , 35-H ) :   0.7201 
B( 19-C , 36-H ) :   0.7349 B( 19-C , 37-H ) :   0.7439 B( 21-H , 22-H ) :  -0.0525 
B( 23-H , 24-H ) :  -0.0616 B( 27-H , 28-H ) :  -0.0581 B( 30-H , 31-H ) :  -0.0529 
B( 33-H , 34-H ) :  -0.0649 B( 35-H , 37-H ) :  -0.0522 


                     *******************************
                     * LOEWDIN POPULATION ANALYSIS *
                     *******************************

----------------------
LOEWDIN ATOMIC CHARGES
----------------------
   0 C :   -0.356923
   1 C :   -0.111927
   2 O :   -0.061723
   3 C :    0.023423
   4 O :   -0.159290
   5 C :   -0.254535
   6 C :   -0.259268
   7 H :    0.149876
   8 C :    0.006840
   9 O :   -0.161081
  10 O :   -0.038233
  11 C :   -0.105386
  12 C :   -0.356950
  13 S :    0.107229
  14 P :    0.589942
  15 S :   -0.308111
  16 O :   -0.231095
  17 C :   -0.208689
  18 O :   -0.266759
  19 C :   -0.225443
  20 H :    0.130932
  21 H :    0.129123
  22 H :    0.123484
  23 H :    0.117975
  24 H :    0.121327
  25 H :    0.141213
  26 H :    0.133905
  27 H :    0.127975
  28 H :    0.120591
  29 H :    0.133445
  30 H :    0.124361
  31 H :    0.131613
  32 H :    0.125966
  33 H :    0.114468
  34 H :    0.110172
  35 H :    0.113091
  36 H :    0.116617
  37 H :    0.111845

-------------------------------
LOEWDIN REDUCED ORBITAL CHARGES
-------------------------------
  0 C s       :     2.951888  s :     2.951888
      pz      :     1.091906  p :     3.336333
      px      :     1.118674
      py      :     1.125753
      dz2     :     0.008287  d :     0.068701
      dxz     :     0.015354
      dyz     :     0.021010
      dx2y2   :     0.021489
      dxy     :     0.002561

  1 C s       :     2.926040  s :     2.926040
      pz      :     1.037886  p :     3.055677
      px      :     1.110945
      py      :     0.906847
      dz2     :     0.017609  d :     0.130210
      dxz     :     0.020243
      dyz     :     0.041425
      dx2y2   :     0.038526
      dxy     :     0.012408

  2 O s       :     3.445478  s :     3.445478
      pz      :     1.463816  p :     4.582820
      px      :     1.588863
      py      :     1.530140
      dz2     :     0.006118  d :     0.033425
      dxz     :     0.009334
      dyz     :     0.006665
      dx2y2   :     0.007488
      dxy     :     0.003820

  3 C s       :     2.847252  s :     2.847252
      pz      :     0.891654  p :     2.825799
      px      :     0.890965
      py      :     1.043179
      dz2     :     0.060129  d :     0.303526
      dxz     :     0.060947
      dyz     :     0.056298
      dx2y2   :     0.077800
      dxy     :     0.048352

  4 O s       :     3.546430  s :     3.546430
      pz      :     1.561043  p :     4.581787
      px      :     1.465994
      py      :     1.554751
      dz2     :     0.003928  d :     0.031073
      dxz     :     0.003460
      dyz     :     0.007171
      dx2y2   :     0.006614
      dxy     :     0.009901

  5 C s       :     2.925859  s :     2.925859
      pz      :     1.103057  p :     3.245554
      px      :     1.099851
      py      :     1.042646
      dz2     :     0.018651  d :     0.083122
      dxz     :     0.015864
      dyz     :     0.014712
      dx2y2   :     0.018619
      dxy     :     0.015276

  6 C s       :     2.949812  s :     2.949812
      pz      :     1.108823  p :     3.207595
      px      :     1.047384
      py      :     1.051388
      dz2     :     0.016684  d :     0.101861
      dxz     :     0.026254
      dyz     :     0.016871
      dx2y2   :     0.020003
      dxy     :     0.022049

  7 H s       :     0.850124  s :     0.850124

  8 C s       :     2.844239  s :     2.844239
      pz      :     0.871367  p :     2.841264
      px      :     0.993957
      py      :     0.975940
      dz2     :     0.031278  d :     0.307657
      dxz     :     0.074229
      dyz     :     0.022792
      dx2y2   :     0.083593
      dxy     :     0.095765

  9 O s       :     3.553766  s :     3.553766
      pz      :     1.476043  p :     4.575375
      px      :     1.450565
      py      :     1.648767
      dz2     :     0.004347  d :     0.031940
      dxz     :     0.006641
      dyz     :     0.001195
      dx2y2   :     0.010434
      dxy     :     0.009323

 10 O s       :     3.436218  s :     3.436218
      pz      :     1.564122  p :     4.567833
      px      :     1.614722
      py      :     1.388989
      dz2     :     0.004169  d :     0.034183
      dxz     :     0.007061
      dyz     :     0.005872
      dx2y2   :     0.007986
      dxy     :     0.009095

 11 C s       :     2.927402  s :     2.927402
      pz      :     1.065264  p :     3.048826
      px      :     1.135351
      py      :     0.848210
      dz2     :     0.015176  d :     0.129158
      dxz     :     0.026687
      dyz     :     0.033480
      dx2y2   :     0.038698
      dxy     :     0.015117

 12 C s       :     2.951123  s :     2.951123
      pz      :     1.110357  p :     3.337153
      px      :     1.134402
      py      :     1.092394
      dz2     :     0.006166  d :     0.068674
      dxz     :     0.021319
      dyz     :     0.018002
      dx2y2   :     0.019920
      dxy     :     0.003266

 13 S s       :     5.627575  s :     5.627575
      pz      :     3.448791  p :    10.173982
      px      :     3.102948
      py      :     3.622243
      dz2     :     0.014401  d :     0.091214
      dxz     :     0.031925
      dyz     :     0.009050
      dx2y2   :     0.013193
      dxy     :     0.022645

 14 P s       :     5.068539  s :     5.068539
      pz      :     2.923333  p :     8.538064
      px      :     2.844490
      py      :     2.770242
      dz2     :     0.151356  d :     0.803455
      dxz     :     0.174541
      dyz     :     0.138322
      dx2y2   :     0.148638
      dxy     :     0.190596

 15 S s       :     5.761769  s :     5.761769
      pz      :     3.184996  p :    10.489707
      px      :     3.625269
      py      :     3.679443
      dz2     :     0.025205  d :     0.056635
      dxz     :     0.014781
      dyz     :     0.012680
      dx2y2   :     0.001748
      dxy     :     0.002221

 16 O s       :     3.498131  s :     3.498131
      pz      :     1.477725  p :     4.708608
      px      :     1.541838
      py      :     1.689046
      dz2     :     0.006520  d :     0.024356
      dxz     :     0.004569
      dyz     :     0.004243
      dx2y2   :     0.002737
      dxy     :     0.006286

 17 C s       :     2.972587  s :     2.972587
      pz      :     0.890279  p :     3.122940
      px      :     1.079538
      py      :     1.153123
      dz2     :     0.034713  d :     0.113163
      dxz     :     0.033799
      dyz     :     0.011677
      dx2y2   :     0.008194
      dxy     :     0.024779

 18 O s       :     3.503888  s :     3.503888
      pz      :     1.734479  p :     4.738928
      px      :     1.669458
      py      :     1.334991
      dz2     :     0.003366  d :     0.023943
      dxz     :     0.002412
      dyz     :     0.004427
      dx2y2   :     0.004246
      dxy     :     0.009493

 19 C s       :     2.971971  s :     2.971971
      pz      :     1.112457  p :     3.138105
      px      :     1.114600
      py      :     0.911048
      dz2     :     0.029815  d :     0.115367
      dxz     :     0.013257
      dyz     :     0.019127
      dx2y2   :     0.020273
      dxy     :     0.032895

 20 H s       :     0.869068  s :     0.869068

 21 H s       :     0.870877  s :     0.870877

 22 H s       :     0.876516  s :     0.876516

 23 H s       :     0.882025  s :     0.882025

 24 H s       :     0.878673  s :     0.878673

 25 H s       :     0.858787  s :     0.858787

 26 H s       :     0.866095  s :     0.866095

 27 H s       :     0.872025  s :     0.872025

 28 H s       :     0.879409  s :     0.879409

 29 H s       :     0.866555  s :     0.866555

 30 H s       :     0.875639  s :     0.875639

 31 H s       :     0.868387  s :     0.868387

 32 H s       :     0.874034  s :     0.874034

 33 H s       :     0.885532  s :     0.885532

 34 H s       :     0.889828  s :     0.889828

 35 H s       :     0.886909  s :     0.886909

 36 H s       :     0.883383  s :     0.883383

 37 H s       :     0.888155  s :     0.888155


---------------------------------
LOEWDIN BOND ORDERS (THRESH 0.050000)
---------------------------------
B(  0-C ,  1-C ) :   1.1511 B(  0-C ,  2-O ) :   0.0536 B(  0-C , 20-H ) :   0.9293 
B(  0-C , 21-H ) :   0.9327 B(  0-C , 22-H ) :   0.9387 B(  1-C ,  2-O ) :   1.0635 
B(  1-C ,  3-C ) :   0.0760 B(  1-C , 23-H ) :   0.9207 B(  1-C , 24-H ) :   0.9060 
B(  2-O ,  3-C ) :   1.4178 B(  2-O ,  4-O ) :   0.2045 B(  2-O ,  5-C ) :   0.0713 
B(  3-C ,  4-O ) :   2.1910 B(  3-C ,  5-C ) :   1.0413 B(  3-C ,  6-C ) :   0.0678 
B(  4-O ,  5-C ) :   0.0918 B(  5-C ,  6-C ) :   1.0520 B(  5-C ,  8-C ) :   0.0583 
B(  5-C , 13-S ) :   0.0635 B(  5-C , 25-H ) :   0.8799 B(  5-C , 26-H ) :   0.8747 
B(  6-C ,  7-H ) :   0.8628 B(  6-C ,  8-C ) :   1.0171 B(  6-C ,  9-O ) :   0.0975 
B(  6-C , 10-O ) :   0.0682 B(  6-C , 13-S ) :   1.1114 B(  8-C ,  9-O ) :   2.1515 
B(  8-C , 10-O ) :   1.4546 B(  8-C , 11-C ) :   0.0769 B(  8-C , 13-S ) :   0.0703 
B(  9-O , 10-O ) :   0.1981 B(  9-O , 14-P ) :   0.0614 B( 10-O , 11-C ) :   1.0517 
B( 10-O , 12-C ) :   0.0516 B( 11-C , 12-C ) :   1.1520 B( 11-C , 27-H ) :   0.9064 
B( 11-C , 28-H ) :   0.9199 B( 12-C , 29-H ) :   0.9285 B( 12-C , 30-H ) :   0.9381 
B( 12-C , 31-H ) :   0.9341 B( 13-S , 14-P ) :   1.0235 B( 13-S , 15-S ) :   0.1241 
B( 13-S , 16-O ) :   0.0637 B( 13-S , 18-O ) :   0.0662 B( 14-P , 15-S ) :   1.7169 
B( 14-P , 16-O ) :   1.3036 B( 14-P , 17-C ) :   0.0655 B( 14-P , 18-O ) :   1.2303 
B( 14-P , 19-C ) :   0.0656 B( 15-S , 16-O ) :   0.0653 B( 15-S , 18-O ) :   0.0862 
B( 15-S , 26-H ) :   0.0516 B( 16-O , 17-C ) :   1.1159 B( 16-O , 18-O ) :   0.0534 
B( 17-C , 32-H ) :   0.9506 B( 17-C , 33-H ) :   0.9490 B( 17-C , 34-H ) :   0.9430 
B( 18-O , 19-C ) :   1.1304 B( 19-C , 35-H ) :   0.9357 B( 19-C , 36-H ) :   0.9498 
B( 19-C , 37-H ) :   0.9426 

------------------------------------------
LOEWDIN REDUCED ORBITAL POPULATIONS PER MO
-------------------------------------------
THRESHOLD FOR PRINTING IS 0.1%%
                      0         1         2         3         4         5   
                 -88.03758 -87.97515 -76.41921 -18.81650 -18.80600 -18.78222
                   2.00000   2.00000   2.00000   2.00000   2.00000   2.00000
                  --------  --------  --------  --------  --------  --------
 2 O  s               0.0       0.0       0.0       0.0      99.9       0.0
10 O  s               0.0       0.0       0.0      99.9       0.0       0.0
13 S  s             100.0       0.0       0.0       0.0       0.0       0.0
14 P  s               0.0       0.0     100.0       0.0       0.0       0.0
15 S  s               0.0     100.0       0.0       0.0       0.0       0.0
16 O  s               0.0       0.0       0.0       0.0       0.0      99.9

                      6         7         8         9        10        11   
                 -18.77740 -18.74456 -18.74070 -10.02200 -10.01109  -9.95371
                   2.00000   2.00000   2.00000   2.00000   2.00000   2.00000
                  --------  --------  --------  --------  --------  --------
 2 O  pz              0.0       0.0       0.0       0.0       0.1       0.0
 3 C  s               0.0       0.0       0.0       0.0      99.3       0.0
 4 O  s               0.0       0.0      99.9       0.0       0.0       0.0
 4 O  py              0.0       0.0       0.0       0.0       0.2       0.0
 6 C  s               0.0       0.0       0.0       0.0       0.0      99.6
 8 C  s               0.0       0.0       0.0      99.3       0.0       0.0
 9 O  s               0.0      99.9       0.0       0.0       0.0       0.0
 9 O  px              0.0       0.0       0.0       0.2       0.0       0.0
10 O  px              0.0       0.0       0.0       0.1       0.0       0.0
18 O  s              99.9       0.0       0.0       0.0       0.0       0.0

                     12        13        14        15        16        17   
                  -9.95307  -9.95075  -9.94161  -9.92463  -9.90395  -9.89130
                   2.00000   2.00000   2.00000   2.00000   2.00000   2.00000
                  --------  --------  --------  --------  --------  --------
 1 C  s               0.0      99.7       0.0       0.0       0.0       0.0
 5 C  s               0.0       0.0       0.0       0.0      99.6       0.0
11 C  s              99.6       0.0       0.0       0.0       0.0       0.0
12 C  s               0.0       0.0       0.0       0.0       0.0      99.7
17 C  s               0.0       0.0      99.7       0.0       0.0       0.0
19 C  s               0.0       0.0       0.0      99.7       0.0       0.0

                     18        19        20        21        22        23   
                  -9.88977  -7.68222  -7.62037  -6.41563  -5.71023  -5.70676
                   2.00000   2.00000   2.00000   2.00000   2.00000   2.00000
                  --------  --------  --------  --------  --------  --------
 0 C  s              99.7       0.0       0.0       0.0       0.0       0.0
 6 C  px              0.0       0.1       0.0       0.0       0.0       0.0
13 S  s               0.0      99.7       0.0       0.0       0.0       0.0
13 S  pz              0.0       0.0       0.0       0.0       5.6      73.6
13 S  px              0.0       0.0       0.0       0.0      89.0       0.8
13 S  py              0.0       0.0       0.0       0.0       5.3      25.6
14 P  s               0.0       0.0       0.0      99.3       0.0       0.0
15 S  s               0.0       0.0      99.9       0.0       0.0       0.0
16 O  px              0.0       0.0       0.0       0.1       0.0       0.0
18 O  py              0.0       0.0       0.0       0.2       0.0       0.0

                     24        25        26        27        28        29   
                  -5.69902  -5.64963  -5.64105  -5.64005  -4.63830  -4.63764
                   2.00000   2.00000   2.00000   2.00000   2.00000   2.00000
                  --------  --------  --------  --------  --------  --------
13 S  pz             20.8       0.0       0.0       0.0       0.0       0.0
13 S  px             10.1       0.0       0.0       0.0       0.0       0.0
13 S  py             69.1       0.0       0.0       0.0       0.0       0.0
14 P  pz              0.0       0.0       0.0       0.0       0.2       3.1
14 P  px              0.0       0.0       0.0       0.0      10.3      87.3
14 P  py              0.0       0.0       0.0       0.0      89.4       9.5
15 S  pz              0.0      89.9       3.1       7.0       0.0       0.0
15 S  px              0.0       5.6      89.5       4.9       0.0       0.0
15 S  py              0.0       4.5       7.5      88.0       0.0       0.0

                     30        31        32        33        34        35   
                  -4.63607  -1.02473  -1.01381  -0.97475  -0.92970  -0.92621
                   2.00000   2.00000   2.00000   2.00000   2.00000   2.00000
                  --------  --------  --------  --------  --------  --------
 0 C  s               0.0       0.0       0.3       0.0       0.0       0.0
 0 C  pz              0.0       0.0       0.4       0.0       0.0       0.0
 0 C  px              0.0       0.0       0.1       0.0       0.0       0.0
 1 C  s               0.0       0.0       4.6       0.0       0.0       0.0
 1 C  pz              0.0       0.0       1.6       0.0       0.0       0.0
 1 C  px              0.0       0.0       0.3       0.0       0.0       0.0
 1 C  py              0.0       0.0       3.7       0.0       0.0       0.0
 1 C  dyz             0.0       0.0       0.3       0.0       0.0       0.0
 1 C  dx2y2           0.0       0.0       0.2       0.0       0.0       0.0
 2 O  s               0.0       0.1      42.1       0.0       0.0       0.0
 2 O  pz              0.0       0.0       0.9       0.0       0.0       0.0
 2 O  px              0.0       0.0       1.4       0.0       0.0       0.0
 2 O  py              0.0       0.0       0.9       0.0       0.0       0.0
 3 C  s               0.0       0.1      18.5       0.0       0.0       0.0
 3 C  pz              0.0       0.0       2.5       0.0       0.0       0.0
 3 C  px              0.0       0.0       1.1       0.0       0.0       0.0
 3 C  py              0.0       0.0       1.7       0.0       0.0       0.0
 3 C  dxz             0.0       0.0       1.0       0.0       0.0       0.0
 4 O  s               0.0       0.0      10.3       0.0       0.0       0.0
 4 O  pz              0.0       0.0       0.5       0.0       0.0       0.0
 4 O  px              0.0       0.0       0.8       0.0       0.0       0.0
 4 O  py              0.0       0.0       1.2       0.0       0.0       0.0
 5 C  s               0.0       0.1       1.0       0.0       0.0       0.0
 5 C  pz              0.0       0.0       0.4       0.0       0.0       0.0
 5 C  py              0.0       0.1       1.5       0.0       0.0       0.0
 6 C  s               0.0       1.1       0.1       0.0       0.1       0.4
 6 C  pz              0.0       0.3       0.0       0.0       0.0       0.0
 6 C  px              0.0       0.1       0.0       0.0       0.1       0.5
 6 C  py              0.0       1.4       0.1       0.0       0.0       0.2
 7 H  s               0.0       0.2       0.0       0.0       0.0       0.0
 8 C  s               0.0      18.9       0.0       0.0       1.0       4.4
 8 C  pz              0.0       1.3       0.0       0.0       0.4       1.7
 8 C  px              0.0       0.6       0.0       0.1       4.7      18.1
 8 C  py              0.0       3.4       0.0       0.0       0.0       0.0
 8 C  dz2             0.0       0.2       0.0       0.0       0.0       0.2
 8 C  dxz             0.0       0.5       0.0       0.0       0.0       0.0
 8 C  dyz             0.0       0.2       0.0       0.0       0.0       0.1
 8 C  dx2y2           0.0       0.3       0.0       0.0       0.1       0.3
 8 C  dxy             0.0       0.1       0.0       0.0       0.2       0.9
 9 O  s               0.0       9.8       0.0       0.1       8.6      33.6
 9 O  px              0.0       2.3       0.0       0.0       0.7       3.1
 9 O  py              0.0       0.1       0.0       0.0       0.2       0.6
10 O  s               0.0      42.4       0.1       0.2       2.9      10.7
10 O  pz              0.0       0.3       0.0       0.0       0.0       0.1
10 O  px              0.0       3.1       0.0       0.0       0.0       0.2
10 O  py              0.0       0.0       0.0       0.0       0.0       0.2
11 C  s               0.0       4.4       0.0       0.0       0.4       1.4
11 C  pz              0.0       1.1       0.0       0.0       0.0       0.1
11 C  px              0.0       0.0       0.0       0.0       0.0       0.2
11 C  py              0.0       4.3       0.0       0.0       0.2       0.8
11 C  dyz             0.0       0.2       0.0       0.0       0.0       0.1
11 C  dx2y2           0.0       0.2       0.0       0.0       0.0       0.1
12 C  s               0.0       0.2       0.0       0.0       0.0       0.1
12 C  py              0.0       0.4       0.0       0.0       0.0       0.1
13 S  s               0.0       0.1       0.0       0.3       0.0       0.1
13 S  pz              0.0       0.0       0.0       0.2       0.0       0.0
13 S  px              0.0       0.0       0.0       0.2       0.0       0.0
14 P  s               0.0       0.1       0.0      14.0       0.1       0.1
14 P  pz             96.7       0.0       0.0       0.6       0.5       0.1
14 P  px              2.3       0.0       0.0       4.5       0.0       0.4
14 P  py              0.9       0.0       0.0       0.1       8.5       1.2
14 P  dz2             0.0       0.0       0.0       0.5       0.1       0.0
14 P  dxz             0.0       0.0       0.0       0.3       0.2       0.1
14 P  dyz             0.0       0.0       0.0       0.1       0.1       0.0
14 P  dx2y2           0.0       0.0       0.0       0.0       0.5       0.1
14 P  dxy             0.0       0.0       0.0       0.0       1.8       0.5
15 S  s               0.0       0.0       0.0       0.3       0.0       0.0
15 S  pz              0.0       0.0       0.0       0.3       0.0       0.0
16 O  s               0.0       0.0       0.0      34.3      17.9       7.1
16 O  pz              0.0       0.0       0.0       0.2       0.4       0.2
16 O  px              0.0       0.0       0.0       0.4       0.0       0.0
16 O  py              0.0       0.0       0.0       1.5       0.2       0.1
17 C  s               0.0       0.0       0.0       4.2       2.6       1.1
17 C  pz              0.0       0.0       0.0       3.5       1.6       0.7
17 C  px              0.0       0.0       0.0       1.2       0.5       0.2
17 C  dz2             0.0       0.0       0.0       0.2       0.1       0.0
17 C  dxz             0.0       0.0       0.0       0.2       0.1       0.0
18 O  s               0.0       0.0       0.0      22.5      31.0       6.1
18 O  pz              0.0       0.0       0.0       0.1       0.2       0.1
18 O  px              0.0       0.0       0.0       0.8       1.0       0.2
18 O  py              0.0       0.0       0.0       0.4       0.1       0.0
19 C  s               0.0       0.0       0.0       2.5       4.7       1.0
19 C  pz              0.0       0.0       0.0       0.4       0.7       0.1
19 C  px              0.0       0.0       0.0       0.3       0.6       0.1
19 C  py              0.0       0.0       0.0       2.1       3.0       0.6
19 C  dyz             0.0       0.0       0.0       0.1       0.1       0.0
19 C  dxy             0.0       0.0       0.0       0.1       0.1       0.0
23 H  s               0.0       0.0       0.5       0.0       0.0       0.0
24 H  s               0.0       0.0       0.8       0.0       0.0       0.0
25 H  s               0.0       0.1       0.2       0.0       0.0       0.0
[...]
19 C  dx2y2           0.0       0.0       0.5       1.6       0.0       0.0
19 C  dxy             0.3       0.6       0.2       1.9       0.0       0.0

                    312       313       314       315   
                   3.48779   3.50624   3.57553   3.57960
                   0.00000   0.00000   0.00000   0.00000
                  --------  --------  --------  --------
 1 C  s               0.2       0.1       0.0       0.0
 1 C  py              0.2       0.1       0.0       0.0
 1 C  dz2             0.0       0.0       0.1       0.0
 1 C  dyz             0.5       0.2       0.0       0.0
 1 C  dx2y2           0.0       0.0       0.2       0.2
 1 C  dxy             0.3       0.1       0.1       0.0
 2 O  s               0.6       0.1       0.5       0.1
 2 O  pz              1.7       0.5       0.1       0.0
 2 O  px              0.8       0.2       0.1       0.0
 2 O  py              0.5       0.2       0.2       0.0
 2 O  dz2             4.7       1.2       0.9       0.1
 2 O  dxz            14.7       3.7       3.3       0.5
 2 O  dyz             0.1       0.0       3.5       2.1
 2 O  dx2y2           8.2       2.5       0.2       0.0
 2 O  dxy             0.4       0.1       2.4       1.2
 3 C  s               0.1       0.0       4.8       2.3
 3 C  pz              1.4       0.5       0.1       0.2
 3 C  px              1.5       0.5       0.3       0.4
 3 C  py              0.5       0.2       1.9       1.1
 3 C  dz2             3.0       1.1       0.0       0.0
 3 C  dxz             4.8       1.3       3.0       0.9
 3 C  dyz             0.0       0.0       2.8       1.6
 3 C  dx2y2           6.1       2.1       0.5       0.0
 3 C  dxy             0.2       0.1       3.0       1.6
 4 O  s               0.7       0.3       2.6       1.7
 4 O  pz              0.5       0.2       0.1       0.1
 4 O  px              0.5       0.2       0.3       0.2
 4 O  py              0.0       0.0       1.8       1.0
 4 O  dz2             0.4       0.1       5.8       2.8
 4 O  dxz             6.4       2.5       0.5       0.5
 4 O  dyz             6.1       2.5       4.4       3.1
 4 O  dx2y2           3.1       0.8       9.6       3.9
 4 O  dxy             4.8       2.0      12.9       8.0
 5 C  pz              0.1       0.0       0.0       0.0
 5 C  py              0.1       0.1       0.1       0.0
 5 C  dz2             0.0       0.0       0.0       0.1
 5 C  dyz             0.5       0.5       0.0       0.0
 5 C  dx2y2           0.1       0.1       0.2       0.1
 5 C  dxy             0.3       0.1       0.0       0.0
 6 C  py              0.0       0.2       0.0       0.1
 6 C  dyz             0.1       0.7       0.0       0.0
 6 C  dx2y2           0.1       0.7       0.1       0.0
 6 C  dxy             0.1       0.1       0.2       0.2
 8 C  s               0.2       0.0       2.3       4.7
 8 C  pz              0.2       0.5       0.0       0.0
 8 C  px              0.8       3.6       0.7       1.6
 8 C  py              0.0       0.0       0.3       0.5
 8 C  dz2             0.0       0.3       0.3       0.8
 8 C  dxz             1.2       2.6       1.2       2.1
 8 C  dyz             0.2       0.3       0.1       0.1
 8 C  dx2y2           0.4       0.6       3.5       6.7
 8 C  dxy             3.0       9.2       0.0       0.0
 9 O  s               0.1       1.3       1.2       2.8
 9 O  pz              0.0       0.1       0.0       0.0
 9 O  px              0.2       1.2       0.7       1.6
 9 O  py              0.1       0.1       0.3       0.6
 9 O  dz2             0.0       1.4       3.6       7.4
 9 O  dxz             1.3       4.9       0.0       0.1
 9 O  dyz             0.1       0.3       0.0       0.2
 9 O  dx2y2           3.3      16.6       2.8       6.5
 9 O  dxy             0.7       0.2       9.1      18.3
10 O  s               0.3       0.5       0.3       0.4
10 O  pz              0.3       0.7       0.0       0.0
10 O  px              0.3       0.7       0.1       0.1
10 O  py              0.6       1.7       0.2       0.2
10 O  dxz             3.4       7.7       0.5       0.6
10 O  dyz             0.6       0.8       2.2       3.9
10 O  dx2y2           1.4       3.6       1.0       2.3
10 O  dxy             5.7      13.3       2.0       3.2
11 C  s               0.1       0.3       0.0       0.0
11 C  pz              0.0       0.1       0.0       0.0
11 C  py              0.1       0.3       0.0       0.0
11 C  dyz             0.1       0.4       0.0       0.0
11 C  dx2y2           0.2       0.5       0.0       0.0
11 C  dxy             0.0       0.0       0.2       0.4


                      *****************************
                      * MAYER POPULATION ANALYSIS *
                      *****************************

  NA   - Mulliken gross atomic population
  ZA   - Total nuclear charge
  QA   - Mulliken gross atomic charge
  VA   - Mayer's total valence
  BVA  - Mayer's bonded valence
  FA   - Mayer's free valence

  ATOM       NA         ZA         QA         VA         BVA        FA
  0 C      6.3055     6.0000    -0.3055     4.0151     4.0151     0.0000
  1 C      6.0167     6.0000    -0.0167     4.0407     4.0407     0.0000
  2 O      8.2350     8.0000    -0.2350     2.2568     2.2568    -0.0000
  3 C      5.8817     6.0000     0.1183     4.3797     4.3797     0.0000
  4 O      8.1882     8.0000    -0.1882     2.3032     2.3032     0.0000
  5 C      6.0350     6.0000    -0.0350     3.8229     3.8229     0.0000
  6 C      6.3338     6.0000    -0.3338     3.9107     3.9107     0.0000
  7 H      0.8466     1.0000     0.1534     0.9500     0.9500    -0.0000
  8 C      5.7962     6.0000     0.2038     4.3159     4.3159     0.0000
  9 O      8.1829     8.0000    -0.1829     2.3098     2.3098     0.0000
 10 O      8.2204     8.0000    -0.2204     2.3064     2.3064    -0.0000
 11 C      6.0075     6.0000    -0.0075     4.0252     4.0252     0.0000
 12 C      6.3102     6.0000    -0.3102     4.0136     4.0136     0.0000
 13 S     16.0993    16.0000    -0.0993     2.2993     2.2993     0.0000
 14 P     14.3773    15.0000     0.6227     4.9651     4.9651    -0.0000
 15 S     16.3223    16.0000    -0.3223     2.0226     2.0226     0.0000
 16 O      8.3539     8.0000    -0.3539     2.1893     2.1893     0.0000
 17 C      6.1038     6.0000    -0.1038     3.8279     3.8279     0.0000
 18 O      8.3942     8.0000    -0.3942     2.1560     2.1560     0.0000
 19 C      6.1239     6.0000    -0.1239     3.7941     3.7941     0.0000
 20 H      0.8864     1.0000     0.1136     0.9546     0.9546    -0.0000
 21 H      0.8703     1.0000     0.1297     0.9729     0.9729    -0.0000
 22 H      0.8881     1.0000     0.1119     0.9567     0.9567     0.0000
 23 H      0.8958     1.0000     0.1042     0.9496     0.9496    -0.0000
 24 H      0.8875     1.0000     0.1125     0.9822     0.9822    -0.0000
 25 H      0.8891     1.0000     0.1109     0.9687     0.9687    -0.0000
 26 H      0.8820     1.0000     0.1180     1.0294     1.0294    -0.0000
 27 H      0.8755     1.0000     0.1245     0.9794     0.9794     0.0000
 28 H      0.8931     1.0000     0.1069     0.9507     0.9507     0.0000
 29 H      0.8822     1.0000     0.1178     0.9546     0.9546     0.0000
 30 H      0.8870     1.0000     0.1130     0.9560     0.9560     0.0000
 31 H      0.8697     1.0000     0.1303     0.9679     0.9679     0.0000
 32 H      0.8700     1.0000     0.1300     0.9554     0.9554     0.0000
 33 H      0.8784     1.0000     0.1216     0.9662     0.9662     0.0000
 34 H      0.8796     1.0000     0.1204     0.9741     0.9741     0.0000
 35 H      0.8599     1.0000     0.1401     1.0072     1.0072    -0.0000
 36 H      0.8875     1.0000     0.1125     0.9547     0.9547    -0.0000
 37 H      0.8834     1.0000     0.1166     0.9856     0.9856     0.0000

  Mayer bond orders larger than 0.100000
B(  0-C ,  1-C ) :   1.1749 B(  0-C , 20-H ) :   0.9432 B(  0-C , 21-H ) :   0.9422 
B(  0-C , 22-H ) :   0.9498 B(  1-C ,  2-O ) :   0.9119 B(  1-C , 23-H ) :   0.9370 
B(  1-C , 24-H ) :   0.9110 B(  2-O ,  3-C ) :   1.2166 B(  3-C ,  4-O ) :   2.0130 
B(  3-C ,  5-C ) :   1.0242 B(  5-C ,  6-C ) :   1.0485 B(  5-C , 25-H ) :   0.8722 
B(  5-C , 26-H ) :   0.8741 B(  6-C ,  7-H ) :   0.8584 B(  6-C ,  8-C ) :   0.9056 
B(  6-C , 13-S ) :   1.0321 B(  8-C ,  9-O ) :   2.0126 B(  8-C , 10-O ) :   1.2706 
B( 10-O , 11-C ) :   0.9020 B( 11-C , 12-C ) :   1.1733 B( 11-C , 27-H ) :   0.9139 
B( 11-C , 28-H ) :   0.9370 B( 12-C , 29-H ) :   0.9438 B( 12-C , 30-H ) :   0.9477 
B( 12-C , 31-H ) :   0.9447 B( 13-S , 14-P ) :   0.9362 B( 13-S , 15-S ) :   0.1130 
B( 14-P , 15-S ) :   1.6002 B( 14-P , 16-O ) :   1.1405 B( 14-P , 18-O ) :   1.0682 
B( 16-O , 17-C ) :   0.9221 B( 17-C , 32-H ) :   0.9600 B( 17-C , 33-H ) :   0.9464 
B( 17-C , 34-H ) :   0.9391 B( 18-O , 19-C ) :   0.9261 B( 19-C , 35-H ) :   0.9246 
B( 19-C , 36-H ) :   0.9564 B( 19-C , 37-H ) :   0.9432 

-------
TIMINGS
-------

Total SCF time: 0 days 0 hours 0 min 15 sec 

Total time                  ....      15.168 sec
Sum of individual times     ....      15.137 sec  ( 99.8%)

SCF preparation             ....       2.730 sec  ( 18.0%)
Fock matrix formation       ....       4.938 sec  ( 32.6%)
  Startup                   ....       0.009 sec  (  0.2% of F)
  Split-RI-J                ....       3.098 sec  ( 62.7% of F)
  XC integration            ....       1.793 sec  ( 36.3% of F)
    Basis function eval.    ....       0.731 sec  ( 40.8% of XC)
    Density eval.           ....       0.442 sec  ( 24.7% of XC)
    XC-Functional eval.     ....       0.099 sec  (  5.5% of XC)
    XC-Potential eval.      ....       0.439 sec  ( 24.5% of XC)
Diagonalization             ....       0.000 sec  (  0.0%)
Density matrix formation    ....       0.013 sec  (  0.1%)
Total Energy calculation    ....       0.001 sec  (  0.0%)
Population analysis         ....       7.362 sec  ( 48.5%)
Orbital Transformation      ....       0.019 sec  (  0.1%)
Orbital Orthonormalization  ....       0.000 sec  (  0.0%)
DIIS solution               ....       0.025 sec  (  0.2%)
  MO trafo                  ....       0.000 sec  (  0.0 % of DIIS)
  Orb grad                  ....       0.000 sec  (  0.0 % of DIIS)
  Energy W gradient         ....       0.000 sec  (  0.0 % of DIIS)
  DIIS error                ....       0.004 sec  ( 16.7 % of DIIS)
  DIIS work                 ....       0.020 sec  ( 82.2 % of DIIS)
  Form Q                    ....       0.000 sec  (  0.0 % of DIIS)
  Form QpQm                 ....       0.000 sec  (  0.0 % of DIIS)
  Exp/Cayley                ....       0.000 sec  (  0.0 % of DIIS)
  Orb update                ....       0.000 sec  (  0.0 % of DIIS)
  Wake-sleep                ....       0.000 sec  (  1.0 % of DIIS)
SOSCF solution              ....       0.047 sec  (  0.3%)
  MO trafo                  ....       0.029 sec  ( 61.5 % of SOSCF)
  Orb grad                  ....       0.000 sec  (  0.7 % of SOSCF)
  Rot update                ....       0.003 sec  (  5.3 % of SOSCF)
  Step                      ....       0.015 sec  ( 31.9 % of SOSCF)
Finished LeanSCF after  24.4 sec

Maximum memory used throughout the entire LEANSCF-calculation: 33.5 MB


-------------------------------------------------------------------------------
                          DFT DISPERSION CORRECTION                            
                                                                               
                                DFTD4 V3.4.0                                   
-------------------------------------------------------------------------------
The PBE functional is recognized
Active option DFTDOPT                   ...         5   

-------------------------   ----------------
Dispersion correction           -0.053047024
-------------------------   ----------------

------------------   -----------------
gCP correction             0.182337224
------------------   -----------------

-------------------------   --------------------
FINAL SINGLE POINT ENERGY     -1979.016821646123
-------------------------   --------------------


------------------------------------------------------------------------------
                              ORCA PROPERTY CALCULATIONS
------------------------------------------------------------------------------

GBWName                                 ... sp.gbw
Number of atoms                         ...     38
Number of basis functions               ...    316
Max core memory                         ...   1024 MB

Electric properties:
Dipole moment                           ... YES
Quadrupole moment                       ...  NO
Static polarizability (Dipole/Dipole)   ...  NO
Static polarizability (Dipole/Quad.)    ...  NO
Static polarizability (Quad./Quad.)     ...  NO
Static polarizability (Velocity)        ...  NO

Atomic electric properties:
Dipole moment                           ...  NO
Quadrupole moment                       ...  NO
Static polarizability                   ...  NO

Choice of electric origin               ... Center of mass
Position of electric origin             ...     0.000003     0.000001    -0.000006

General magnetic properties:
Magnetizability                         ...  NO

EPR properties:
g-Tensor (aka g-matrix)                 ...  NO
Zero-Field splitting spin-orbit         ...  NO
Zero-field splitting spin-spin          ...  NO
Hyperfine couplings                     ...  NO (   0 nuclei)
Quadrupole couplings                    ...  NO (   0 nuclei)
Contact density                         ...  NO (   0 nuclei)

NMR properties:
Chemical shifts                         ...  NO (   0 nuclei)
Spin-rotation constants                 ...  NO (   0 nuclei)
Spin-spin couplings                     ...  NO (   0 nuclei,    0 pairs)

Choice of magnetic origin               ... GIAO
Position of magnetic origin             ...     0.000000     0.000000     0.000000

Properties with geometric perturbations:
SCF Hessian                             ...  NO
IR spectrum                             ...  NO
VCD spectrum                            ...  NO
X-ray spectroscopy properties:
SCF XES/XAS/RIXS spectra                ...  NO


-------------
DIPOLE MOMENT
-------------

Method             : SCF
Type of density    : Electron Density
Multiplicity       :   1
Irrep              :   0
Energy             : -1979.1461118456145414 Eh
Relativity type    : 
Basis              : AO
                                X                 Y                 Z
Electronic contribution:     -8.544013419       0.096005507       8.463406757
Nuclear contribution   :      9.564277399       0.130843434      -9.866465190
                        -----------------------------------------
Total Dipole Moment    :      1.020263980       0.226848941      -1.403058433
                        -----------------------------------------
Magnitude (a.u.)       :      1.749563374
Magnitude (Debye)      :      4.447036684



--------------------
Rotational spectrum 
--------------------
 
Rotational constants in cm-1:             0.010917             0.008430             0.006039 
Rotational constants in MHz :           327.274812           252.724296           181.036799 

Dipole components along the rotational axes: 
x,y,z [a.u.] :    -0.690863     1.101117    -1.170992 
x,y,z [Debye]:    -1.756035     2.798816    -2.976425 

 

Dipole moment calculation done in   3.2 sec 

Maximum memory used throughout the entire PROP-calculation: 23.5 MB

--------------------------------
SUGGESTED CITATIONS FOR THIS RUN
--------------------------------

Below you find a list of papers that are relevant to this ORCA run
We neither can nor want to force you to cite these papers, but we appreciate if you do
You receive ORCA, which is the product of decades of hard work by many enthusiastic individuals, for free
The only thing we kindly ask in return is that you cite our papers,
We deeply appreciate it, if you show your appreciation for ORCA by not just citing the generic ORCA reference.

Please note that relegating all ORCA citations to the supporting information does *not* help us.
SI sections are not indexed - citations you put there will not count into any citation statistics
But we need these citations in order to attract the funding resources that allow us to do what we are doing

Therefore, if you are a happy ORCA user, please consider citing a few of the papers listed below in the main body of your paper

In addition to the list printed below, the program has created the file sp.bibtex that contains the list in bibtex format
You can import this file easily into all common literature databanks and citation aid programs


List of essential papers. We consider these as the minimum necessary citations

  1. Neese,F.
     Software update: the ORCA program system, version 5.0
     WIRES Comput. Molec. Sci., 2022 12(1)e1606
     doi.org/10.1002/wcms.1606

List of papers to cite with high priority. The work reported in these papers was absolutely
necessary for this run to complete.
Our perspective: the developers of density functionals and basis sets usually get cited in chemistry papers
Good! But without the algorithms to do something with them, the functionals or basis sets would not do anything.
Hence, in our opinion, the algorithm design and method developments papers are equally worthy of getting cited

  1. Neese,F.
     An improvement of the resolution of the identity approximation for the formation of the Coulomb matrix
     J. Comp. Chem., 2003 24(14)1740-1747
     doi.org/10.1002/jcc.10318
  2. Neese,F.
     The SHARK Integral Generation and Digestion System
     J. Comp. Chem., 2022  1-16
     doi.org/10.1002/jcc.26942
  3. Caldeweyher,E.; Bannwarth,C.; Grimme,S.
     Extension of the D3 dispersion coefficient model
     J. Chem. Phys., 2017 147 034112
     doi.org/10.1063/1.4993215
  4. Caldeweyher,E.; Ehlert,S.; Hansen,A.; Neugebauer,H.; Spicher,S.; Bannwarth,C.; Grimme,S.
     A generally applicable atomic-charge dependent London dispersion correction
     J. Chem. Phys., 2019 150 154122
     doi.org/10.1063/1.5090222
  5. Caldeweyher,E.; Mewes,J.; Ehlert,S.; Grimme,S.
     Extension and evaluation of the D4 London-dispersion model for periodic systems
     Phys. Chem. Chem. Phys., 2020 22(16)8499-8512
     doi.org/10.1039/D0CP00502A
  6. Wittmann,L.; Gordiy,I.; Friede,M.; Helmich-Paris,B.; Grimme,S.; Hansen,A.; Bursch,M.
     Extension of the D3 and D4 London Dispersion Corrections to the full Actinides Series
     Phys. Chem. Chem. Phys., 2024 26(32)21379-21394
     doi.org/https://doi.org/10.1039/D4CP01514B 

List of suggested additional citations. These are papers that are important in the 'surrounding' of 
of this run, or papers that preceded the highly important papers. If you like your results we are grateful for a citation.

  1. Neese,F.
     The ORCA program system
     WIRES Comput. Molec. Sci., 2012 2(1)73-78
     doi.org/10.1002/wcms.81
  2. Neese,F.
     Software update: the ORCA program system, version 4.0
     WIRES Comput. Molec. Sci., 2018 8(1)1-6
     doi.org/10.1002/wcms.1327
  3. Neese,F.; Wennmohs,F.; Becker,U.; Riplinger,C.
     The ORCA quantum chemistry program package
     J. Chem. Phys., 2020 152 Art. No. L224108
     doi.org/10.1063/5.0004608

List of optional additional citations

  1. Neese,F.
     Approximate second-order SCF convergence for spin unrestricted wavefunctions
     Chem. Phys. Lett., 2000 325(1-3)93-98
     doi.org/10.1016/s0009-2614(00)00662-x

Timings for individual modules:

Sum of individual times          ...       29.159 sec (=   0.486 min)
Startup calculation              ...        1.219 sec (=   0.020 min)   4.2 %
SCF iterations                   ...       24.626 sec (=   0.410 min)  84.5 %
Property calculations            ...        3.314 sec (=   0.055 min)  11.4 %
                             ****ORCA TERMINATED NORMALLY****
TOTAL RUN TIME: 0 days 0 hours 0 minutes 45 seconds 524 msec
