      -----------------------------------------------------------      
     |                   =====================                   |     
     |                           x T B                           |     
     |                   =====================                   |     
     |                         S. Grimme                         |     
     |          Mulliken Center for Theoretical Chemistry        |     
     |                    University of Bonn                     |     
      -----------------------------------------------------------      

   * xtb version 6.7.1 (edcfbbe) compiled by 'albert@albert-system' on 2024-07-22

   xtb is free software: you can redistribute it and/or modify it under
   the terms of the GNU Lesser General Public License as published by
   the Free Software Foundation, either version 3 of the License, or
   (at your option) any later version.
   
   xtb is distributed in the hope that it will be useful,
   but WITHOUT ANY WARRANTY; without even the implied warranty of
   MERCHANTABILITY or FITNESS FOR A PARTICULAR PURPOSE.  See the
   GNU Lesser General Public License for more details.
   
   Cite this work as:
   * C. Bannwarth, E. Caldeweyher, S. Ehlert, A. Hansen, P. Pracht,
     J. Seibert, S. Spicher, S. Grimme, WIREs Comput. Mol. Sci., 2020, 11,
     e01493. DOI: 10.1002/wcms.1493
   
   for GFN2-xTB:
   * C. Bannwarth, S. Ehlert and S. Grimme., J. Chem. Theory Comput., 2019,
     15, 1652-1671. DOI: 10.1021/acs.jctc.8b01176
   for GFN1-xTB:
   * S. Grimme, C. Bannwarth, P. Shushkov, J. Chem. Theory Comput., 2017,
     13, 1989-2009. DOI: 10.1021/acs.jctc.7b00118
   for GFN0-xTB:
   * P. Pracht, E. Caldeweyher, S. Ehlert, S. Grimme, ChemRxiv, 2019, preprint.
     DOI: 10.26434/chemrxiv.8326202.v1
   for GFN-FF:
   * S. Spicher and S. Grimme, Angew. Chem. Int. Ed., 2020, 59, 15665-15673.
     DOI: 10.1002/anie.202004239
   
   for ALPB and GBSA implicit solvation:
   * S. Ehlert, M. Stahn, S. Spicher, S. Grimme, J. Chem. Theory Comput.,
     2021, 17, 4250-4261. DOI: 10.1021/acs.jctc.1c00471
   
   for ddCOSMO and CPCM-X implicit solvation:
   * M. Stahn, S. Ehlert, S. Grimme, J. Phys. Chem. A,
     2023, XX, XXXX-XXXX. DOI: 10.1021/acs.jpca.3c04382
   
   for DFT-D4:
   * E. Caldeweyher, C. Bannwarth and S. Grimme, J. Chem. Phys., 2017,
     147, 034112. DOI: 10.1063/1.4993215
   * E. Caldeweyher, S. Ehlert, A. Hansen, H. Neugebauer, S. Spicher,
     C. Bannwarth and S. Grimme, J. Chem. Phys., 2019, 150, 154122.
     DOI: 10.1063/1.5090222
   * E. Caldeweyher, J.-M. Mewes, S. Ehlert and S. Grimme, Phys. Chem. Chem. Phys.
     2020, 22, 8499-8512. DOI: 10.1039/D0CP00502A
   
   for sTDA-xTB:
   * S. Grimme and C. Bannwarth, J. Chem. Phys., 2016, 145, 054103.
     DOI: 10.1063/1.4959605
   
   in the mass-spec context:
   * V. Asgeirsson, C. Bauer and S. Grimme, Chem. Sci., 2017, 8, 4879.
     DOI: 10.1039/c7sc00601b
   * J. Koopman and S. Grimme, ACS Omega 2019, 4, 12, 15120-15133.
     DOI: 10.1021/acsomega.9b02011
   
   for metadynamics refer to:
   * S. Grimme, J. Chem. Theory Comput., 2019, 155, 2847-2862
     DOI: 10.1021/acs.jctc.9b00143
   
   for SPH calculations refer to:
   * S. Spicher and S. Grimme, J. Chem. Theory Comput., 2021, 17, 1701-1714
     DOI: 10.1021/acs.jctc.0c01306
   
   for ONIOM refer to:
   * C. Plett, A. Katbashev, S. Ehlert, S. Grimme, M. Bursch,
     Phys. Chem. Chem. Phys., 2023, 25, 17860-17868. DOI: 10.1039/D3CP02178E
   
   for DIPRO refer to:
   * J. Kohn, N. Gildemeister, S. Grimme, D. Fazzi, A. Hansen,
     J. Chem. Phys., 2023, just accepted.
   
   for PTB refer to:
   * S. Grimme, M. Mueller, A. Hansen, J. Chem. Phys., 2023, 158, 124111.
     DOI: 10.1063/5.0137838
   
   with help from (in alphabetical order)
   P. Atkinson, C. Bannwarth, F. Bohle, G. Brandenburg, E. Caldeweyher
   M. Checinski, S. Dohm, S. Ehlert, S. Ehrlich, I. Gerasimov, C. Hölzer
   A. Katbashev, J. Kohn, J. Koopman, C. Lavigne, S. Lehtola, F. März, M. Müller,
   F. Musil, H. Neugebauer, J. Pisarek, C. Plett, P. Pracht, F. Pultar,
   J. Seibert, P. Shushkov, S. Spicher, M. Stahn, M. Steiner, T. Strunk,
   J. Stückrath, T. Rose, and J. Unsleber
   
 * started run on 2025/04/03 at 19:52:16.452     
   ID    Z sym.   atoms
    1    6 C      1, 2
    2   17 Cl     3
    3    1 H      4-8

           -------------------------------------------------
          |                Calculation Setup                |
           -------------------------------------------------

          program call               : /srv/scratch/z5358697/.xtb/bin/xtb xtb_rrho.coord --gfn2 --ohess vtight --chrg 0 --enso --norestart -I rrho-xcontrol-inp --parallel 1 --alpb water
          hostname                   : k162
          coordinate file            : xtb_rrho.coord
          omp threads                :                     1


           -------------------------------------------------
          |                 G F N 2 - x T B                 |
           -------------------------------------------------

        Reference                      10.1021/acs.jctc.8b01176
      * Hamiltonian:
        H0-scaling (s, p, d)           1.850000    2.230000    2.230000
        zeta-weighting                 0.500000
      * Dispersion:
        s8                             2.700000
        a1                             0.520000
        a2                             5.000000
        s9                             5.000000
      * Repulsion:
        kExp                           1.500000    1.000000
        rExp                           1.000000
      * Coulomb:
        alpha                          2.000000
        third order                    shell-resolved
        anisotropic                    true
        a3                             3.000000
        a5                             4.000000
        cn-shift                       1.200000
        cn-exp                         4.000000
        max-rad                        5.000000

      * Solvation model:               ALPB
        Solvent                        water
        Parameter file                 internal GFN2-xTB/ALPB
        Dielectric constant                8.0200E+01
        Reference state                gsolv [1 M gas/solution]
        Free energy shift                  1.0808E-03 Eh       6.7819E-01 kcal/mol
        Temperature                        2.9815E+02 K
        Density                            1.0000E+00 kg/L
        Solvent mass                       1.8000E+01 g/mol
        Interaction kernel             P16
        Born radius scaling (c1)           1.4744E+00
        Born radii integrator          GBOBC
        Born offset                        0.0000E+00 a0       0.0000E+00 AA
        H-bond correction              true
        Ion screening                  false
        Surface tension                    1.0000E-05 Eh       1.5569E+01 dyn/cm
        Grid points                               974 per atom

          ...................................................
          :                      SETUP                      :
          :.................................................:
          :  # basis functions                  23          :
          :  # atomic orbitals                  22          :
          :  # shells                           12          :
          :  # electrons                        20          :
          :  max. iterations                   250          :
          :  Hamiltonian                  GFN2-xTB          :
          :  restarted?                      false          :
          :  GBSA solvation                   true          :
          :  PC potential                    false          :
          :  electronic temp.          300.0000000     K    :
          :  accuracy                    1.0000000          :
          :  -> integral cutoff          0.2500000E+02      :
          :  -> integral neglect         0.1000000E-07      :
          :  -> SCF convergence          0.1000000E-05 Eh   :
          :  -> wf. convergence          0.1000000E-03 e    :
          :  Broyden damping             0.4000000          :
          :  net charge                          0          :
          :  unpaired electrons                  0          :
          ...................................................

 iter      E             dE          RMSdq      gap      omega  full diag
   1    -11.4509398 -0.114509E+02  0.405E+00    7.06       0.0  T
   2    -11.4801933 -0.292536E-01  0.223E+00    6.47       1.0  T
   3    -11.4808743 -0.680965E-03  0.107E+00    6.58       1.0  T
   4    -11.4811078 -0.233520E-03  0.132E-01    6.53       1.0  T
   5    -11.4811348 -0.269846E-04  0.728E-02    6.56       1.0  T
   6    -11.4811420 -0.718440E-05  0.349E-02    6.56       1.0  T
   7    -11.4811472 -0.525354E-05  0.140E-02    6.58       2.5  T
   8    -11.4811481 -0.883052E-06  0.356E-03    6.58       9.9  T
   9    -11.4811481 -0.166953E-07  0.873E-04    6.58      40.5  T
  10    -11.4811481 -0.921583E-09  0.596E-04    6.58      59.4  T

   *** convergence criteria satisfied after 10 iterations ***

         #    Occupation            Energy/Eh            Energy/eV
      -------------------------------------------------------------
         1        2.0000           -1.0544686             -28.6936
       ...           ...                  ...                  ...
         4        2.0000           -0.5199787             -14.1493
         5        2.0000           -0.5115799             -13.9208
         6        2.0000           -0.4899536             -13.3323
         7        2.0000           -0.4538524             -12.3500
         8        2.0000           -0.4532435             -12.3334
         9        2.0000           -0.4177359             -11.3672
        10        2.0000           -0.4140891             -11.2679 (HOMO)
        11                         -0.1721594              -4.6847 (LUMO)
        12                          0.0207692               0.5652
        13                          0.0240322               0.6539
        14                          0.0276645               0.7528
        15                          0.0277626               0.7555
       ...                                ...                  ...
        22                          0.2794585               7.6045
      -------------------------------------------------------------
                  HL-Gap            0.2419297 Eh            6.5832 eV
             Fermi-level           -0.2931242 Eh           -7.9763 eV

 SCC (total)                   0 d,  0 h,  0 min,  0.016 sec
 SCC setup                      ...        0 min,  0.000 sec (  2.391%)
 Dispersion                     ...        0 min,  0.000 sec (  0.177%)
 classical contributions        ...        0 min,  0.000 sec (  0.069%)
 integral evaluation            ...        0 min,  0.013 sec ( 83.168%)
 iterations                     ...        0 min,  0.001 sec (  9.345%)
 molecular gradient             ...        0 min,  0.001 sec (  4.242%)
 printout                       ...        0 min,  0.000 sec (  0.545%)

         :::::::::::::::::::::::::::::::::::::::::::::::::::::
         ::                     SUMMARY                     ::
         :::::::::::::::::::::::::::::::::::::::::::::::::::::
         :: total energy             -11.380616553229 Eh    ::
         :: total w/o Gsasa/hb       -11.380034662595 Eh    ::
         :: gradient norm              0.019704614010 Eh/a0 ::
         :: HOMO-LUMO gap              6.583241001511 eV    ::
         ::.................................................::
         :: SCC energy               -11.481147601782 Eh    ::
         :: -> isotropic ES            0.011568906835 Eh    ::
         :: -> anisotropic ES         -0.001119390690 Eh    ::
         :: -> anisotropic XC          0.005827074023 Eh    ::
         :: -> dispersion             -0.003002093566 Eh    ::
         :: -> Gsolv                  -0.004970271009 Eh    ::
         ::    -> Gelec               -0.004388380375 Eh    ::
         ::    -> Gsasa               -0.000536163957 Eh    ::
         ::    -> Ghb                 -0.001126486375 Eh    ::
         ::    -> Gshift               0.001080759698 Eh    ::
         :: repulsion energy           0.100531048553 Eh    ::
         :: add. restraining           0.000000000000 Eh    ::
         :: total charge              -0.000000000000 e     ::
         :::::::::::::::::::::::::::::::::::::::::::::::::::::

      ----------------------------------------------------------- 
     |                   =====================                   |
     |                        A N C O P T                        |
     |                   =====================                   |
     |               Approximate Normal Coordinate               |
     |                Rational Function Optimizer                |
      ----------------------------------------------------------- 
      ----------------------------------------------------------- 
     |                   =====================                   |
     |                        A N C O P T                        |
     |                   =====================                   |
     |               Approximate Normal Coordinate               |
     |                Rational Function Optimizer                |
      ----------------------------------------------------------- 

          ...................................................
          :                      SETUP                      :
          :.................................................:
          :   optimization level         verytight          :
          :   max. optcycles                   200          :
          :   ANC micro-cycles                  20          :
          :   degrees of freedom                18          :
          :.................................................:
          :   RF solver                   davidson          :
          :   write xtbopt.log                true          :
          :   linear?                        false          :
          :   energy convergence         0.1000000E-06 Eh   :
          :   grad. convergence          0.2000000E-03 Eh/α :
          :   maxmium RF displ.          1.0000000          :
          :   Hlow (freq-cutoff)         0.1000000E-01      :
          :   Hmax (freq-cutoff)         5.0000000          :
          :   S6 in model hess.         20.0000000          :
          ...................................................

generating ANC from exact Hessian ...
Using Lindh-Hessian (1995)
 Shifting diagonal of input Hessian by   0.000000000000000E+000
 Lowest  eigenvalues of input Hessian
    0.000000    0.000000    0.000000    0.000000    0.000000    0.000000
    0.012299    0.021802    0.040063    0.052501    0.057656    0.071934
    0.090983    0.113260    0.132906    0.133196    0.165018    0.328725
 Highest eigenvalues
    0.628788    0.918575    1.036968    1.099685    1.156141    1.252952
 

........................................................................
.............................. CYCLE    1 ..............................
........................................................................

 iter      E             dE          RMSdq      gap      omega  full diag
   1    -11.4811481 -0.114811E+02  0.263E-04    6.58       0.0  T
   2    -11.4811481 -0.532427E-10  0.208E-04    6.58     170.3  T
   3    -11.4811481 -0.839098E-10  0.989E-05    6.58     357.4  T
     SCC iter.                  ...        0 min,  0.000 sec
     gradient                   ...        0 min,  0.001 sec
 * total energy  :   -11.3806166 Eh     change       -0.1188720E-08 Eh
   gradient norm :     0.0197038 Eh/α   predicted     0.0000000E+00 (-100.00%)
   displ. norm   :     0.0680307 α      lambda       -0.7795839E-03
   maximum displ.:     0.0392326 α      in ANC's #2, #8, #12, ...

........................................................................
.............................. CYCLE    2 ..............................
........................................................................

 iter      E             dE          RMSdq      gap      omega  full diag
   1    -11.4849404 -0.114849E+02  0.128E-01    6.79       0.0  T
   2    -11.4849466 -0.620989E-05  0.813E-02    6.79       1.0  T
   3    -11.4849500 -0.344936E-05  0.296E-02    6.78       1.2  T
   4    -11.4849514 -0.140955E-05  0.224E-02    6.78       1.6  T
   5    -11.4849529 -0.145961E-05  0.144E-02    6.78       2.4  T
   6    -11.4849539 -0.101268E-05  0.473E-03    6.77       7.5  T
   7    -11.4849539 -0.540845E-07  0.372E-04    6.77      94.9  T
   8    -11.4849539 -0.629488E-10  0.116E-04    6.77     305.7  T
     SCC iter.                  ...        0 min,  0.001 sec
     gradient                   ...        0 min,  0.001 sec
 * total energy  :   -11.3811308 Eh     change       -0.5142522E-03 Eh
   gradient norm :     0.0110724 Eh/α   predicted    -0.3915962E-03 ( -23.85%)
   displ. norm   :     0.0294285 α      lambda       -0.2466601E-03
   maximum displ.:     0.0157186 α      in ANC's #12, #14, #2, ...

........................................................................
.............................. CYCLE    3 ..............................
........................................................................

 iter      E             dE          RMSdq      gap      omega  full diag
   1    -11.4865894 -0.114866E+02  0.694E-02    6.93       0.0  T
   2    -11.4865924 -0.305263E-05  0.452E-02    6.93       1.0  T
   3    -11.4865939 -0.153469E-05  0.210E-02    6.93       1.7  T
   4    -11.4865947 -0.796024E-06  0.151E-02    6.92       2.3  T
   5    -11.4865955 -0.738332E-06  0.925E-03    6.92       3.8  T
   6    -11.4865959 -0.400667E-06  0.254E-03    6.92      13.9  T
   7    -11.4865959 -0.123867E-07  0.165E-04    6.91     214.7  T
   8    -11.4865959 -0.514788E-11  0.561E-05    6.91     630.3  T
     SCC iter.                  ...        0 min,  0.001 sec
     gradient                   ...        0 min,  0.001 sec
 * total energy  :   -11.3812785 Eh     change       -0.1476719E-03 Eh
   gradient norm :     0.0041606 Eh/α   predicted    -0.1234359E-03 ( -16.41%)
   displ. norm   :     0.0122914 α      lambda       -0.3998222E-04
   maximum displ.:     0.0065325 α      in ANC's #14, #6, #4, ...

........................................................................
.............................. CYCLE    4 ..............................
........................................................................

 iter      E             dE          RMSdq      gap      omega  full diag
   1    -11.4861542 -0.114862E+02  0.266E-02    6.97       0.0  T
   2    -11.4861544 -0.222370E-06  0.174E-02    6.97       2.0  T
   3    -11.4861546 -0.234015E-06  0.680E-03    6.97       5.2  T
   4    -11.4861547 -0.710299E-07  0.558E-03    6.97       6.3  T
   5    -11.4861548 -0.118861E-06  0.265E-03    6.97      13.3  T
   6    -11.4861548 -0.332782E-07  0.948E-04    6.97      37.3  T
   7    -11.4861548 -0.202748E-08  0.128E-04    6.97     277.2  T
     SCC iter.                  ...        0 min,  0.001 sec
     gradient                   ...        0 min,  0.001 sec
 * total energy  :   -11.3813030 Eh     change       -0.2454022E-04 Eh
   gradient norm :     0.0014014 Eh/α   predicted    -0.1999290E-04 ( -18.53%)
   displ. norm   :     0.0124153 α      lambda       -0.6331390E-05
   maximum displ.:     0.0101509 α      in ANC's #2, #8, #12, ...

........................................................................
.............................. CYCLE    5 ..............................
........................................................................

 iter      E             dE          RMSdq      gap      omega  full diag
   1    -11.4854615 -0.114855E+02  0.191E-02    6.98       0.0  T
   2    -11.4854615 -0.219951E-07  0.113E-02    6.98       3.1  T
   3    -11.4854616 -0.143262E-07  0.171E-03    6.98      20.7  T
   4    -11.4854616 -0.326657E-08  0.133E-03    6.98      26.5  T
   5    -11.4854616 -0.507418E-08  0.710E-04    6.98      49.8  T
   6    -11.4854616 -0.138973E-08  0.493E-04    6.98      71.7  T
     SCC iter.                  ...        0 min,  0.000 sec
     gradient                   ...        0 min,  0.001 sec
 * total energy  :   -11.3813054 Eh     change       -0.2335243E-05 Eh
   gradient norm :     0.0007337 Eh/α   predicted    -0.3167169E-05 (  35.62%)
   displ. norm   :     0.0061235 α      lambda       -0.1470937E-05
   maximum displ.:     0.0056232 α      in ANC's #2, #4, #14, ...

........................................................................
.............................. CYCLE    6 ..............................
........................................................................

 iter      E             dE          RMSdq      gap      omega  full diag
   1    -11.4855970 -0.114856E+02  0.788E-03    6.97       0.0  T
   2    -11.4855970 -0.565008E-08  0.467E-03    6.97       7.6  T
   3    -11.4855970 -0.244048E-08  0.853E-04    6.97      41.4  T
   4    -11.4855970 -0.100454E-08  0.623E-04    6.97      56.7  T
     SCC iter.                  ...        0 min,  0.000 sec
     gradient                   ...        0 min,  0.001 sec
 * total energy  :   -11.3813062 Eh     change       -0.8585926E-06 Eh
   gradient norm :     0.0001909 Eh/α   predicted    -0.7343019E-06 ( -14.48%)
   displ. norm   :     0.0025830 α      lambda       -0.2331142E-06
   maximum displ.:     0.0017083 α      in ANC's #2, #4, #6, ...

........................................................................
.............................. CYCLE    7 ..............................
........................................................................

 iter      E             dE          RMSdq      gap      omega  full diag
   1    -11.4856855 -0.114857E+02  0.367E-03    6.97       0.0  T
   2    -11.4856855 -0.721911E-09  0.216E-03    6.97      16.4  T
   3    -11.4856855 -0.406491E-09  0.255E-04    6.97     138.6  T
   4    -11.4856855 -0.700258E-10  0.203E-04    6.97     174.3  T
     SCC iter.                  ...        0 min,  0.000 sec
     gradient                   ...        0 min,  0.001 sec
 * total energy  :   -11.3813063 Eh     change       -0.7968896E-07 Eh
   gradient norm :     0.0001221 Eh/α   predicted    -0.1152528E-06 (  44.63%)
   displ. norm   :     0.0009127 α      lambda       -0.5948986E-07
   maximum displ.:     0.0005456 α      in ANC's #4, #2, #6, ...

   *** GEOMETRY OPTIMIZATION CONVERGED AFTER 7 ITERATIONS ***

------------------------------------------------------------------------
 total energy gain   :        -0.0006897 Eh       -0.4328 kcal/mol
 total RMSD          :         0.0314415 a0        0.0166 Å
 total power (kW/mol):        -0.2587014 (step) -135.7504 (real)
------------------------------------------------------------------------

 ANCopt (total)                0 d,  0 h,  0 min,  0.013 sec
 optimizer setup                ...        0 min,  0.000 sec (  2.441%)
 model hessian                  ...        0 min,  0.000 sec (  2.539%)
 ANC generation                 ...        0 min,  0.000 sec (  0.680%)
 coordinate transformation      ...        0 min,  0.000 sec (  0.159%)
 single point calculation       ...        0 min,  0.012 sec ( 88.014%)
 optimization log               ...        0 min,  0.000 sec (  2.396%)
 hessian update                 ...        0 min,  0.000 sec (  0.129%)
 rational function              ...        0 min,  0.000 sec (  1.691%)

================
 final structure:
================
$coord
       -3.25085276406698       -0.71483691729853       -0.00008300193546      C
       -1.18120987267185        1.25703627351454        0.00005838699658      C
        1.89361616899197       -0.21988376945152        0.00005690647615      Cl
       -5.07172764624805        0.23515446941684       -0.00007922410738      H
       -3.12105637966993       -1.90402602011506       -1.66887334059116      H
       -3.12113257388859       -1.90418538662397        1.66859968189213      H
       -1.24003503339085        2.43019655962463        1.68753950046840      H
       -1.23995872664438        2.43035831462567       -1.68731290978394      H
$end
 
 Bond Distances (Angstroems)
 ---------------------------
C1-C2=1.5127         C1-H4=1.0868         C1-H5=1.0865         C1-H6=1.0865         C2-C1=1.5127         C2-Cl3=1.8051        
C2-H7=1.0880         C2-H8=1.0880         Cl3-C2=1.8051        H4-C1=1.0868         H5-C1=1.0865         H6-C1=1.0865         
H7-C2=1.0880         H8-C2=1.0880         
 C  H  Rav=1.0872 sigma=0.0007  Rmin=1.0865  Rmax=1.0880     5
 C  C  Rav=1.5127 sigma=0.0000  Rmin=1.5127  Rmax=1.5127     1
 Cl C  Rav=1.8051 sigma=0.0000  Rmin=1.8051  Rmax=1.8051     1
 
 selected bond angles (degree)
 --------------------
H4-C1-C2=108.83                H5-C1-C2=110.72                H5-C1-H4=108.90                H6-C1-C2=110.72                
H6-C1-H4=108.90                H6-C1-H5=108.73                Cl3-C2-C1=110.73               H7-C2-C1=111.90                
H7-C2-Cl3=105.83               H8-C2-C1=111.90                H8-C2-Cl3=105.83               H8-C2-H7=110.31                
 
 selected dihedral angles (degree)
 ---------------------------------
Cl3-C2-C1-H4=180.00           Cl3-C2-C1-H5=299.67           Cl3-C2-C1-H6= 60.33           H7-C2-C1-H4= 62.19            
H7-C2-C1-H5=181.86            H7-C2-C1-H6=302.53            H8-C2-C1-H4=297.81            H8-C2-C1-H5= 57.47            
H8-C2-C1-H6=178.14            
           -------------------------------------------------
          |                Final Singlepoint                |
           -------------------------------------------------

          ...................................................
          :                      SETUP                      :
          :.................................................:
          :  # basis functions                  23          :
          :  # atomic orbitals                  22          :
          :  # shells                           12          :
          :  # electrons                        20          :
          :  max. iterations                   250          :
          :  Hamiltonian                  GFN2-xTB          :
          :  restarted?                      false          :
          :  GBSA solvation                   true          :
          :  PC potential                    false          :
          :  electronic temp.          300.0000000     K    :
          :  accuracy                    1.0000000          :
          :  -> integral cutoff          0.2500000E+02      :
          :  -> integral neglect         0.1000000E-07      :
          :  -> SCF convergence          0.1000000E-05 Eh   :
          :  -> wf. convergence          0.1000000E-03 e    :
          :  Broyden damping             0.4000000          :
          :  net charge                          0          :
          :  unpaired electrons                  0          :
          ...................................................

 iter      E             dE          RMSdq      gap      omega  full diag
   1    -11.4856855 -0.114857E+02  0.919E-05    6.97       0.0  T
   2    -11.4856855 -0.823519E-11  0.759E-05    6.97     466.0  T
   3    -11.4856855 -0.187299E-10  0.411E-05    6.97     860.5  T

   *** convergence criteria satisfied after 3 iterations ***

         #    Occupation            Energy/Eh            Energy/eV
      -------------------------------------------------------------
         1        2.0000           -1.0560904             -28.7377
       ...           ...                  ...                  ...
         4        2.0000           -0.5227145             -14.2238
         5        2.0000           -0.5144198             -13.9981
         6        2.0000           -0.4913575             -13.3705
         7        2.0000           -0.4558908             -12.4054
         8        2.0000           -0.4557669             -12.4020
         9        2.0000           -0.4174436             -11.3592
        10        2.0000           -0.4138910             -11.2625 (HOMO)
        11                         -0.1576355              -4.2895 (LUMO)
        12                          0.0172682               0.4699
        13                          0.0214946               0.5849
        14                          0.0255044               0.6940
        15                          0.0256667               0.6984
       ...                                ...                  ...
        22                          0.2847252               7.7478
      -------------------------------------------------------------
                  HL-Gap            0.2562556 Eh            6.9731 eV
             Fermi-level           -0.2857633 Eh           -7.7760 eV

 SCC (total)                   0 d,  0 h,  0 min,  0.002 sec
 SCC setup                      ...        0 min,  0.000 sec ( 17.136%)
 Dispersion                     ...        0 min,  0.000 sec (  0.906%)
 classical contributions        ...        0 min,  0.000 sec (  0.338%)
 integral evaluation            ...        0 min,  0.000 sec ( 18.096%)
 iterations                     ...        0 min,  0.000 sec ( 19.218%)
 molecular gradient             ...        0 min,  0.001 sec ( 38.910%)
 printout                       ...        0 min,  0.000 sec (  4.882%)

         :::::::::::::::::::::::::::::::::::::::::::::::::::::
         ::                     SUMMARY                     ::
         :::::::::::::::::::::::::::::::::::::::::::::::::::::
         :: total energy             -11.381306292465 Eh    ::
         :: total w/o Gsasa/hb       -11.380806273921 Eh    ::
         :: gradient norm              0.000120330135 Eh/a0 ::
         :: HOMO-LUMO gap              6.973068890850 eV    ::
         ::.................................................::
         :: SCC energy               -11.485684972379 Eh    ::
         :: -> isotropic ES            0.010644646508 Eh    ::
         :: -> anisotropic ES         -0.000641337218 Eh    ::
         :: -> anisotropic XC          0.005964768049 Eh    ::
         :: -> dispersion             -0.003024543648 Eh    ::
         :: -> Gsolv                  -0.004398691057 Eh    ::
         ::    -> Gelec               -0.003898672513 Eh    ::
         ::    -> Gsasa               -0.000536314553 Eh    ::
         ::    -> Ghb                 -0.001044463689 Eh    ::
         ::    -> Gshift               0.001080759698 Eh    ::
         :: repulsion energy           0.104378679914 Eh    ::
         :: add. restraining           0.000000000000 Eh    ::
         :: total charge              -0.000000000000 e     ::
         :::::::::::::::::::::::::::::::::::::::::::::::::::::

           ------------------------------------------------- 
          |                Numerical Hessian                |
           ------------------------------------------------- 
step length          :   0.00500
SCC accuracy         :   0.30000
Hessian scale factor :   1.00000
frozen atoms in %    :   0.00000    0
RMS gradient         :   0.00012
estimated CPU  time      0.00 min
estimated wall time      0.00 min

writing file <hessian>.

 projected vibrational frequencies (cm⁻¹)
eigval :       -0.00    -0.00    -0.00     0.00     0.00     0.00
eigval :      227.98   313.81   645.07   803.51  1010.32  1054.11
eigval :     1088.17  1214.56  1241.33  1393.98  1429.98  1466.93
eigval :     1483.61  2998.09  2999.35  3042.72  3049.51  3053.66
           -------------------------------------------------
          |                Property Printout                |
           -------------------------------------------------

    * Orbital Energies and Occupations

         #    Occupation            Energy/Eh            Energy/eV
      -------------------------------------------------------------
         1        2.0000           -1.0560903             -28.7377
         2        2.0000           -0.6263602             -17.0441
         3        2.0000           -0.5783982             -15.7390
         4        2.0000           -0.5227139             -14.2238
         5        2.0000           -0.5144193             -13.9981
         6        2.0000           -0.4913570             -13.3705
         7        2.0000           -0.4558903             -12.4054
         8        2.0000           -0.4557664             -12.4020
         9        2.0000           -0.4174432             -11.3592
        10        2.0000           -0.4138907             -11.2625 (HOMO)
        11                         -0.1576345              -4.2895 (LUMO)
        12                          0.0172685               0.4699
        13                          0.0214949               0.5849
        14                          0.0255047               0.6940
        15                          0.0256670               0.6984
        16                          0.0963290               2.6212
        17                          0.1389522               3.7811
        18                          0.1602628               4.3610
        19                          0.1757113               4.7813
        20                          0.1907998               5.1919
        21                          0.2430936               6.6149
        22                          0.2847257               7.7478
      -------------------------------------------------------------
                  HL-Gap            0.2562562 Eh            6.9731 eV
             Fermi-level           -0.2857626 Eh           -7.7760 eV

     #   Z          covCN         q      C6AA      α(0)
     1   6 C        3.777    -0.129    23.001     6.833
     2   6 C        3.711     0.028    20.236     6.429
     3  17 Cl       0.912    -0.275   107.896    15.891
     4   1 H        0.925     0.076     2.016     2.221
     5   1 H        0.925     0.066     2.134     2.284
     6   1 H        0.925     0.066     2.134     2.284
     7   1 H        0.925     0.084     1.937     2.176
     8   1 H        0.925     0.084     1.937     2.176

 Mol. C6AA /au·bohr⁶  :        717.124120
 Mol. C8AA /au·bohr⁸  :      20085.342255
 Mol. α(0) /au        :         40.294813


Wiberg/Mayer (AO) data.
largest (>0.10) Wiberg bond orders for each atom

 ---------------------------------------------------------------------------
     #   Z sym  total        # sym  WBO       # sym  WBO       # sym  WBO
 ---------------------------------------------------------------------------
     1   6 C    3.987 --     2 C    1.033     6 H    0.984     5 H    0.984
                             4 H    0.973
     2   6 C    3.907 --     1 C    1.033     8 H    0.977     7 H    0.977
                             3 Cl   0.914
     3  17 Cl   0.954 --     2 C    0.914
     4   1 H    0.994 --     1 C    0.973
     5   1 H    0.996 --     1 C    0.984
     6   1 H    0.996 --     1 C    0.984
     7   1 H    0.993 --     2 C    0.977
     8   1 H    0.993 --     2 C    0.977
 ---------------------------------------------------------------------------

Topologies differ in total number of bonds
Writing topology from bond orders to xtbtopo.mol

molecular dipole:
                 x           y           z       tot (Debye)
 q only:       -1.140       0.364      -0.000
   full:       -0.948       0.341      -0.000       2.561
molecular quadrupole (traceless):
                xx          xy          yy          xz          yz          zz
 q only:        0.053      -0.066       0.419      -0.000       0.000      -0.472
  q+dip:       -0.977      -0.142       0.408      -0.000       0.000       0.568
   full:       -0.099      -0.494       0.278      -0.000       0.000      -0.179

           -------------------------------------------------
          |                Geometry Summary                 |
           -------------------------------------------------

      molecular mass/u    :       64.5141131
   center of mass at/Å    :       -0.0000125       0.0001182       0.0000131
  moments of inertia/u·Å² :        0.1608893E+02   0.9264231E+02   0.1023726E+03
rotational constants/cm⁻¹ :        0.1047778E+01   0.1819647E+00   0.1646694E+00

 * 7 selected distances

     #   Z          #   Z                                           value/Å
     1   6 C        2   6 C                                       1.5127164
     2   6 C        3  17 Cl                                      1.8050955 (max)
     1   6 C        4   1 H                                       1.0868210
     1   6 C        5   1 H                                       1.0865388
     1   6 C        6   1 H                                       1.0865388 (min)
     2   6 C        7   1 H                                       1.0880170
     2   6 C        8   1 H                                       1.0880170

 * 3 distinct bonds (by element types)

   Z      Z             #   av. dist./Å        max./Å        min./Å
   1 H    6 C           5     1.0871865     1.0880170     1.0865388
   6 C    6 C           1     1.5127164     1.5127164     1.5127164
   6 C   17 Cl          1     1.8050955     1.8050955     1.8050955

           -------------------------------------------------
          |               Frequency Printout                |
           -------------------------------------------------
 projected vibrational frequencies (cm⁻¹)
eigval :       -0.00    -0.00    -0.00     0.00     0.00     0.00
eigval :      227.98   313.81   645.07   803.51  1010.32  1054.11
eigval :     1088.17  1214.56  1241.33  1393.98  1429.98  1466.93
eigval :     1483.61  2998.09  2999.35  3042.72  3049.51  3053.66
 reduced masses (amu)
   1: 16.17   2: 19.67   3: 28.70   4: 27.13   5: 17.74   6:  6.80   7:  2.43   8: 15.58
   9: 16.70  10:  2.29  11:  5.39  12:  3.10  13:  8.54  14:  3.29  15:  3.16  16:  2.90
  17:  2.20  18:  1.50  19:  1.58  20:  1.47  21:  2.04  22:  1.79  23:  1.97  24:  1.41
 IR intensities (km·mol⁻¹)
   1:  0.29   2:  0.45   3:  0.97   4:  0.96   5:  1.85   6:  2.46   7:  0.08   8:  1.66
   9:  1.43  10:  7.39  11: 15.75  12:  1.93  13:  1.12  14:  0.14  15: 32.03  16: 11.91
  17:  0.11  18: 10.01  19:  2.34  20:  4.22  21:  2.66  22: 19.50  23: 24.13  24: 13.49
 Raman intensities (Ä⁴*amu⁻¹)
   1:  0.00   2:  0.00   3:  0.00   4:  0.00   5:  0.00   6:  0.00   7:  0.00   8:  0.00
   9:  0.00  10:  0.00  11:  0.00  12:  0.00  13:  0.00  14:  0.00  15:  0.00  16:  0.00
  17:  0.00  18:  0.00  19:  0.00  20:  0.00  21:  0.00  22:  0.00  23:  0.00  24:  0.00
 output can be read by thermo (or use thermo option).
 writing <g98.out> molden fake output.
 recommended (thermochemical) frequency scaling factor: 1.0
           -------------------------------------------------
          |             Thermodynamic Functions             |
           -------------------------------------------------

Molecule has the following symmetry elements: (sigma) 
It seems to be the Cs point group
cs  symmetry found (for desy threshold:  0.10E+00) used in thermo

          ...................................................
          :                      SETUP                      :
          :.................................................:
          :  # frequencies                          18      :
          :  # imaginary freq.                       0      :
          :  linear?                             false      :
          :  only rotor calc.                    false      :
          :  symmetry                               cs      :
          :  rotational number                       1      :
          :  scaling factor                  1.0000000      :
          :  rotor cutoff                    0.0000000 cm⁻¹ :
          :  imag. cutoff                 -100.0000000 cm⁻¹ :
          :.................................................:

    mode    ω/cm⁻¹     T·S(HO)/kcal·mol⁻¹    T·S(FR)/kcal·mol⁻¹   T·S(vib)
   ------------------------------------------------------------------------
       1    227.98    -0.56492 (100.00%)    -0.60676 (  0.00%)    -0.56492
   ------------------------------------------------------------------------

   temp. (K)  partition function   enthalpy   heat capacity  entropy
                                   cal/mol     cal/K/mol   cal/K/mol   J/K/mol
 298.15  VIB   2.11                  804.505      6.749      4.184
         ROT  0.298E+05              888.752      2.981     23.457
         INT  0.630E+05             1693.257      9.730     27.641
         TR   0.501E+27             1481.254      4.968     38.394
         TOT                        3174.5112    14.6985    66.0354   276.2920

       T/K    H(0)-H(T)+PV         H(T)/Eh          T*S/Eh         G(T)/Eh
   ------------------------------------------------------------------------
    298.15    0.505891E-02    0.700246E-01    0.313755E-01    0.386491E-01
   ------------------------------------------------------------------------

         :::::::::::::::::::::::::::::::::::::::::::::::::::::
         ::                  THERMODYNAMIC                  ::
         :::::::::::::::::::::::::::::::::::::::::::::::::::::
         :: total free energy         -11.342657183551 Eh   ::
         ::.................................................::
         :: total energy              -11.381306292480 Eh   ::
         :: zero point energy           0.064965736746 Eh   ::
         :: G(RRHO) w/o ZPVE           -0.026316627816 Eh   ::
         :: G(RRHO) contrib.            0.038649108930 Eh   ::
         :::::::::::::::::::::::::::::::::::::::::::::::::::::

optimized geometry written to: xtbopt.coord


           -------------------------------------------------
          | TOTAL ENERGY              -11.381306292480 Eh   |
          | TOTAL ENTHALPY            -11.311281650119 Eh   |
          | TOTAL FREE ENERGY         -11.342657183551 Eh   |
          | GRADIENT NORM               0.000119892734 Eh/α |
          | HOMO-LUMO GAP               6.973085606770 eV   |
           -------------------------------------------------

------------------------------------------------------------------------
 * finished run on 2025/04/03 at 19:52:16.623     
------------------------------------------------------------------------
 total:
 * wall-time:     0 d,  0 h,  0 min,  0.170 sec
 *  cpu-time:     0 d,  0 h,  0 min,  0.104 sec
 * ratio c/w:     0.613 speedup
 SCF:
 * wall-time:     0 d,  0 h,  0 min,  0.016 sec
 *  cpu-time:     0 d,  0 h,  0 min,  0.004 sec
 * ratio c/w:     0.266 speedup
 ANC optimizer:
 * wall-time:     0 d,  0 h,  0 min,  0.027 sec
 *  cpu-time:     0 d,  0 h,  0 min,  0.016 sec
 * ratio c/w:     0.578 speedup
 analytical hessian:
 * wall-time:     0 d,  0 h,  0 min,  0.083 sec
 *  cpu-time:     0 d,  0 h,  0 min,  0.077 sec
 * ratio c/w:     0.930 speedup

