8
 energy: -11.380616554418 gnorm: 0.019703850114 xtb: 6.7.1 (edcfbbe)
C           -1.71630888727886       -0.38222176991583       -0.00004378335587
C           -0.63372816565462        0.66498640852171        0.00003050957008
Cl           1.04049501669841       -0.11749398380150        0.00003059693615
H           -2.68580566146200        0.12981436251720       -0.00004203293573
H           -1.66399772448678       -1.01371260704244       -0.89064899062419
H           -1.66403974901884       -1.01379794365448        0.89050365180628
H           -0.65968289634830        1.29210798861571        0.89210968135292
H           -0.65964296596930        1.29219417530362       -0.89198937571687
8
 energy: -11.381130806624 gnorm: 0.011072370774 xtb: 6.7.1 (edcfbbe)
C           -1.71945761679517       -0.37848754416805       -0.00004385733173
C           -0.63657533450085        0.66842576321238        0.00003127876765
Cl           1.01418646565736       -0.11779139037129        0.00002887012149
H           -2.68737156717996        0.12292707674521       -0.00004331045588
H           -1.65372333016171       -1.00845163329464       -0.88419377309218
H           -1.65376548059012       -1.00853497858079        0.88404980112042
H           -0.65302211259379        1.28685167609881        0.89496469918730
H           -0.65298205735608        1.28693766090234       -0.89484345128429
8
 energy: -11.381278478557 gnorm: 0.004160646144 xtb: 6.7.1 (edcfbbe)
C           -1.72102826281478       -0.37685818245661       -0.00004391107904
C           -0.63048718776991        0.66679622820351        0.00003062996000
Cl           1.00316385085360       -0.11703317210119        0.00003010749698
H           -2.68574694129214        0.12201532394624       -0.00004255152819
H           -1.65008406737560       -1.00566187499721       -0.88196659232867
H           -1.65012471962191       -1.00574537524821        0.88182249732766
H           -0.65422160514606        1.28413847415806        0.89383586186107
H           -0.65418210035351        1.28422520903939       -0.89371578467702
8
 energy: -11.381303018774 gnorm: 0.001401401600 xtb: 6.7.1 (edcfbbe)
C           -1.72044389668199       -0.37767822017259       -0.00004389704708
C           -0.62656993125007        0.66635452518619        0.00003109537338
Cl           1.00037584041827       -0.11787521535174        0.00002941323121
H           -2.68405385898167        0.12315932491402       -0.00004250273398
H           -1.65024118915412       -1.00670536896486       -0.88255754819132
H           -1.65028207291970       -1.00678907087412        0.88241330208315
H           -0.65576812095395        1.28566243712627        0.89322532836950
H           -0.65572780399708        1.28574821868082       -0.89310493405210
8
 energy: -11.381305354017 gnorm: 0.000733731199 xtb: 6.7.1 (edcfbbe)
C           -1.72056467178760       -0.37854791543437       -0.00004393657057
C           -0.62393430534014        0.66453973699592        0.00003068861361
Cl           1.00310785389355       -0.11528733447179        0.00003043978619
H           -2.68390567533035        0.12507357557826       -0.00004190452374
H           -1.65228992921509       -1.00793743385792       -0.88342447326402
H           -1.65233026867017       -1.00802175308592        0.88327966291714
H           -0.65641699194953        1.28598585136273        0.89282428050300
H           -0.65637704512098        1.28607190345706       -0.89270450042883
8
 energy: -11.381306212610 gnorm: 0.000190899317 xtb: 6.7.1 (edcfbbe)
C           -1.71995583048612       -0.37841463458535       -0.00004391775266
C           -0.62500038183513        0.66546442026881        0.00003093766200
Cl           1.00166947448217       -0.11716032973683        0.00002997259560
H           -2.68348782183619        0.12459151982735       -0.00004199201604
H           -1.65142364807637       -1.00771661105552       -0.88327858933697
H           -1.65146409491520       -1.00780088331074        0.88313384127872
H           -0.65654454068195        1.28641376116877        0.89304477017949
H           -0.65650419017153        1.28649938796748       -0.89292476557736
8
 energy: -11.381306292299 gnorm: 0.000122124549 xtb: 6.7.1 (edcfbbe)
C           -1.72027719875012       -0.37827540614760       -0.00004392273271
C           -0.62506934591334        0.66519494922420        0.00003089706800
Cl           1.00205852283082       -0.11635747984152        0.00003011361033
H           -2.68384269030875        0.12443838625773       -0.00004192359218
H           -1.65159191006941       -1.00756717881407       -0.88312973972690
H           -1.65163223031352       -1.00765151193877        0.88298492577980
H           -0.65619828039363        1.28600463737185        0.89300744614903
H           -0.65615790060236        1.28609023443215       -0.89288753952261
