41
 energy: -2932.481200463817 gnorm: 0.000628574721 xtb: 6.7.1 (edcfbbe)
C            2.40292112495338       -1.71823115161850        2.93854804265324
C            1.16221313030066       -1.70496549377743        2.08047447915995
O            1.06965012342819       -0.47914429662532        1.27094426023932
P            2.04320262722502       -0.21399918018052        0.02358735422730
S            2.62320934961058       -1.76527367134175       -1.00082572416864
O            3.18419394831294        0.67769434486802        0.72985655488066
C            4.39995159224940        1.06711879566586       -0.00340353132773
C            5.59234473907379        0.41709192300205        0.64984990320631
S            1.00787967078505        1.28242542046053       -1.05967009258265
C            0.04772050146676        0.26951071880120       -2.25177636045726
S           -1.18059623917856       -0.90857563880104       -1.56962361028504
P           -2.51417446993761        0.45206413842990       -0.61695521656522
S           -2.97822740892949        2.04767066661381       -1.63018598177399
O           -1.84367820481949        0.69694179284584        0.82301729636904
C           -1.63713224702387        2.01317808861793        1.43305960131468
C           -2.81418006882271        2.37505856688842        2.30347195154238
O           -3.78892888831460       -0.47834971904022       -0.32549866390240
C           -3.73799839457135       -1.89294768378375        0.09181662049954
C           -3.03121809797416       -2.11679990234192        1.40597523261710
H            3.31263254882721       -1.77215987185676        2.33255210664034
H            2.44908759549038       -0.82902465142476        3.57375773988135
H            2.37197234131512       -2.60284982458953        3.58318219600276
H            0.25375095243078       -1.67682964130966        2.68537248868115
H            1.11649952442869       -2.56501147296648        1.40527678118025
H            4.30499633089039        0.77397643947025       -1.05331745926457
H            4.43986653753969        2.15727678986419        0.05742835164651
H            5.66154353372122        0.69983234625631        1.70426640449262
H            5.53222899824147       -0.67243838040745        0.57526716991453
H            6.50331219853175        0.75040234478288        0.14210811983134
H            0.73401056174662       -0.34618776941379       -2.83992000531724
H           -0.45339735339169        0.98861813647783       -2.90611929269679
H           -0.71815086789366        1.90017922720307        2.01300231178239
H           -1.47109082269993        2.74927815569304        0.64189074039555
H           -3.72578597432936        2.48071274852248        1.70764332546022
H           -2.97834489255370        1.61786255255624        3.07558315457918
H           -2.61169631704182        3.33209686013534        2.79561206206944
H           -4.79343154728433       -2.16251750279306        0.16036213691542
H           -3.28981084216085       -2.47237860028688       -0.72203833007979
H           -3.45776525738626       -1.49112142410852        2.19495740931070
H           -3.17114606806241       -3.16647363353304        1.68516952986002
H           -1.95643496615527       -1.92743979339503        1.33843329754784
41
 energy: -2932.481199140402 gnorm: 0.001161059465 xtb: 6.7.1 (edcfbbe)
C            2.40318699158945       -1.71804879936828        2.93836342028235
C            1.16272125765806       -1.70417598310876        2.07976417298882
O            1.07018847932993       -0.47884888158002        1.26924980949518
P            2.04357743401652       -0.21481158943603        0.02158841831790
S            2.62430482290502       -1.76734193059380       -1.00090645994113
O            3.18395306198587        0.67763156913045        0.72763685611208
C            4.40058977432579        1.06677641579135       -0.00453259597261
C            5.59269919027869        0.41666720482622        0.64950578592769
S            1.00804681045238        1.28440438600205       -1.05768416142727
C            0.04889275265370        0.26925449336531       -2.24924495125076
S           -1.17987766839568       -0.91036974074637       -1.57020483193051
P           -2.51243796432112        0.45197887187063       -0.61754533763824
S           -2.97821376088540        2.04760937003623       -1.62957409707649
O           -1.84283116404048        0.69737085674560        0.82264671889918
C           -1.63836071226519        2.01340114388701        1.43359920114142
C           -2.81631305017033        2.37416008612252        2.30338525488471
O           -3.78778690474871       -0.47766653037997       -0.32593386563908
C           -3.73811262429238       -1.89228627325471        0.09209849272750
C           -3.03148396093945       -2.11621970549953        1.40629782572429
H            3.31299854012619       -1.77332177661070        2.33276702261302
H            2.45019019770534       -0.82846492043925        3.57285436540153
H            2.37121168608554       -2.60186815962382        3.58398928295424
H            0.25409742274351       -1.67583289354352        2.68448132448669
H            1.11698374925938       -2.56451226717381        1.40492439234913
H            4.30605480218449        0.77338053832948       -1.05459896250896
H            4.44071894837321        2.15716882920806        0.05637283127731
H            5.66108779335329        0.69888747131576        1.70405713354023
H            5.53280631635069       -0.67286144631710        0.57419856884272
H            6.50413834213871        0.75051368520195        0.14318697899811
H            0.73470874942165       -0.34603793921196       -2.83838613755536
H           -0.45262599077485        0.98838302145053       -2.90345183713700
H           -0.71983952583220        1.90073916528583        2.01440152918695
H           -1.47204291906853        2.75004619046543        0.64301772826464
H           -3.72751206909763        2.47991727204746        1.70679695873241
H           -2.98079198972522        1.61626930642526        3.07480127405915
H           -2.61443908262774        3.33087134226174        2.79656217856587
H           -4.79376882170155       -2.16099709168426        0.16066014239202
H           -3.29035144822156       -2.47219346352651       -0.72156421651817
H           -3.45735937427362       -1.48975319584233        2.19496590409834
H           -3.17243615998006       -3.16561562628840        1.68605482369550
H           -1.95657963660270       -1.92791908262802        1.33856183612337
41
 energy: -2932.481204805897 gnorm: 0.000510414640 xtb: 6.7.1 (edcfbbe)
C            2.40370814488796       -1.71805798914990        2.93850437535035
C            1.16331003552822       -1.70375147507141        2.07974549705208
O            1.07150592589988       -0.47825158000683        1.26937935972800
P            2.04521001228477       -0.21446321734641        0.02193349690629
S            2.62430683582935       -1.76669349793978       -1.00192145137249
O            3.18555145456611        0.67790086331528        0.72765814956631
C            4.40212745861174        1.06666507856816       -0.00471252064360
C            5.59400235838708        0.41606519315687        0.64938959787761
S            1.00849619667124        1.28284196467548       -1.05853249148300
C            0.04903055126983        0.26936083875874       -2.25106122730107
S           -1.17945897412493       -0.90948186450757       -1.57027224471897
P           -2.51277433720270        0.45207814871740       -0.61748703756052
S           -2.97755546359020        2.04761370422512       -1.63006123933040
O           -1.84239843289172        0.69769950386796        0.82228550789863
C           -1.63960757802075        2.01349187726775        1.43420022553841
C           -2.81864519118221        2.37286725768974        2.30321194960848
O           -3.78827607171101       -0.47715912379191       -0.32534050730030
C           -3.73888321988637       -1.89175183642348        0.09287835336970
C           -3.03191879897208       -2.11572872470626        1.40687394972655
H            3.31353798917748       -1.77484025419631        2.33313681173104
H            2.45161326171252       -0.82798908838482        3.57219935901884
H            2.37054240857523       -2.60113114139577        3.58504913514567
H            0.25449284900007       -1.67505430937327        2.68420360898601
H            1.11740281000588       -2.56399808948273        1.40477167968114
H            4.30744382982566        0.77321092725084       -1.05487838647536
H            4.44266151129784        2.15716457431107        0.05613504779071
H            5.66164999701645        0.69752661917234        1.70415252793020
H            5.53408977932997       -0.67341677641012        0.57312667177066
H            6.50574782381132        0.75047930874412        0.14412409751849
H            0.73465317516815       -0.34610520616473       -2.84015428962244
H           -0.45282673848231        0.98876727654009       -2.90472067229068
H           -0.72151747905225        1.90119166874088        2.01580588564602
H           -1.47317373631027        2.75074360757905        0.64420525809370
H           -3.72936752095938        2.47885196907796        1.70585026033228
H           -2.98351410007250        1.61418110833737        3.07379733761283
H           -2.61749290830029        3.32917910155019        2.79753422760275
H           -4.79461546645208       -2.16003778367389        0.16173527040569
H           -3.29153950490252       -2.47199575158375       -0.72076582208812
H           -3.45691514645015       -1.48842747482018        2.19533549543261
H           -3.17374111785709       -3.16485198208181        1.68726978658857
H           -1.95687646265234       -1.92839719102223        1.33860637494608
41
 energy: -2932.481207815411 gnorm: 0.000641217197 xtb: 6.7.1 (edcfbbe)
C            2.40506919609883       -1.71791515941773        2.93858137887847
C            1.16472654352651       -1.70332325694034        2.07981143882099
O            1.07357659153569       -0.47739832603482        1.27019557748687
P            2.04627164738103       -0.21309405253268        0.02201074834046
S            2.62513186287029       -1.76459077777220       -1.00254302827193
O            3.18796402031300        0.67791593216820        0.72695829395645
C            4.40480850041961        1.06585271379568       -0.00551940056188
C            5.59604406351499        0.41446303564793        0.64893409051842
S            1.01150001001913        1.28305745760887       -1.06289836384345
C            0.04845415501679        0.26926509333426       -2.25204378145041
S           -1.17963078858973       -0.90857857579325       -1.56795809920666
P           -2.51294649278186        0.45329010477951       -0.61736520102657
S           -2.97574144949471        2.04839343879962       -1.63197304513163
O           -1.84124115264629        0.69815912861950        0.82182342669389
C           -1.64197796710003        2.01344052315667        1.43572989807167
C           -2.82348787758953        2.36989967453921        2.30270021142267
O           -3.78841463188470       -0.47608045142556       -0.32514477737643
C           -3.73953209012072       -1.89056627199310        0.09368778209023
C           -3.03262757357580       -2.11410364166303        1.40779416285605
H            3.31490807764331       -1.77722107501018        2.33338679225228
H            2.45416468015252       -0.82675039349107        3.57076429787794
H            2.37016771738095       -2.59985079089406        3.58662644882566
H            0.25588228759684       -1.67414528445017        2.68416827404167
H            1.11842558657863       -2.56330811985657        1.40453635361893
H            4.31017426181246        0.77282701779025       -1.05573673506833
H            4.44597275696091        2.15622412130317        0.05548565602982
H            5.66213366227858        0.69450249405692        1.70422687939374
H            5.53652341011682       -0.67490202054122        0.57110286085075
H            6.50828641331843        0.74996681624839        0.14519621095619
H            0.73362662693116       -0.34676231736171       -2.84108257622509
H           -0.45341782820807        0.98842815861788       -2.90589113891848
H           -0.72490105077579        1.90210353972481        2.01907819524526
H           -1.47531797856887        2.75189065702285        0.64686145069473
H           -3.73307342804872        2.47614169135091        1.70371891287005
H           -2.98925912910485        1.60962683722685        3.07150655962110
H           -2.62441719784974        3.32547405501441        2.79921770090142
H           -4.79545944761909       -2.15801908844498        0.16293004148559
H           -3.29264580348829       -2.47136651794252       -0.71982007160034
H           -3.45640442630022       -1.48535100304823        2.19579510357685
H           -3.17606701705416       -3.16269395626280        1.68935663676678
H           -1.95727557721252       -1.92857771730875        1.33904514607603
41
 energy: -2932.481207815411 gnorm: 0.000641217197 xtb: 6.7.1 (edcfbbe)
C            2.40506919609883       -1.71791515941773        2.93858137887847
C            1.16472654352651       -1.70332325694034        2.07981143882099
O            1.07357659153569       -0.47739832603482        1.27019557748687
P            2.04627164738103       -0.21309405253268        0.02201074834046
S            2.62513186287029       -1.76459077777220       -1.00254302827193
O            3.18796402031300        0.67791593216820        0.72695829395645
C            4.40480850041961        1.06585271379568       -0.00551940056188
C            5.59604406351499        0.41446303564793        0.64893409051842
S            1.01150001001913        1.28305745760887       -1.06289836384345
C            0.04845415501679        0.26926509333426       -2.25204378145041
S           -1.17963078858973       -0.90857857579325       -1.56795809920666
P           -2.51294649278186        0.45329010477951       -0.61736520102657
S           -2.97574144949471        2.04839343879962       -1.63197304513163
O           -1.84124115264629        0.69815912861950        0.82182342669389
C           -1.64197796710003        2.01344052315667        1.43572989807167
C           -2.82348787758953        2.36989967453921        2.30270021142267
O           -3.78841463188470       -0.47608045142556       -0.32514477737643
C           -3.73953209012072       -1.89056627199310        0.09368778209023
C           -3.03262757357580       -2.11410364166303        1.40779416285605
H            3.31490807764331       -1.77722107501018        2.33338679225228
H            2.45416468015252       -0.82675039349107        3.57076429787794
H            2.37016771738095       -2.59985079089406        3.58662644882566
H            0.25588228759684       -1.67414528445017        2.68416827404167
H            1.11842558657863       -2.56330811985657        1.40453635361893
H            4.31017426181246        0.77282701779025       -1.05573673506833
H            4.44597275696091        2.15622412130317        0.05548565602982
H            5.66213366227858        0.69450249405692        1.70422687939374
H            5.53652341011682       -0.67490202054122        0.57110286085075
H            6.50828641331843        0.74996681624839        0.14519621095619
H            0.73362662693116       -0.34676231736171       -2.84108257622509
H           -0.45341782820807        0.98842815861788       -2.90589113891848
H           -0.72490105077579        1.90210353972481        2.01907819524526
H           -1.47531797856887        2.75189065702285        0.64686145069473
H           -3.73307342804872        2.47614169135091        1.70371891287005
H           -2.98925912910485        1.60962683722685        3.07150655962110
H           -2.62441719784974        3.32547405501441        2.79921770090142
H           -4.79545944761909       -2.15801908844498        0.16293004148559
H           -3.29264580348829       -2.47136651794252       -0.71982007160034
H           -3.45640442630022       -1.48535100304823        2.19579510357685
H           -3.17606701705416       -3.16269395626280        1.68935663676678
H           -1.95727557721252       -1.92857771730875        1.33904514607603
