      -----------------------------------------------------------      
     |                   =====================                   |     
     |                           x T B                           |     
     |                   =====================                   |     
     |                         S. Grimme                         |     
     |          Mulliken Center for Theoretical Chemistry        |     
     |                    University of Bonn                     |     
      -----------------------------------------------------------      

   * xtb version 6.7.1 (edcfbbe) compiled by 'albert@albert-system' on 2024-07-22

   xtb is free software: you can redistribute it and/or modify it under
   the terms of the GNU Lesser General Public License as published by
   the Free Software Foundation, either version 3 of the License, or
   (at your option) any later version.
   
   xtb is distributed in the hope that it will be useful,
   but WITHOUT ANY WARRANTY; without even the implied warranty of
   MERCHANTABILITY or FITNESS FOR A PARTICULAR PURPOSE.  See the
   GNU Lesser General Public License for more details.
   
   Cite this work as:
   * C. Bannwarth, E. Caldeweyher, S. Ehlert, A. Hansen, P. Pracht,
     J. Seibert, S. Spicher, S. Grimme, WIREs Comput. Mol. Sci., 2020, 11,
     e01493. DOI: 10.1002/wcms.1493
   
   for GFN2-xTB:
   * C. Bannwarth, S. Ehlert and S. Grimme., J. Chem. Theory Comput., 2019,
     15, 1652-1671. DOI: 10.1021/acs.jctc.8b01176
   for GFN1-xTB:
   * S. Grimme, C. Bannwarth, P. Shushkov, J. Chem. Theory Comput., 2017,
     13, 1989-2009. DOI: 10.1021/acs.jctc.7b00118
   for GFN0-xTB:
   * P. Pracht, E. Caldeweyher, S. Ehlert, S. Grimme, ChemRxiv, 2019, preprint.
     DOI: 10.26434/chemrxiv.8326202.v1
   for GFN-FF:
   * S. Spicher and S. Grimme, Angew. Chem. Int. Ed., 2020, 59, 15665-15673.
     DOI: 10.1002/anie.202004239
   
   for ALPB and GBSA implicit solvation:
   * S. Ehlert, M. Stahn, S. Spicher, S. Grimme, J. Chem. Theory Comput.,
     2021, 17, 4250-4261. DOI: 10.1021/acs.jctc.1c00471
   
   for ddCOSMO and CPCM-X implicit solvation:
   * M. Stahn, S. Ehlert, S. Grimme, J. Phys. Chem. A,
     2023, XX, XXXX-XXXX. DOI: 10.1021/acs.jpca.3c04382
   
   for DFT-D4:
   * E. Caldeweyher, C. Bannwarth and S. Grimme, J. Chem. Phys., 2017,
     147, 034112. DOI: 10.1063/1.4993215
   * E. Caldeweyher, S. Ehlert, A. Hansen, H. Neugebauer, S. Spicher,
     C. Bannwarth and S. Grimme, J. Chem. Phys., 2019, 150, 154122.
     DOI: 10.1063/1.5090222
   * E. Caldeweyher, J.-M. Mewes, S. Ehlert and S. Grimme, Phys. Chem. Chem. Phys.
     2020, 22, 8499-8512. DOI: 10.1039/D0CP00502A
   
   for sTDA-xTB:
   * S. Grimme and C. Bannwarth, J. Chem. Phys., 2016, 145, 054103.
     DOI: 10.1063/1.4959605
   
   in the mass-spec context:
   * V. Asgeirsson, C. Bauer and S. Grimme, Chem. Sci., 2017, 8, 4879.
     DOI: 10.1039/c7sc00601b
   * J. Koopman and S. Grimme, ACS Omega 2019, 4, 12, 15120-15133.
     DOI: 10.1021/acsomega.9b02011
   
   for metadynamics refer to:
   * S. Grimme, J. Chem. Theory Comput., 2019, 155, 2847-2862
     DOI: 10.1021/acs.jctc.9b00143
   
   for SPH calculations refer to:
   * S. Spicher and S. Grimme, J. Chem. Theory Comput., 2021, 17, 1701-1714
     DOI: 10.1021/acs.jctc.0c01306
   
   for ONIOM refer to:
   * C. Plett, A. Katbashev, S. Ehlert, S. Grimme, M. Bursch,
     Phys. Chem. Chem. Phys., 2023, 25, 17860-17868. DOI: 10.1039/D3CP02178E
   
   for DIPRO refer to:
   * J. Kohn, N. Gildemeister, S. Grimme, D. Fazzi, A. Hansen,
     J. Chem. Phys., 2023, just accepted.
   
   for PTB refer to:
   * S. Grimme, M. Mueller, A. Hansen, J. Chem. Phys., 2023, 158, 124111.
     DOI: 10.1063/5.0137838
   
   with help from (in alphabetical order)
   P. Atkinson, C. Bannwarth, F. Bohle, G. Brandenburg, E. Caldeweyher
   M. Checinski, S. Dohm, S. Ehlert, S. Ehrlich, I. Gerasimov, C. Hölzer
   A. Katbashev, J. Kohn, J. Koopman, C. Lavigne, S. Lehtola, F. März, M. Müller,
   F. Musil, H. Neugebauer, J. Pisarek, C. Plett, P. Pracht, F. Pultar,
   J. Seibert, P. Shushkov, S. Spicher, M. Stahn, M. Steiner, T. Strunk,
   J. Stückrath, T. Rose, and J. Unsleber
   
 * started run on 2025/04/09 at 05:20:52.010     
   ID    Z sym.   atoms
    1    6 C      1, 2, 7, 8, 10, 15, 16, 18, 19
    2    8 O      3, 6, 14, 17
    3   15 P      4, 12
    4   16 S      5, 9, 11, 13
    5    1 H      20-41

           -------------------------------------------------
          |                Calculation Setup                |
           -------------------------------------------------

          program call               : /srv/scratch/z5358697/.xtb/bin/xtb gas.coord --gfn2 --sp --chrg 0 --norestart --parallel 1
          hostname                   : k163
          coordinate file            : gas.coord
          omp threads                :                     1


           -------------------------------------------------
          |                 G F N 2 - x T B                 |
           -------------------------------------------------

        Reference                      10.1021/acs.jctc.8b01176
      * Hamiltonian:
        H0-scaling (s, p, d)           1.850000    2.230000    2.230000
        zeta-weighting                 0.500000
      * Dispersion:
        s8                             2.700000
        a1                             0.520000
        a2                             5.000000
        s9                             5.000000
      * Repulsion:
        kExp                           1.500000    1.000000
        rExp                           1.000000
      * Coulomb:
        alpha                          2.000000
        third order                    shell-resolved
        anisotropic                    true
        a3                             3.000000
        a5                             4.000000
        cn-shift                       1.200000
        cn-exp                         4.000000
        max-rad                        5.000000


          ...................................................
          :                      SETUP                      :
          :.................................................:
          :  # basis functions                 134          :
          :  # atomic orbitals                 128          :
          :  # shells                           66          :
          :  # electrons                       116          :
          :  max. iterations                   250          :
          :  Hamiltonian                  GFN2-xTB          :
          :  restarted?                      false          :
          :  GBSA solvation                  false          :
          :  PC potential                    false          :
          :  electronic temp.          300.0000000     K    :
          :  accuracy                    1.0000000          :
          :  -> integral cutoff          0.2500000E+02      :
          :  -> integral neglect         0.1000000E-07      :
          :  -> SCF convergence          0.1000000E-05 Eh   :
          :  -> wf. convergence          0.1000000E-03 e    :
          :  Broyden damping             0.4000000          :
          :  net charge                          0          :
          :  unpaired electrons                  0          :
          ...................................................

 iter      E             dE          RMSdq      gap      omega  full diag
   1    -65.3762262 -0.653762E+02  0.625E+00    4.28       0.0  T
   2    -65.5474856 -0.171259E+00  0.387E+00    3.03       1.0  T
   3    -65.5661351 -0.186495E-01  0.141E+00    2.88       1.0  T
   4    -65.5686896 -0.255456E-02  0.578E-01    2.59       1.0  T
   5    -65.5698266 -0.113699E-02  0.279E-01    2.72       1.0  T
   6    -65.5700783 -0.251690E-03  0.129E-01    2.70       1.0  T
   7    -65.5701353 -0.570196E-04  0.484E-02    2.71       1.0  T
   8    -65.5701428 -0.746056E-05  0.208E-02    2.71       1.0  T
   9    -65.5701437 -0.932783E-06  0.560E-03    2.71       2.8  T
  10    -65.5701438 -0.855949E-07  0.257E-03    2.71       6.1  T
  11    -65.5701438 -0.712933E-08  0.542E-04    2.71      28.8  T
  12    -65.5701438 -0.106512E-08  0.287E-04    2.71      54.5  T

   *** convergence criteria satisfied after 12 iterations ***

         #    Occupation            Energy/Eh            Energy/eV
      -------------------------------------------------------------
         1        2.0000           -0.7539837             -20.5169
       ...           ...                  ...                  ...
        52        2.0000           -0.4317939             -11.7497
        53        2.0000           -0.4076694             -11.0932
        54        2.0000           -0.3974960             -10.8164
        55        2.0000           -0.3721101             -10.1256
        56        2.0000           -0.3704599             -10.0807
        57        2.0000           -0.3598564              -9.7922
        58        2.0000           -0.3556958              -9.6790 (HOMO)
        59                         -0.2559655              -6.9652 (LUMO)
        60                         -0.2418506              -6.5811
        61                         -0.2182740              -5.9395
        62                         -0.1843063              -5.0152
        63                         -0.1650414              -4.4910
       ...                                ...                  ...
       128                          1.4135375              38.4643
      -------------------------------------------------------------
                  HL-Gap            0.0997303 Eh            2.7138 eV
             Fermi-level           -0.3058307 Eh           -8.3221 eV

 SCC (total)                   0 d,  0 h,  0 min,  0.064 sec
 SCC setup                      ...        0 min,  0.000 sec (  0.422%)
 Dispersion                     ...        0 min,  0.000 sec (  0.480%)
 classical contributions        ...        0 min,  0.000 sec (  0.093%)
 integral evaluation            ...        0 min,  0.015 sec ( 23.145%)
 iterations                     ...        0 min,  0.026 sec ( 40.099%)
 molecular gradient             ...        0 min,  0.022 sec ( 34.978%)
 printout                       ...        0 min,  0.000 sec (  0.757%)

         :::::::::::::::::::::::::::::::::::::::::::::::::::::
         ::                     SUMMARY                     ::
         :::::::::::::::::::::::::::::::::::::::::::::::::::::
         :: total energy             -65.008664883129 Eh    ::
         :: gradient norm              0.036621639736 Eh/a0 ::
         :: HOMO-LUMO gap              2.713799966517 eV    ::
         ::.................................................::
         :: SCC energy               -65.569062238806 Eh    ::
         :: -> isotropic ES            0.108405892355 Eh    ::
         :: -> anisotropic ES         -0.014006034950 Eh    ::
         :: -> anisotropic XC          0.030798092209 Eh    ::
         :: -> dispersion             -0.055507247696 Eh    ::
         :: repulsion energy           0.560397355677 Eh    ::
         :: add. restraining           0.000000000000 Eh    ::
         :: total charge               0.000000000000 e     ::
         :::::::::::::::::::::::::::::::::::::::::::::::::::::

           -------------------------------------------------
          |                Property Printout                |
           -------------------------------------------------

    * Orbital Energies and Occupations

         #    Occupation            Energy/Eh            Energy/eV
      -------------------------------------------------------------
         1        2.0000           -0.7539837             -20.5169
       ...           ...                  ...                  ...
        46        2.0000           -0.4600143             -12.5176
        47        2.0000           -0.4585438             -12.4776
        48        2.0000           -0.4543345             -12.3631
        49        2.0000           -0.4531045             -12.3296
        50        2.0000           -0.4493471             -12.2274
        51        2.0000           -0.4398243             -11.9682
        52        2.0000           -0.4317939             -11.7497
        53        2.0000           -0.4076694             -11.0932
        54        2.0000           -0.3974960             -10.8164
        55        2.0000           -0.3721101             -10.1256
        56        2.0000           -0.3704599             -10.0807
        57        2.0000           -0.3598564              -9.7922
        58        2.0000           -0.3556958              -9.6790 (HOMO)
        59                         -0.2559655              -6.9652 (LUMO)
        60                         -0.2418506              -6.5811
        61                         -0.2182740              -5.9395
        62                         -0.1843063              -5.0152
        63                         -0.1650414              -4.4910
        64                         -0.1482340              -4.0337
        65                         -0.1381359              -3.7589
        66                         -0.1338519              -3.6423
        67                         -0.1178549              -3.2070
        68                         -0.1061744              -2.8892
        69                         -0.0383842              -1.0445
       ...                                ...                  ...
       128                          1.4135375              38.4643
      -------------------------------------------------------------
                  HL-Gap            0.0997303 Eh            2.7138 eV
             Fermi-level           -0.3058307 Eh           -8.3221 eV

     #   Z          covCN         q      C6AA      α(0)
     1   6 C        3.751    -0.116    22.778     6.806
     2   6 C        3.840     0.086    19.136     6.223
     3   8 O        1.654    -0.225    17.753     5.688
     4  15 P        3.842     0.380   144.454    21.590
     5  16 S        0.927    -0.388   156.073    21.131
     6   8 O        1.655    -0.250    18.167     5.754
     7   6 C        3.861     0.083    19.170     6.227
     8   6 C        3.751    -0.118    22.831     6.814
     9  16 S        2.001    -0.163   147.920    20.470
    10   6 C        3.808     0.043    19.855     6.343
    11  16 S        2.000    -0.163   147.951    20.472
    12  15 P        3.834     0.397   143.807    21.542
    13  16 S        0.925    -0.397   156.466    21.157
    14   8 O        1.655    -0.252    18.191     5.758
    15   6 C        3.842     0.089    19.087     6.215
    16   6 C        3.751    -0.117    22.806     6.811
    17   8 O        1.656    -0.262    18.357     5.784
    18   6 C        3.871     0.082    19.182     6.228
    19   6 C        3.751    -0.116    22.775     6.806
    20   1 H        0.925     0.056     2.242     2.342
    21   1 H        0.925     0.068     2.111     2.272
    22   1 H        0.925     0.062     2.175     2.306
    23   1 H        0.924     0.054     2.269     2.356
    24   1 H        0.924     0.069     2.098     2.265
    25   1 H        0.924     0.064     2.158     2.297
    26   1 H        0.924     0.063     2.159     2.298
    27   1 H        0.925     0.061     2.190     2.314
    28   1 H        0.925     0.063     2.170     2.304
    29   1 H        0.925     0.062     2.175     2.306
    30   1 H        0.925     0.086     1.922     2.168
    31   1 H        0.925     0.082     1.955     2.186
    32   1 H        0.924     0.052     2.298     2.371
    33   1 H        0.924     0.065     2.147     2.291
    34   1 H        0.925     0.066     2.125     2.279
    35   1 H        0.925     0.054     2.274     2.358
    36   1 H        0.925     0.077     2.012     2.218
    37   1 H        0.924     0.062     2.181     2.310
    38   1 H        0.924     0.065     2.145     2.290
    39   1 H        0.924     0.059     2.206     2.323
    40   1 H        0.925     0.061     2.187     2.313
    41   1 H        0.925     0.060     2.195     2.317

 Mol. C6AA /au·bohr⁶  :      26547.834900
 Mol. C8AA /au·bohr⁸  :     863252.294924
 Mol. α(0) /au        :        258.301709


Wiberg/Mayer (AO) data.
largest (>0.10) Wiberg bond orders for each atom

 ---------------------------------------------------------------------------
     #   Z sym  total        # sym  WBO       # sym  WBO       # sym  WBO
 ---------------------------------------------------------------------------
     1   6 C    3.989 --     2 C    1.021    21 H    0.983    22 H    0.981
                            20 H    0.980
     2   6 C    3.910 --     1 C    1.021    24 H    0.970    23 H    0.966
                             3 O    0.886
     3   8 O    2.431 --     4 P    1.350     2 C    0.886
     4  15 P    5.302 --     5 S    1.577     3 O    1.350     6 O    1.307
                             9 S    0.945
     5  16 S    1.908 --     4 P    1.577     9 S    0.138
     6   8 O    2.408 --     4 P    1.307     7 C    0.905
     7   6 C    3.910 --     8 C    1.022    25 H    0.970    26 H    0.969
                             6 O    0.905
     8   6 C    3.991 --     7 C    1.022    29 H    0.983    27 H    0.980
                            28 H    0.977
     9  16 S    2.267 --    10 C    0.991     4 P    0.945     5 S    0.138
    10   6 C    3.960 --     9 S    0.991    11 S    0.977    31 H    0.968
                            30 H    0.953
    11  16 S    2.243 --    10 C    0.977    12 P    0.953    13 S    0.144
    12  15 P    5.221 --    13 S    1.533    14 O    1.305    17 O    1.286
                            11 S    0.953
    13  16 S    1.874 --    12 P    1.533    11 S    0.144
    14   8 O    2.393 --    12 P    1.305    15 C    0.887
    15   6 C    3.906 --    16 C    1.022    32 H    0.973    33 H    0.969
                            14 O    0.887
    16   6 C    3.987 --    15 C    1.022    36 H    0.980    35 H    0.980
                            34 H    0.977
    17   8 O    2.391 --    12 P    1.286    18 C    0.914
    18   6 C    3.913 --    19 C    1.022    37 H    0.969    38 H    0.964
                            17 O    0.914
    19   6 C    3.991 --    18 C    1.022    40 H    0.984    41 H    0.981
                            39 H    0.972
    20   1 H    0.995 --     1 C    0.980
    21   1 H    0.995 --     1 C    0.983
    22   1 H    0.996 --     1 C    0.981
    23   1 H    0.997 --     2 C    0.966
    24   1 H    0.995 --     2 C    0.970
    25   1 H    0.996 --     7 C    0.970
    26   1 H    0.996 --     7 C    0.969
    27   1 H    0.996 --     8 C    0.980
    28   1 H    0.996 --     8 C    0.977
    29   1 H    0.996 --     8 C    0.983
    30   1 H    0.993 --    10 C    0.953
    31   1 H    0.992 --    10 C    0.968
    32   1 H    0.997 --    15 C    0.973
    33   1 H    0.996 --    15 C    0.969
    34   1 H    0.996 --    16 C    0.977
    35   1 H    0.996 --    16 C    0.980
    36   1 H    0.994 --    16 C    0.980
    37   1 H    0.996 --    18 C    0.969
    38   1 H    0.996 --    18 C    0.964
    39   1 H    0.996 --    19 C    0.972
    40   1 H    0.996 --    19 C    0.984
    41   1 H    0.996 --    19 C    0.981
 ---------------------------------------------------------------------------

Topologies differ in total number of bonds
Writing topology from bond orders to xtbtopo.mol

molecular dipole:
                 x           y           z       tot (Debye)
 q only:        0.181      -1.243       0.135
   full:       -0.022      -1.193       0.294       3.125
molecular quadrupole (traceless):
                xx          xy          yy          xz          yz          zz
 q only:       20.531      -2.479     -19.801       3.063       8.158      -0.730
  q+dip:       27.081       0.389     -23.613      -1.261       6.359      -3.469
   full:       27.105      -0.148     -23.648      -0.278       7.148      -3.456


           -------------------------------------------------
          | TOTAL ENERGY              -65.008664883129 Eh   |
          | GRADIENT NORM               0.036621639736 Eh/α |
          | HOMO-LUMO GAP               2.713799966517 eV   |
           -------------------------------------------------

------------------------------------------------------------------------
 * finished run on 2025/04/09 at 05:20:52.156     
------------------------------------------------------------------------
 total:
 * wall-time:     0 d,  0 h,  0 min,  0.146 sec
 *  cpu-time:     0 d,  0 h,  0 min,  0.071 sec
 * ratio c/w:     0.486 speedup
 SCF:
 * wall-time:     0 d,  0 h,  0 min,  0.064 sec
 *  cpu-time:     0 d,  0 h,  0 min,  0.057 sec
 * ratio c/w:     0.894 speedup

