
                                 *****************
                                 * O   R   C   A *
                                 *****************

                                            #,                                       
                                            ###                                      
                                            ####                                     
                                            #####                                    
                                            ######                                   
                                           ########,                                 
                                     ,,################,,,,,                         
                               ,,#################################,,                 
                          ,,##########################################,,             
                       ,#########################################, ''#####,          
                    ,#############################################,,   '####,        
                  ,##################################################,,,,####,       
                ,###########''''           ''''###############################       
              ,#####''   ,,,,##########,,,,          '''####'''          '####       
            ,##' ,,,,###########################,,,                        '##       
           ' ,,###''''                  '''############,,,                           
         ,,##''                                '''############,,,,        ,,,,,,###''
      ,#''                                            '''#######################'''  
     '                                                          ''''####''''         
             ,#######,   #######,   ,#######,      ##                                
            ,#'     '#,  ##    ##  ,#'     '#,    #''#        ,####,   ,####,        
            ##       ##  ##   ,#'  ##            #'  '#       #'       #'  '#        
            ##       ##  #######   ##           ,######,      #####,   #    #        
            '#,     ,#'  ##    ##  '#,     ,#' ,#      #,     #,   #   #,  ,#        
             '#######'   ##     ##  '#######'  #'      '#     '####' # '####'        



                #########################################################
                #                        -***-                          #
                #          Department of theory and spectroscopy        #
                #                                                       #
                #                      Frank Neese                      #
                #                                                       #
                #     Directorship, Architecture, Infrastructure        #
                #                    SHARK, DRIVERS                     #
                #        Core code/Algorithms in most modules           #
                #                                                       #
                #        Max Planck Institute fuer Kohlenforschung      #
                #                Kaiser Wilhelm Platz 1                 #
                #                 D-45470 Muelheim/Ruhr                 #
                #                      Germany                          #
                #                                                       #
                #                  All rights reserved                  #
                #                        -***-                          #
                #########################################################


                         Program Version 6.0.1  -  RELEASE   -


 With contributions from (in alphabetic order):
[Max-Planck-Institut fuer Kohlenforschung]                               
  Daniel Aravena         : Magnetic Suceptibility                        
  Michael Atanasov       : Ab Initio Ligand Field Theory (pilot matlab implementation)
  Alexander A. Auer      : GIAO ZORA, VPT2 properties, NMR spectrum      
  Ute Becker             : All parallelization in ORCA, NUMFREQ, NUMCALC 
  Giovanni Bistoni       : ED, misc. LED, open-shell LED, HFLD           
  Martin Brehm           : Molecular dynamics                            
  Dmytro Bykov           : pre 5.0 version of the SCF Hessian            
  Marcos Casanova-Páez   : Triplet and SCS-CIS(D). UHF-(DLPNO)-IP/EA/STEOM-CCSD. UHF-CVS-IP/STEOM-CCSD   
  Vijay G. Chilkuri      : MRCI spin determinant printing, contributions to CSF-ICE 
  Pauline Colinet        : FMM embedding                                 
  Dipayan Datta          : RHF DLPNO-CCSD density                        
  Achintya Kumar Dutta   : EOM-CC, STEOM-CC                              
  Nicolas Foglia         : Exact transition moments, OPA infrastructure, MCD improvements    
  Dmitry Ganyushin       : Spin-Orbit,Spin-Spin,Magnetic field MRCI      
  Miquel Garcia-Rates    : C-PCM and meta-GGA Hessian, CCSD/C-PCM, Gaussian charge scheme 
  Tiago L. C. Gouveia    : GS-ROHF, GS-ROCIS                             
  Yang Guo               : DLPNO-NEVPT2, F12-NEVPT2, CIM, IAO-localization        
  Andreas Hansen         : Spin unrestricted coupled pair/coupled cluster methods 
  Ingolf Harden          : AUTO-CI MPn and infrastructure                
  Benjamin Helmich-Paris : MC-RPA, TRAH-(SCF,CASSCF), AVAS, COSX integrals, SCF dyn. polar. 
  Lee Huntington         : MR-EOM, pCC                                   
  Robert Izsak           : Overlap fitted RIJCOSX, COSX-SCS-MP3, EOM     
  Riya Kayal             : Wick's Theorem for AUTO-CI, AUTO-CI UHF-CCSDT 
  Emily Kempfer          : AUTO-CI, RHF CISDT and CCSDT                  
  Christian Kollmar      : KDIIS, OOCD, Brueckner-CCSD(T), CCSD density, CASPT2, CASPT2-K, improved NEVPT2 
  Axel Koslowski         : Symmetry handling                             
  Simone Kossmann        : meta-GGA functionals, TD-DFT gradient, OOMP2, (MP2 Hessian; deprecated post 5.0) 
  Lucas Lang             : DCDCAS                                        
  Marvin Lechner         : AUTO-CI (C++ implementation), FIC-MRCC        
  Spencer Leger          : CASSCF response                               
  Dagmar Lenk            : GEPOL surface, SMD, ORCA-2-JSON               
  Dimitrios Liakos       : Extrapolation schemes; Compound Job, initial MDCI parallelization 
  Dimitrios Manganas     : Further ROCIS development; embedding schemes. LFT, Crystal Embedding 
  Dimitrios Pantazis     : SARC Basis sets                               
  Anastasios Papadopoulos: AUTO-CI, single reference methods and gradients 
  Taras Petrenko         : pre 6.0 DFT Hessian and TD-DFT gradient, (ASA, deprecated), ECA, 1-Electron XAS/XES, NRVS 
  Peter Pinski           : DLPNO-MP2, DLPNO-MP2 Gradient                 
  Christoph Reimann      : Effective Core Potentials                     
  Marius Retegan         : Local ZFS, SOC                                
  Christoph Riplinger    : Optimizer, TS searches, QM/MM, DLPNO-CCSD(T), (RO)-DLPNO pert. Triples 
  Michael Roemelt        : Original ROCIS implementation                 
  Masaaki Saitow         : Open-shell DLPNO-CCSD energy and density      
  Barbara Sandhoefer     : DKH picture change effects                    
  Kantharuban Sivalingam : CASSCF convergence/infrastructure, NEVPT2 and variants, FIC-MRCI 
  Bernardo de Souza      : ESD, SOC TD-DFT                               
  Georgi L. Stoychev     : AutoAux, RI-MP2 NMR, DLPNO-MP2 response, X2C  
  Van Anh Tran           : RI-MP2 g-tensors                              
  Willem Van den Heuvel  : Paramagnetic NMR                              
  Zikuan Wang            : NOTCH, Electric field optimization            
  Frank Wennmohs         : Technical directorship and infrastructure     
  Hang Xu                : AUTO-CI-Response properties                   
                                                                         
[FACCTs GmbH]                                                            
  Markus Bursch, Miquel Garcia-Rates, Christoph Riplinger, Bernardo de Souza, Georgi L. Stoychev 
                                                                 
  APM, Basis sets (HGBS, AHGBS, def-TZVP (Ac-Lr), def2-XVPD (La-Lu)), CI-OPT, improved COSX, DLPNO-Multilevel,           
  DOCKER, DRACO, updates on ESD, GOAT, IRC, LR-CPCM, MBIS, meta-GGA TD-DFT gradient, ML-optimized integration grids, 
  MM, NACMEs, nearIR, NEB, NEB-TS, NL-DFT gradient (VV10), 2- and 3-layer-ONIOM, interface openCOSMO-RS, QMMM,   
  Crystal-QMMM, SF, symmetry and pop. for TD-DFT, r2SCAN hybrids, SOLVATOR                                   
                                                                         
[Other institutions]                                                     
  V. Asgeirsson          : NEB                                           
  Christoph Bannwarth    : sTDA-DFT, sTD-DFT, PBEh-3c, B97-3c, D3        
  Sebastian Ehlert       : rSCAN, r2SCAN, r2SCAN-3c, D4, dhf basis sets  
  Marvin Friede          : D4 for Fr, Ra, Ac-Lr                          
  Lars Goerigk           : TD-DFT with DH, B97 family of functionals     
  Stefan Grimme          : VdW corrections, initial TS optimization, DFT functionals, gCP, sTDA/sTD-DF 
  Waldemar Hujo          : DFT-NL                                        
  H. Jonsson             : NEB                                           
  Holger Kruse           : gCP                                           
  Marcel Mueller         : wB97X-3c, vDZP basis set                      
  Hagen Neugebauer       : wr2SCAN                                       
  Tobias Risthaus        : range-separated hybrid DFT                    
  Lukas Wittmann         : regularized MP2, r2SCAN double-hybrids, wr2SCAN        
                                                                         
We gratefully acknowledge several colleagues who have allowed us to      
interface, adapt or use parts of their codes:                            
  Ed Valeev, F. Pavosevic, A. Kumar             : LibInt (2-el integral package), F12 methods 
  Garnet Chan, S. Sharma, J. Yang, R. Olivares  : DMRG                   
  Ulf Ekstrom                                   : XCFun DFT Library      
  Mihaly Kallay                                 : mrcc  (arbitrary order and MRCC methods)
  Frank Weinhold                                : gennbo (NPA and NBO analysis)           
  Simon Mueller                                 : openCOSMO-RS                            
  Christopher J. Cramer and Donald G. Truhlar   : smd solvation model                     
  S Lehtola, MJT Oliveira, MAL Marques          : LibXC Library                           
  Liviu Ungur et al                             : ANISO software                          


 Your calculation uses the libint2 library for the computation of 2-el integrals
 For citations please refer to: http://libint.valeyev.net

 Your ORCA version has been built with support for libXC version: 6.2.2
 For citations please refer to: https://libxc.gitlab.io

 This ORCA versions uses:
   CBLAS   interface :  Fast vector & matrix operations
   LAPACKE interface :  Fast linear algebra routines
   SCALAPACK package :  Parallel linear algebra routines
   Shared memory     :  Shared parallel matrices
   BLAS/LAPACK       :  OpenBLAS 0.3.27  USE64BITINT DYNAMIC_ARCH NO_AFFINITY Zen SINGLE_THREADED
        Core in use  :  Zen
   Copyright (c) 2011-2014, The OpenBLAS Project


Your calculation utilizes the geometrical counterpoise correction gCP
Please cite in your paper:
H.Kruse, S. Grimme J.Chem.Phys., 136, (2012), 154101 
   

Your calculation utilizes the atom-pairwise dispersion correction
based on EEQ partial charges (D4)


================================================================================

----- Orbital basis set information -----
Your calculation utilizes the basis: def2-mTZVPP
   Stefan Grimme, Andreas Hansen, Sebastian Ehlert, and Jan-Michael Mewes 
   J. Chem. Phys. 154, 064103 (2021). DOI: 10.1063/5.0040021

----- AuxJ basis set information -----
Your calculation utilizes the auxiliary basis: def2/J
   F. Weigend, Phys. Chem. Chem. Phys. 8, 1057 (2006).

================================================================================
                                        WARNINGS
                       Please study these warnings very carefully!
================================================================================

WARNING: Old DensityContainer found on disk!
         Will remove this file - 
         If you want to keep old densities, please start your calculation with a different basename. 



WARNING: SCAN, rSCAN, or r2SCAN functional requested.
  ===> : libXC variant has now been activated.



================================================================================
                                       INPUT FILE
================================================================================
NAME = sp_gas.inp
|  1> ! r2scan-3c def2/J RI DEFGRID2 scfconv6 printgap
|  2> %output
|  3>     printlevel normal
|  4> end
|  5> * xyz 0 1
|  6> C 2.4677596361 -2.9688073799 0.4022978989
|  7> C 3.2124736801 -2.6803879225 -0.8918732391
|  8> O 2.385208021 -1.8982879633 -1.7756654783
|  9> C 2.3591307624 -0.5944506888 -1.6182975737
| 10> O 3.0537155107 0.0250151056 -0.8399165902
| 11> C 1.3026885843 0.0561827483 -2.4914072355
| 12> C 0.1839672469 0.5452404026 -1.5638554283
| 13> H -0.5690778196 1.0905102602 -2.1389712889
| 14> C 0.7821089682 1.4975267644 -0.5416771368
| 15> O 1.1960762881 2.587686743 -0.8607861835
| 16> O 0.8286101221 1.005711131 0.6797893605
| 17> C 1.4933417426 1.8180880887 1.6700698577
| 18> C 1.5203653059 1.0672616255 2.9847454894
| 19> S -0.6153698604 -0.8913213864 -0.7767259443
| 20> P -1.905685178 0.1579701384 0.5450654106
| 21> S -2.204399524 2.0562155937 0.1556321003
| 22> O -3.2324059858 -0.7369829671 0.5039044897
| 23> C -4.0624386875 -0.7846608851 -0.6618624719
| 24> O -1.4315003328 -0.120525393 2.0234656415
| 25> C -1.2336295437 -1.466074275 2.5082717575
| 26> H 1.5278918954 -3.4685212892 0.1839499121
| 27> H 3.077436412 -3.6011762043 1.0387020442
| 28> H 2.2592374108 -2.0361458487 0.9228439694
| 29> H 3.4200634371 -3.5942644625 -1.4475101374
| 30> H 4.1375108468 -2.1301491519 -0.6973502945
| 31> H 0.914136025 -0.6668496878 -3.2062812926
| 32> H 1.7314611974 0.9215147971 -2.9985730411
| 33> H 2.4997952034 2.0234814275 1.2917047206
| 34> H 0.9478679053 2.764196139 1.7481682613
| 35> H 2.0203135929 0.1114940379 2.8573732314
| 36> H 2.0620170952 1.6595473654 3.7145827242
| 37> H 0.5069427125 0.9016226582 3.3373289325
| 38> H -3.5614376391 -1.346904571 -1.4496987704
| 39> H -4.284787303 0.2264875116 -1.0062162971
| 40> H -4.9741232234 -1.2881995841 -0.3508657507
| 41> H -2.179551474 -2.0031867098 2.5040387006
| 42> H -0.8566031683 -1.3544497691 3.5213088784
| 43> H -0.5066872478 -1.981402207 1.8808117771
| 44> *
| 45> 
| 46>                          ****END OF INPUT****
================================================================================

                       ****************************
                       * Single Point Calculation *
                       ****************************

---------------------------------
CARTESIAN COORDINATES (ANGSTROEM)
---------------------------------
  C      2.467760   -2.968807    0.402298
  C      3.212474   -2.680388   -0.891873
  O      2.385208   -1.898288   -1.775665
  C      2.359131   -0.594451   -1.618298
  O      3.053716    0.025015   -0.839917
  C      1.302689    0.056183   -2.491407
  C      0.183967    0.545240   -1.563855
  H     -0.569078    1.090510   -2.138971
  C      0.782109    1.497527   -0.541677
  O      1.196076    2.587687   -0.860786
  O      0.828610    1.005711    0.679789
  C      1.493342    1.818088    1.670070
  C      1.520365    1.067262    2.984745
  S     -0.615370   -0.891321   -0.776726
  P     -1.905685    0.157970    0.545065
  S     -2.204400    2.056216    0.155632
  O     -3.232406   -0.736983    0.503904
  C     -4.062439   -0.784661   -0.661862
  O     -1.431500   -0.120525    2.023466
  C     -1.233630   -1.466074    2.508272
  H      1.527892   -3.468521    0.183950
  H      3.077436   -3.601176    1.038702
  H      2.259237   -2.036146    0.922844
  H      3.420063   -3.594264   -1.447510
  H      4.137511   -2.130149   -0.697350
  H      0.914136   -0.666850   -3.206281
  H      1.731461    0.921515   -2.998573
  H      2.499795    2.023481    1.291705
  H      0.947868    2.764196    1.748168
  H      2.020314    0.111494    2.857373
  H      2.062017    1.659547    3.714583
  H      0.506943    0.901623    3.337329
  H     -3.561438   -1.346905   -1.449699
  H     -4.284787    0.226488   -1.006216
  H     -4.974123   -1.288200   -0.350866
  H     -2.179551   -2.003187    2.504039
  H     -0.856603   -1.354450    3.521309
  H     -0.506687   -1.981402    1.880812

----------------------------
CARTESIAN COORDINATES (A.U.)
----------------------------
  NO LB      ZA    FRAG     MASS         X           Y           Z
   0 C     6.0000    0    12.011    4.663390   -5.610233    0.760233
   1 C     6.0000    0    12.011    6.070695   -5.065199   -1.685396
   2 O     8.0000    0    15.999    4.507390   -3.587244   -3.355521
   3 C     6.0000    0    12.011    4.458111   -1.123349   -3.058139
   4 O     8.0000    0    15.999    5.770686    0.047272   -1.587212
   5 C     6.0000    0    12.011    2.461725    0.106170   -4.708077
   6 C     6.0000    0    12.011    0.347648    1.030355   -2.955258
   7 H     1.0000    0     1.008   -1.075401    2.060766   -4.042070
   8 C     6.0000    0    12.011    1.477972    2.829915   -1.023621
   9 O     8.0000    0    15.999    2.260257    4.890019   -1.626650
  10 O     8.0000    0    15.999    1.565846    1.900519    1.284616
  11 C     6.0000    0    12.011    2.822007    3.435689    3.155975
  12 C     6.0000    0    12.011    2.873074    2.016832    5.640352
  13 S    16.0000    0    32.060   -1.162881   -1.684353   -1.467799
  14 P    15.0000    0    30.974   -3.601223    0.298520    1.030024
  15 S    16.0000    0    32.060   -4.165711    3.885684    0.294102
  16 O     8.0000    0    15.999   -6.108362   -1.392696    0.952241
  17 C     6.0000    0    12.011   -7.676897   -1.482794   -1.250739
  18 O     8.0000    0    15.999   -2.705144   -0.227760    3.823796
  19 C     6.0000    0    12.011   -2.331222   -2.770479    4.739947
  20 H     1.0000    0     1.008    2.887297   -6.554555    0.347615
  21 H     1.0000    0     1.008    5.815512   -6.805237    1.962862
  22 H     1.0000    0     1.008    4.269340   -3.847758    1.743922
  23 H     1.0000    0     1.008    6.462983   -6.792175   -2.735398
  24 H     1.0000    0     1.008    7.818762   -4.025399   -1.317801
  25 H     1.0000    0     1.008    1.727467   -1.260163   -6.058994
  26 H     1.0000    0     1.008    3.271987    1.741411   -5.666482
  27 H     1.0000    0     1.008    4.723928    3.823826    2.440968
  28 H     1.0000    0     1.008    1.791211    5.223574    3.303559
  29 H     1.0000    0     1.008    3.817839    0.210693    5.399653
  30 H     1.0000    0     1.008    3.896648    3.136090    7.019544
  31 H     1.0000    0     1.008    0.957983    1.703820    6.306638
  32 H     1.0000    0     1.008   -6.730142   -2.545281   -2.739534
  33 H     1.0000    0     1.008   -8.097075    0.427999   -1.901473
  34 H     1.0000    0     1.008   -9.399731   -2.434344   -0.663040
  35 H     1.0000    0     1.008   -4.118755   -3.785474    4.731947
  36 H     1.0000    0     1.008   -1.618745   -2.559539    6.654309
  37 H     1.0000    0     1.008   -0.957500   -3.744308    3.554219

--------------------------------
INTERNAL COORDINATES (ANGSTROEM)
--------------------------------
 C      0   0   0     0.000000000000     0.00000000     0.00000000
 C      1   0   0     1.520744464126     0.00000000     0.00000000
 O      2   1   0     1.441227788719   110.10173932     0.00000000
 C      3   2   1     1.313558647031   118.46199919    83.93586466
 O      4   3   2     1.213285950828   124.90965736     5.44362365
 C      4   3   2     1.517140213253   111.75010634   187.93451226
 C      6   4   3     1.533319006281   107.25965714   109.33031647
 H      7   6   4     1.093231147974   110.08540786   175.74008063
 C      7   6   4     1.519694473650   108.63790503    57.42057409
 O      9   7   6     1.208986478242   121.48492666    69.05927165
 O      9   7   6     1.317583158133   113.79978509   250.66636213
 C     11   9   7     1.443080008811   116.25025541   174.74188120
 C     12  11   9     1.514213547489   108.95834604   183.18230046
 S      7   6   4     1.822696466586   109.25795004   294.86045715
 P     14   7   6     2.124396080946    98.38195257   174.08998842
 S     15  14   7     1.960669368416   116.56117219    16.78502507
 O     15  14   7     1.600882064458   102.19516038   142.01459479
 C     17  15  14     1.431865942927   121.32950010   289.65008925
 O     15  14   7     1.577364343185   108.26207161   247.04594784
 C     19  15  14     1.443846118235   121.36197513   307.86330145
 H      1   2   3     1.086619162585   109.86361762    56.54318178
 H      1   2   3     1.084714864515   109.54898967   177.02931699
 H      1   2   3     1.088258821116   109.77676423   296.77001568
 H      2   1   3     1.089493552219   111.60671391   244.31827362
 H      2   1   3     1.093753007047   110.99120384   120.47327325
 H      6   4   3     1.088482389617   109.97830282   349.23159138
 H      6   4   3     1.090808261243   109.51586213   226.72445300
 H     12  11   9     1.094666693269   106.97472331   304.60410126
 H     12  11   9     1.094879678625   107.81309187    61.35662376
 H     13  12  11     1.086123226567   110.04370729    57.66818715
 H     13  12  11     1.084827842490   108.80219187   177.32116497
 H     13  12  11     1.085714835788   109.93437409   297.00899601
 H     18  17  15     1.089865150405   109.83038334    71.84521918
 H     18  17  15     1.091072657477   110.13493037   310.42680111
 H     18  17  15     1.086940143240   105.58669522   191.22723303
 H     20  19  15     1.087784898135   109.85695772   296.20618422
 H     20  19  15     1.086670661418   105.35755276   176.74917024
 H     20  19  15     1.089822924181   109.80103010    57.47914590

---------------------------
INTERNAL COORDINATES (A.U.)
---------------------------
 C      0   0   0     0.000000000000     0.00000000     0.00000000
 C      1   0   0     2.873790556875     0.00000000     0.00000000
 O      2   1   0     2.723525817277   110.10173932     0.00000000
 C      3   2   1     2.482266103733   118.46199919    83.93586466
 O      4   3   2     2.292778169199   124.90965736     5.44362365
 C      4   3   2     2.866979509807   111.75010634   187.93451226
 C      6   4   3     2.897552997808   107.25965714   109.33031647
 H      7   6   4     2.065907470743   110.08540786   175.74008063
 C      7   6   4     2.871806362433   108.63790503    57.42057409
 O      9   7   6     2.284653343491   121.48492666    69.05927165
 O      9   7   6     2.489871327539   113.79978509   250.66636213
 C     11   9   7     2.727026005989   116.25025541   174.74188120
 C     12  11   9     2.861448913028   108.95834604   183.18230046
 S      7   6   4     3.444397147113   109.25795004   294.86045715
 P     14   7   6     4.014526792964    98.38195257   174.08998842
 S     15  14   7     3.705128145474   116.56117219    16.78502507
 O     15  14   7     3.025228674532   102.19516038   142.01459479
 C     17  15  14     2.705834492621   121.32950010   289.65008925
 O     15  14   7     2.980786622033   108.26207161   247.04594784
 C     19  15  14     2.728473742989   121.36197513   307.86330145
 H      1   2   3     2.053412629156   109.86361762    56.54318178
 H      1   2   3     2.049814027327   109.54898967   177.02931699
 H      1   2   3     2.056511134734   109.77676423   296.77001568
 H      2   1   3     2.058844438366   111.60671391   244.31827362
 H      2   1   3     2.066893641471   110.99120384   120.47327325
 H      6   4   3     2.056933617972   109.97830282   349.23159138
 H      6   4   3     2.061328878367   109.51586213   226.72445300
 H     12  11   9     2.068620258204   106.97472331   304.60410126
 H     12  11   9     2.069022742197   107.81309187    61.35662376
 H     13  12  11     2.052475445903   110.04370729    57.66818715
 H     13  12  11     2.050027524759   108.80219187   177.32116497
 H     13  12  11     2.051703699174   109.93437409   297.00899601
 H     18  17  15     2.059546657170   109.83038334    71.84521918
 H     18  17  15     2.061828514841   110.13493037   310.42680111
 H     18  17  15     2.054019194689   105.58669522   191.22723303
 H     20  19  15     2.055615550090   109.85695772   296.20618422
 H     20  19  15     2.053509947847   105.35755276   176.74917024
 H     20  19  15     2.059466861172   109.80103010    57.47914590

---------------------
BASIS SET INFORMATION
---------------------
There are 5 groups of distinct atoms

 Group   1 Type C   : 11s6p1d contracted to 5s3p1d pattern {62111/411/1}
 Group   2 Type O   : 11s6p2d contracted to 5s3p2d pattern {62111/411/11}
 Group   3 Type H   : 4s1p contracted to 2s1p pattern {31/1}
 Group   4 Type S   : 14s9p2d contracted to 5s4p2d pattern {73211/6111/11}
 Group   5 Type P   : 14s9p2d contracted to 5s4p2d pattern {73211/6111/11}

Atom   0C    basis set group =>   1
Atom   1C    basis set group =>   1
Atom   2O    basis set group =>   2
Atom   3C    basis set group =>   1
Atom   4O    basis set group =>   2
Atom   5C    basis set group =>   1
Atom   6C    basis set group =>   1
Atom   7H    basis set group =>   3
Atom   8C    basis set group =>   1
Atom   9O    basis set group =>   2
Atom  10O    basis set group =>   2
Atom  11C    basis set group =>   1
Atom  12C    basis set group =>   1
Atom  13S    basis set group =>   4
Atom  14P    basis set group =>   5
Atom  15S    basis set group =>   4
Atom  16O    basis set group =>   2
Atom  17C    basis set group =>   1
Atom  18O    basis set group =>   2
Atom  19C    basis set group =>   1
Atom  20H    basis set group =>   3
Atom  21H    basis set group =>   3
Atom  22H    basis set group =>   3
Atom  23H    basis set group =>   3
Atom  24H    basis set group =>   3
Atom  25H    basis set group =>   3
Atom  26H    basis set group =>   3
Atom  27H    basis set group =>   3
Atom  28H    basis set group =>   3
Atom  29H    basis set group =>   3
Atom  30H    basis set group =>   3
Atom  31H    basis set group =>   3
Atom  32H    basis set group =>   3
Atom  33H    basis set group =>   3
Atom  34H    basis set group =>   3
Atom  35H    basis set group =>   3
Atom  36H    basis set group =>   3
Atom  37H    basis set group =>   3
---------------------------------
AUXILIARY/J BASIS SET INFORMATION
---------------------------------
There are 5 groups of distinct atoms

 Group   1 Type C   : 12s5p4d2f1g contracted to 6s4p3d1f1g pattern {711111/2111/211/2/1}
 Group   2 Type O   : 12s5p4d2f1g contracted to 6s4p3d1f1g pattern {711111/2111/211/2/1}
 Group   3 Type H   : 5s2p1d contracted to 3s1p1d pattern {311/2/1}
 Group   4 Type S   : 14s5p5d2f1g contracted to 8s4p3d1f1g pattern {71111111/2111/311/2/1}
 Group   5 Type P   : 14s5p5d2f1g contracted to 8s4p3d1f1g pattern {71111111/2111/311/2/1}

Atom   0C    basis set group =>   1
Atom   1C    basis set group =>   1
Atom   2O    basis set group =>   2
Atom   3C    basis set group =>   1
Atom   4O    basis set group =>   2
Atom   5C    basis set group =>   1
Atom   6C    basis set group =>   1
Atom   7H    basis set group =>   3
Atom   8C    basis set group =>   1
Atom   9O    basis set group =>   2
Atom  10O    basis set group =>   2
Atom  11C    basis set group =>   1
Atom  12C    basis set group =>   1
Atom  13S    basis set group =>   4
Atom  14P    basis set group =>   5
Atom  15S    basis set group =>   4
Atom  16O    basis set group =>   2
Atom  17C    basis set group =>   1
Atom  18O    basis set group =>   2
Atom  19C    basis set group =>   1
Atom  20H    basis set group =>   3
Atom  21H    basis set group =>   3
Atom  22H    basis set group =>   3
Atom  23H    basis set group =>   3
Atom  24H    basis set group =>   3
Atom  25H    basis set group =>   3
Atom  26H    basis set group =>   3
Atom  27H    basis set group =>   3
Atom  28H    basis set group =>   3
Atom  29H    basis set group =>   3
Atom  30H    basis set group =>   3
Atom  31H    basis set group =>   3
Atom  32H    basis set group =>   3
Atom  33H    basis set group =>   3
Atom  34H    basis set group =>   3
Atom  35H    basis set group =>   3
Atom  36H    basis set group =>   3
Atom  37H    basis set group =>   3

Checking for AutoStart:
The File: sp_gas.gbw exists
Trying to determine its content:
     ... Fine, the file contains calculation information
     ... Fine, the calculation information was read
     ... Fine, the file contains a basis set
     ... Fine, the basis set was read
     ... Fine, the file contains a geometry
     ... Fine, the geometry was read
     ... Fine, the file contains a set of orbitals
     ... Fine, the orbitals can be read
     => possible old guess file was deleted
     => GBW file was renamed to GES file
     => GES file is set as startup file
     => Guess is set to MORead
     ... now leaving AutoStart

------------------------------------------------------------------------------
                             ORCA STARTUP CALCULATIONS
                           -- RI-GTO INTEGRALS CHOSEN --
------------------------------------------------------------------------------
------------------------------------------------------------------------------
                   ___                                                        
                  /   \      - P O W E R E D   B Y -                         
                 /     \                                                     
                 |  |  |   _    _      __       _____    __    __             
                 |  |  |  | |  | |    /  \     |  _  \  |  |  /  |          
                  \  \/   | |  | |   /    \    | | | |  |  | /  /          
                 / \  \   | |__| |  /  /\  \   | |_| |  |  |/  /          
                |  |  |   |  __  | /  /__\  \  |    /   |      \           
                |  |  |   | |  | | |   __   |  |    \   |  |\   \          
                \     /   | |  | | |  |  |  |  | |\  \  |  | \   \       
                 \___/    |_|  |_| |__|  |__|  |_| \__\ |__|  \__/        
                                                                              
                      - O R C A' S   B I G   F R I E N D -                    
                                      &                                       
                       - I N T E G R A L  F E E D E R -                       
                                                                              
 v1 FN, 2020, v2 2021, v3 2022-2024                                           
------------------------------------------------------------------------------


----------------------
SHARK INTEGRAL PACKAGE
----------------------

Number of atoms                             ...     38
Number of basis functions                   ...    510
Number of shells                            ...    240
Maximum angular momentum                    ...      2
Integral batch strategy                     ... SHARK/LIBINT Hybrid
RI-J (if used) integral strategy            ... SPLIT-RIJ (Revised 2003 algorithm where possible)
Printlevel                                  ...      1
Contraction scheme used                     ... SEGMENTED contraction
Prescreening option                         ... SCHWARTZ
   Thresh                                   ... 1.000e-10
   Tcut                                     ... 1.000e-11
   Tpresel                                  ... 1.000e-11 
Coulomb Range Separation                    ... NOT USED
Exchange Range Separation                   ... NOT USED
Multipole approximations                    ... NOT USED
Finite Nucleus Model                        ... NOT USED
CABS basis                                  ... NOT available
Auxiliary Coulomb fitting basis             ... AVAILABLE
   # of basis functions in Aux-J            ...   1146
   # of shells in Aux-J                     ...    386
   Maximum angular momentum in Aux-J        ...      4
Auxiliary J/K fitting basis                 ... NOT available
Auxiliary Correlation fitting basis         ... NOT available
Auxiliary 'external' fitting basis          ... NOT available

Checking pre-screening integrals            ... done (  0.0 sec) Dimension = 240
Check shell pair data                       ... done (  0.0 sec)
Shell pair information
Shell pair cut-off parameter TPreSel        ...   1.0e-11
Total number of shell pairs                 ...     28920
Shell pairs after pre-screening             ...     21300
Total number of primitive shell pairs       ...    108409
Primitive shell pairs kept                  ...     49257
          la=0 lb=0:   6185 shell pairs
          la=1 lb=0:   7717 shell pairs
          la=1 lb=1:   2441 shell pairs
          la=2 lb=0:   2845 shell pairs
          la=2 lb=1:   1768 shell pairs
          la=2 lb=2:    344 shell pairs

Calculating one electron integrals          ... done (  0.1 sec)
Calculating RI/J V-Matrix + Cholesky decomp.... done (  0.1 sec)
Calculating Nuclear repulsion               ... done (  0.0 sec) ENN=   2236.498246984186 Eh

Diagonalization of the overlap matrix:
Smallest eigenvalue                        ... 6.236e-05
Time for diagonalization                   ...    0.037 sec
Threshold for overlap eigenvalues          ... 1.000e-07
Number of eigenvalues below threshold      ... 0
Time for construction of square roots      ...    0.022 sec
Total time needed                          ...    0.061 sec

-------------------
DFT GRID GENERATION
-------------------

General Integration Accuracy     IntAcc      ... 4.388
Radial Grid Type                 RadialGrid  ... OptM3 with GC (2021)
Angular Grid (max. ang.)         AngularGrid ... 4 (Lebedev-302)
Angular grid pruning method      GridPruning ... 4 (adaptive)
Weight generation scheme         WeightScheme... mBecke (2022)
Basis function cutoff            BFCut       ... 1.0000e-10
Integration weight cutoff        WCut        ... 1.0000e-14
Partially contracted basis set               ... off
Rotationally invariant grid construction     ... off
Angular grids for H and He will be reduced by one unit
Diffuse basis detected: some atoms will have their outermost
                        angular grid increased by 1.

Total number of grid points                  ...   179764
Total number of batches                      ...     2828
Average number of points per batch           ...       63
Average number of grid points per atom       ...     4731
Initializing property integral containers    ... done (  0.0 sec)

SHARK setup successfully completed in   2.7 seconds

Maximum memory used throughout the entire STARTUP-calculation: 100.6 MB
-------------------------------------------------------------------------------
                                 ORCA GUESS
                   Start orbitals & Density for SCF / CASSCF
-------------------------------------------------------------------------------

------------
SCF SETTINGS
------------
Hamiltonian:
 Density Functional     Method          .... DFT(GTOs)
  Functional kind                       .... Exchange
  Functional name                       .... Re-regularized SCAN exchange by Furness et al
  Functional family                     .... MGGA
  Functional refs                              
    [ 0] J. W. Furness, A. D. Kaplan, J. Ning, J. P. Perdew, and J. Sun.,  J. Phys. Chem. Lett. 11, 8208-8215 (2020), doi: 10.1021/acs.jpclett.0c02405
    [ 1] J. W. Furness, A. D. Kaplan, J. Ning, J. P. Perdew, and J. Sun.,  J. Phys. Chem. Lett. 11, 9248-9248 (2020), doi: 10.1021/acs.jpclett.0c03077
  Functional external parameters        .... 6
    Parameter  0 _c1        =  6.670000e-01 : c1 parameter        
    Parameter  1 _c2        =  8.000000e-01 : c2 parameter        
    Parameter  2 _d         =  1.240000e+00 : d parameter         
    Parameter  3 _k1        =  6.500000e-02 : k1 parameter        
    Parameter  4 _eta       =  1.000000e-03 : eta parameter       
    Parameter  5 _dp2       =  3.610000e-01 : dp2 parameter       
  Functional kind                       .... Correlation
  Functional name                       .... Re-regularized SCAN correlation by Furness et al
  Functional family                     .... MGGA
  Functional refs                              
    [ 0] J. W. Furness, A. D. Kaplan, J. Ning, J. P. Perdew, and J. Sun.,  J. Phys. Chem. Lett. 11, 8208-8215 (2020), doi: 10.1021/acs.jpclett.0c02405
    [ 1] J. W. Furness, A. D. Kaplan, J. Ning, J. P. Perdew, and J. Sun.,  J. Phys. Chem. Lett. 11, 9248-9248 (2020), doi: 10.1021/acs.jpclett.0c03077
  Functional external parameters        .... 1
    Parameter  0 _eta       =  1.000000e-03 : Regularization parameter
 Gradients option       PostSCFGGA      .... off
 RI-approximation to the Coulomb term is turned on
   Number of AuxJ basis functions       .... 1146


General Settings:
 Integral files         IntName         .... sp_gas
 Hartree-Fock type      HFTyp           .... RHF
 Total Charge           Charge          ....    0
 Multiplicity           Mult            ....    1
 Number of Electrons    NEL             ....  174
 Basis Dimension        Dim             ....  510
 Nuclear Repulsion      ENuc            ....   2236.4982469842 Eh

Convergence Acceleration:
 AO-DIIS                CNVDIIS         .... on
   Start iteration      DIISMaxIt       ....    12
   Startup error        DIISStart       ....  0.200000
   # of expansion vecs  DIISMaxEq       ....     5
   Bias factor          DIISBfac        ....   1.050
   Max. coefficient     DIISMaxC        ....  10.000
 MO-DIIS                CNVKDIIS        .... off
 Trust-Rad. Augm. Hess. CNVTRAH         .... auto
   Auto Start mean grad. ratio tolernc. ....  1.125000
   Auto Start start iteration           ....     1
   Auto Start num. interpolation iter.  ....    10
   Max. Number of Micro iterations      ....    24
   Max. Number of Macro iterations      .... Maxiter - #DIIS iter
   Number of Davidson start vectors     ....     2
   Converg. threshold    (grad. norm)   ....   3.330e-04
   Grad. Scal. Fac. for Micro threshold ....   0.100
   Minimum threshold for Micro iter.    ....   1.000e-02
   NR start threshold (gradient norm)   ....   1.000e-04
   Initial trust radius                 ....   0.400
   Minimum AH scaling param. (alpha)    ....   1.000
   Maximum AH scaling param. (alpha)    .... 1000.000
   Quad. conv. algorithm                .... NR
   White noise on init. David. guess    .... on
   Maximum white noise                  ....   0.010
   Pseudo random numbers                .... off
   Inactive MOs                         .... canonical
   Orbital update algorithm             .... Taylor
   Preconditioner                       .... Diag
   Full preconditioner red. dimension   ....   250
   COSX micro iterations for RIJONX calc.... off
 SOSCF                  CNVSOSCF        .... on
   Start iteration      SOSCFMaxIt      ....   150
   Startup grad/error   SOSCFStart      ....  0.003300
   Hessian update       SOSCFHessUp     .... L-BFGS
 Level Shifting         CNVShift        .... on
   Level shift para.    LevelShift      ....    0.2500
   Turn off err/grad.   ShiftErr        ....    0.0010
 Zerner damping         CNVZerner       .... off
 Static damping         CNVDamp         .... on
   Fraction old density DampFac         ....    0.7000
   Max. Damping (<1)    DampMax         ....    0.9800
   Min. Damping (>=0)   DampMin         ....    0.0000
   Turn off err/grad.   DampErr         ....    0.1000

SCF Procedure:
 Maximum # iterations   MaxIter         ....   125
 SCF integral mode      SCFMode         .... Direct
   Integral package                     .... SHARK and LIBINT hybrid scheme
 Reset frequency        DirectResetFreq ....    20
 Integral Threshold     Thresh          ....  1.000e-10 Eh
 Primitive CutOff       TCut            ....  1.000e-11 Eh

Convergence Tolerance:
 Convergence Check Mode ConvCheckMode   .... Total+1el-Energy
 Convergence forced     ConvForced      .... 0
 Energy Change          TolE            ....  1.000e-06 Eh
 1-El. energy change                    ....  1.000e-03 Eh
 Orbital Gradient       TolG            ....  3.330e-04
 Orbital Rotation angle TolX            ....  3.330e-04
 DIIS Error             TolErr          ....  1.000e-06

---------------------
INITIAL GUESS: MOREAD
---------------------
Guess MOs are being read from file: sp_gas.ges
Input Geometry matches current geometry (good)
Atom 0: N(Shells)= 9 and 6 - projection required
Input basis set needs projection
NBasis(read)= 316
NBasis(calc)= 510
Basis set overlap was calculated
Using GuessMode=FMatrix for the initial guess
C*T matrix was formed
Effective Fockian was calculated
Effective Fockian was diagonalized
Initial density was built
                      ------------------
                      INITIAL GUESS DONE (   0.1 sec)
                      ------------------
             **** ENERGY FILE WAS UPDATED (sp_gas.en.tmp) ****
Finished Guess after   0.3 sec
Maximum memory used throughout the entire GUESS-calculation: 59.8 MB

-------------------------------------------------------------------------------------------
                                      ORCA LEAN-SCF
                              memory conserving SCF solver
-------------------------------------------------------------------------------------------

----------------------------------------D-I-I-S--------------------------------------------
Iteration    Energy (Eh)           Delta-E    RMSDP     MaxDP     DIISErr   Damp  Time(sec)
-------------------------------------------------------------------------------------------
               ***  Starting incremental Fock matrix formation  ***
    1    -1980.9757203909348391     0.00e+00  3.64e-03  3.79e-01  6.34e-01  0.700   9.2
    2    -1981.1232473206937357    -1.48e-01  2.78e-03  2.42e-01  4.46e-01  0.700   7.7
    3    -1981.2274220632998549    -1.04e-01  1.99e-03  1.63e-01  3.12e-01  0.700   7.5
    4    -1981.3005167636183614    -7.31e-02  1.41e-03  1.11e-01  2.19e-01  0.700   7.4
                               ***Turning on AO-DIIS***
    5    -1981.3517645934889515    -5.12e-02  1.00e-03  7.47e-02  1.53e-01  0.700   7.2
    6    -1981.3876743507080391    -3.59e-02  7.08e-04  5.18e-02  1.07e-01  0.700   7.1
    7    -1981.4128417766260100    -2.52e-02  4.98e-04  3.60e-02  7.50e-02  0.700   6.9
    8    -1981.4304714861591492    -1.76e-02  1.16e-03  8.31e-02  5.26e-02  0.000   6.8
                              *** Initializing SOSCF ***
---------------------------------------S-O-S-C-F--------------------------------------
Iteration    Energy (Eh)           Delta-E    RMSDP     MaxDP     MaxGrad    Time(sec)
--------------------------------------------------------------------------------------
    9    -1981.4716500977992837    -4.12e-02  5.76e-06  4.48e-04  1.19e-04     7.2
               *** Restarting incremental Fock matrix formation ***
   10    -1981.4716505112655796    -4.13e-07  5.04e-06  3.82e-04  3.75e-05     8.8
                  *** Gradient check signals convergence ***

               *****************************************************
               *                     SUCCESS                       *
               *           SCF CONVERGED AFTER  10 CYCLES          *
               *****************************************************

             **** ENERGY FILE WAS UPDATED (sp_gas.en.tmp) ****

----------------
TOTAL SCF ENERGY
----------------

Total Energy       :      -1981.47165051126558 Eh          -53918.58478 eV

Components:
Nuclear Repulsion  :       2236.49824698418615 Eh           60858.21127 eV
Electronic Energy  :      -4217.96989749545173 Eh         -114776.79605 eV
One Electron Energy:      -7178.76274306584492 Eh         -195344.06534 eV
Two Electron Energy:       2960.79284557039273 Eh           80567.26929 eV

Virial components:
Potential Energy   :      -3956.61155019512535 Eh         -107664.87386 eV
Kinetic Energy     :       1975.13989968385977 Eh           53746.28908 eV
Virial Ratio       :          2.00320572270775

DFT components:
N(Alpha)           :       86.999926287295 electrons
N(Beta)            :       86.999926287295 electrons
N(Total)           :      173.999852574589 electrons
E(X)               :     -181.411477737692 Eh       
E(C)               :       -5.974533273371 Eh       
E(XC)              :     -187.386011011063 Eh       

---------------
SCF CONVERGENCE
---------------

  Last Energy change         ...    4.1347e-07  Tolerance :   1.0000e-06
  Last MAX-Density change    ...    3.8222e-04  Tolerance :   1.0000e-05
  Last RMS-Density change    ...    5.0394e-06  Tolerance :   1.0000e-06
  Last DIIS Error            ...    1.1887e-04  Tolerance :   1.0000e-06
  Last Orbital Gradient      ...    3.7545e-05  Tolerance :   3.3300e-04
  Last Orbital Rotation      ...    1.4843e-04  Tolerance :   3.3300e-04


----------------
ORBITAL ENERGIES
----------------

  NO   OCC          E(Eh)            E(eV) 
   0   2.0000     -88.576674     -2410.2938 
   1   2.0000     -88.520211     -2408.7574 
   2   2.0000     -76.916295     -2092.9988 
   3   2.0000     -19.010294      -517.2964 
   4   2.0000     -18.998478      -516.9749 
   5   2.0000     -18.994190      -516.8582 
   6   2.0000     -18.993025      -516.8265 
   7   2.0000     -18.939304      -515.3647 
   8   2.0000     -18.924346      -514.9576 
   9   2.0000     -10.165398      -276.6145 
  10   2.0000     -10.154078      -276.3065 
  11   2.0000     -10.102538      -274.9040 
  12   2.0000     -10.101098      -274.8648 
  13   2.0000     -10.099133      -274.8114 
  14   2.0000     -10.094451      -274.6840 
  15   2.0000     -10.082709      -274.3645 
  16   2.0000     -10.066084      -273.9121 
  17   2.0000     -10.036651      -273.1111 
  18   2.0000     -10.025341      -272.8034 
  19   2.0000      -7.871203      -214.1863 
  20   2.0000      -7.814716      -212.6492 
  21   2.0000      -6.594611      -179.4485 
  22   2.0000      -5.817956      -158.3146 
  23   2.0000      -5.815038      -158.2352 
  24   2.0000      -5.808414      -158.0550 
  25   2.0000      -5.762637      -156.8093 
  26   2.0000      -5.754913      -156.5992 
  27   2.0000      -5.754584      -156.5902 
  28   2.0000      -4.740345      -128.9914 
  29   2.0000      -4.739666      -128.9729 
  30   2.0000      -4.738051      -128.9289 
  31   2.0000      -1.087401       -29.5897 
  32   2.0000      -1.071755       -29.1639 
  33   2.0000      -1.054956       -28.7068 
  34   2.0000      -1.012406       -27.5490 
  35   2.0000      -0.989044       -26.9133 
  36   2.0000      -0.974485       -26.5171 
  37   2.0000      -0.815220       -22.1833 
  38   2.0000      -0.759474       -20.6663 
  39   2.0000      -0.737951       -20.0807 
  40   2.0000      -0.736996       -20.0547 
  41   2.0000      -0.700195       -19.0533 
  42   2.0000      -0.680412       -18.5149 
  43   2.0000      -0.659922       -17.9574 
  44   2.0000      -0.650475       -17.7003 
  45   2.0000      -0.629275       -17.1234 
  46   2.0000      -0.593542       -16.1511 
  47   2.0000      -0.544558       -14.8182 
  48   2.0000      -0.536352       -14.5949 
  49   2.0000      -0.526793       -14.3348 
  50   2.0000      -0.499413       -13.5897 
  51   2.0000      -0.495812       -13.4917 
  52   2.0000      -0.489426       -13.3179 
  53   2.0000      -0.471462       -12.8291 
  54   2.0000      -0.459178       -12.4949 
  55   2.0000      -0.455823       -12.4036 
  56   2.0000      -0.447907       -12.1882 
  57   2.0000      -0.439344       -11.9552 
  58   2.0000      -0.437151       -11.8955 
  59   2.0000      -0.429282       -11.6814 
  60   2.0000      -0.425776       -11.5860 
  61   2.0000      -0.422292       -11.4912 
  62   2.0000      -0.408906       -11.1269 
  63   2.0000      -0.405353       -11.0302 
  64   2.0000      -0.394035       -10.7222 
  65   2.0000      -0.380269       -10.3476 
  66   2.0000      -0.371194       -10.1007 
  67   2.0000      -0.369845       -10.0640 
  68   2.0000      -0.363792        -9.8993 
  69   2.0000      -0.355055        -9.6615 
  70   2.0000      -0.351949        -9.5770 
  71   2.0000      -0.347511        -9.4563 
  72   2.0000      -0.339269        -9.2320 
  73   2.0000      -0.329540        -8.9672 
  74   2.0000      -0.322538        -8.7767 
  75   2.0000      -0.319417        -8.6918 
  76   2.0000      -0.314941        -8.5700 
  77   2.0000      -0.313693        -8.5360 
  78   2.0000      -0.291018        -7.9190 
  79   2.0000      -0.284716        -7.7475 
  80   2.0000      -0.279087        -7.5944 
  81   2.0000      -0.265265        -7.2182 
  82   2.0000      -0.251697        -6.8490 
  83   2.0000      -0.246749        -6.7144 
  84   2.0000      -0.224681        -6.1139 
  85   2.0000      -0.218336        -5.9412 
  86   2.0000      -0.216314        -5.8862 
  87   0.0000      -0.042302        -1.1511 
  88   0.0000      -0.031760        -0.8642 
  89   0.0000      -0.012050        -0.3279 
  90   0.0000       0.002645         0.0720 
  91   0.0000       0.011499         0.3129 
  92   0.0000       0.035752         0.9729 
  93   0.0000       0.054749         1.4898 
  94   0.0000       0.059814         1.6276 
  95   0.0000       0.071642         1.9495 
  96   0.0000       0.084227         2.2919 
  97   0.0000       0.086012         2.3405 
*Only the first 10 virtual orbitals were printed.

                    ********************************
                    * MULLIKEN POPULATION ANALYSIS *
                    ********************************

-----------------------
MULLIKEN ATOMIC CHARGES
-----------------------
   0 C :   -0.483852
   1 C :   -0.129957
   2 O :   -0.153989
   3 C :    0.334487
   4 O :   -0.362765
   5 C :   -0.420594
   6 C :    0.027805
   7 H :    0.236028
   8 C :    0.181162
   9 O :   -0.357914
  10 O :   -0.118774
  11 C :   -0.129883
  12 C :   -0.486229
  13 S :   -0.219237
  14 P :    0.768647
  15 S :   -0.418561
  16 O :   -0.349428
  17 C :   -0.298443
  18 O :   -0.308149
  19 C :   -0.295045
  20 H :    0.155761
  21 H :    0.149249
  22 H :    0.177632
  23 H :    0.151552
  24 H :    0.171140
  25 H :    0.181614
  26 H :    0.208716
  27 H :    0.173194
  28 H :    0.165791
  29 H :    0.150621
  30 H :    0.147408
  31 H :    0.165106
  32 H :    0.158494
  33 H :    0.175695
  34 H :    0.152345
  35 H :    0.170718
  36 H :    0.160280
  37 H :    0.169375
Sum of atomic charges:   -0.0000000

--------------------------------
MULLIKEN REDUCED ORBITAL CHARGES
--------------------------------
  0 C s       :     3.330967  s :     3.330967
      pz      :     0.973348  p :     3.127306
      px      :     1.053842
      py      :     1.100117
      dz2     :     0.004665  d :     0.025580
      dxz     :     0.005968
      dyz     :     0.006221
      dx2y2   :     0.003326
      dxy     :     0.005399

  1 C s       :     3.255630  s :     3.255630
      pz      :     0.886545  p :     2.821276
      px      :     0.944973
      py      :     0.989758
      dz2     :     0.010397  d :     0.053051
      dxz     :     0.011649
      dyz     :     0.013123
      dx2y2   :     0.007632
      dxy     :     0.010248

  2 O s       :     3.699502  s :     3.699502
      pz      :     1.616112  p :     4.425585
      px      :     1.629145
      py      :     1.180329
      dz2     :     0.004280  d :     0.028901
      dxz     :     0.009216
      dyz     :     0.010401
      dx2y2   :     0.000227
      dxy     :     0.004777

  3 C s       :     3.194249  s :     3.194249
      pz      :     0.746048  p :     2.344204
      px      :     0.827281
      py      :     0.770875
      dz2     :     0.022019  d :     0.127060
      dxz     :     0.015070
      dyz     :     0.027884
      dx2y2   :     0.034893
      dxy     :     0.027194

  4 O s       :     3.842413  s :     3.842413
      pz      :     1.405989  p :     4.502621
      px      :     1.448193
      py      :     1.648440
      dz2     :     0.005506  d :     0.017731
      dxz     :     0.001710
      dyz     :     0.005525
      dx2y2   :     0.001487
      dxy     :     0.003503

  5 C s       :     3.337774  s :     3.337774
      pz      :     0.947285  p :     3.048591
      px      :     0.964539
      py      :     1.136767
      dz2     :     0.003511  d :     0.034229
      dxz     :     0.010015
      dyz     :     0.008582
      dx2y2   :     0.004706
      dxy     :     0.007415

  6 C s       :     3.019028  s :     3.019028
      pz      :     0.970022  p :     2.908856
      px      :     1.010776
      py      :     0.928057
      dz2     :     0.005226  d :     0.044311
      dxz     :     0.009925
      dyz     :     0.011948
      dx2y2   :     0.006262
      dxy     :     0.010951

  7 H s       :     0.745882  s :     0.745882
      pz      :     0.005193  p :     0.018090
      px      :     0.007587
      py      :     0.005310

  8 C s       :     3.275057  s :     3.275057
      pz      :     0.824455  p :     2.416318
      px      :     0.777371
      py      :     0.814492
      dz2     :     0.028533  d :     0.127463
      dxz     :     0.018205
      dyz     :     0.043561
      dx2y2   :     0.016883
      dxy     :     0.020280

  9 O s       :     3.838501  s :     3.838501
      pz      :     1.749267  p :     4.501425
      px      :     1.451166
      py      :     1.300992
      dz2     :     0.000418  d :     0.017988
      dxz     :     0.001822
      dyz     :     0.003064
      dx2y2   :     0.006674
      dxy     :     0.006010

 10 O s       :     3.694743  s :     3.694743
      pz      :     1.116006  p :     4.384836
      px      :     1.640960
      py      :     1.627870
      dz2     :     0.000649  d :     0.039195
      dxz     :     0.001916
      dyz     :     0.010451
      dx2y2   :     0.012872
      dxy     :     0.013308

 11 C s       :     3.261589  s :     3.261589
      pz      :     0.828147  p :     2.815135
      px      :     1.037594
      py      :     0.949394
      dz2     :     0.011458  d :     0.053160
      dxz     :     0.010678
      dyz     :     0.013287
      dx2y2   :     0.008791
      dxy     :     0.008947

 12 C s       :     3.336321  s :     3.336321
      pz      :     0.977512  p :     3.124155
      px      :     1.101155
      py      :     1.045488
      dz2     :     0.005447  d :     0.025752
      dxz     :     0.004997
      dyz     :     0.006261
      dx2y2   :     0.004373
      dxy     :     0.004675

 13 S s       :     5.928011  s :     5.928011
      pz      :     3.444916  p :    10.194504
      px      :     3.435186
      py      :     3.314402
      dz2     :     0.013280  d :     0.096721
      dxz     :     0.016685
      dyz     :     0.023764
      dx2y2   :     0.018436
      dxy     :     0.024556

 14 P s       :     5.113844  s :     5.113844
      pz      :     2.827441  p :     8.402373
      px      :     2.800629
      py      :     2.774303
      dz2     :     0.138215  d :     0.715136
      dxz     :     0.116078
      dyz     :     0.164068
      dx2y2   :     0.118601
      dxy     :     0.178173

 15 S s       :     5.911127  s :     5.911127
      pz      :     3.655633  p :    10.444187
      px      :     3.667178
      py      :     3.121376
      dz2     :     0.008399  d :     0.063247
      dxz     :     0.002388
      dyz     :     0.015009
      dx2y2   :     0.020984
      dxy     :     0.016467

 16 O s       :     3.762170  s :     3.762170
      pz      :     1.501168  p :     4.565704
      px      :     1.364004
      py      :     1.700531
      dz2     :     0.010623  d :     0.021554
      dxz     :     0.007035
      dyz     :     0.002279
      dx2y2   :    -0.004833
      dxy     :     0.006450

 17 C s       :     3.331392  s :     3.331392
      pz      :     0.839663  p :     2.922745
      px      :     0.957076
      py      :     1.126006
      dz2     :     0.010221  d :     0.044306
      dxz     :     0.012326
      dyz     :     0.009354
      dx2y2   :     0.005996
      dxy     :     0.006409

 18 O s       :     3.746757  s :     3.746757
      pz      :     1.380406  p :     4.544651
      px      :     1.781406
      py      :     1.382840
      dz2     :     0.008833  d :     0.016740
      dxz     :     0.003526
      dyz     :    -0.002726
      dx2y2   :     0.005769
      dxy     :     0.001338

 19 C s       :     3.330248  s :     3.330248
      pz      :     1.066267  p :     2.921730
      px      :     1.109793
      py      :     0.745671
      dz2     :     0.008324  d :     0.043067
      dxz     :     0.004626
      dyz     :     0.008382
      dx2y2   :     0.009024
      dxy     :     0.012711

 20 H s       :     0.825998  s :     0.825998
      pz      :     0.003754  p :     0.018240
      px      :     0.009410
      py      :     0.005077

 21 H s       :     0.832266  s :     0.832266
      pz      :     0.006421  p :     0.018485
      px      :     0.005810
      py      :     0.006254

 22 H s       :     0.804055  s :     0.804055
      pz      :     0.005159  p :     0.018313
      px      :     0.003821
      py      :     0.009333

 23 H s       :     0.831039  s :     0.831039
      pz      :     0.004940  p :     0.017409
      px      :     0.003507
      py      :     0.008961

 24 H s       :     0.811024  s :     0.811024
      pz      :     0.003243  p :     0.017835
      px      :     0.009122
      py      :     0.005470

 25 H s       :     0.800461  s :     0.800461
      pz      :     0.006790  p :     0.017924
      px      :     0.004257
      py      :     0.006877

 26 H s       :     0.773316  s :     0.773316
      pz      :     0.004828  p :     0.017969
      px      :     0.004481
      py      :     0.008660

 27 H s       :     0.809303  s :     0.809303
      pz      :     0.003849  p :     0.017503
      px      :     0.010354
      py      :     0.003301

 28 H s       :     0.816697  s :     0.816697
      pz      :     0.002789  p :     0.017513
      px      :     0.005066
      py      :     0.009658

 29 H s       :     0.831151  s :     0.831151
      pz      :     0.003598  p :     0.018228
      px      :     0.005192
      py      :     0.009438

 30 H s       :     0.834135  s :     0.834135
      pz      :     0.007189  p :     0.018457
      px      :     0.005578
      py      :     0.005689

 31 H s       :     0.816461  s :     0.816461
      pz      :     0.004221  p :     0.018434
      px      :     0.010472
      py      :     0.003741

 32 H s       :     0.823637  s :     0.823637
      pz      :     0.007405  p :     0.017870
      px      :     0.004742
      py      :     0.005723

 33 H s       :     0.806234  s :     0.806234
      pz      :     0.003526  p :     0.018071
      px      :     0.003447
      py      :     0.011098

 34 H s       :     0.829937  s :     0.829937
      pz      :     0.003134  p :     0.017718
      px      :     0.009140
      py      :     0.005444

 35 H s       :     0.811492  s :     0.811492
      pz      :     0.003420  p :     0.017790
      px      :     0.009782
      py      :     0.004589

 36 H s       :     0.821979  s :     0.821979
      pz      :     0.010709  p :     0.017742
      px      :     0.004692
      py      :     0.002341

 37 H s       :     0.812497  s :     0.812497
      pz      :     0.006209  p :     0.018127
      px      :     0.007468
      py      :     0.004450


------------------------
MULLIKEN OVERLAP CHARGES
------------------------
B(  0-C ,  1-C ) :   0.5065 B(  0-C ,  2-O ) :  -0.1293 B(  0-C , 20-H ) :   0.8153 
B(  0-C , 21-H ) :   0.7914 B(  0-C , 22-H ) :   0.8479 B(  0-C , 24-H ) :  -0.0904 
B(  1-C ,  2-O ) :   0.3398 B(  1-C ,  3-C ) :  -0.2148 B(  1-C , 20-H ) :  -0.0596 
B(  1-C , 21-H ) :  -0.0626 B(  1-C , 22-H ) :  -0.0924 B(  1-C , 23-H ) :   0.7980 
B(  1-C , 24-H ) :   0.8743 B(  2-O ,  3-C ) :   0.2853 B(  2-O ,  4-O ) :  -0.1943 
B(  2-O ,  6-C ) :  -0.0640 B(  2-O , 23-H ) :  -0.0959 B(  2-O , 24-H ) :  -0.0626 
B(  3-C ,  4-O ) :   0.8273 B(  3-C ,  6-C ) :   0.2743 B(  3-C ,  8-C ) :  -0.2285 
B(  3-C , 13-S ) :   0.0546 B(  3-C , 25-H ) :  -0.1091 B(  3-C , 26-H ) :  -0.0586 
B(  4-O ,  5-C ) :  -0.1534 B(  4-O ,  6-C ) :  -0.0929 B(  4-O ,  8-C ) :   0.1955 
B(  4-O , 10-O ) :  -0.0529 B(  5-C ,  6-C ) :  -0.1458 B(  5-C ,  7-H ) :  -0.0907 
B(  5-C ,  8-C ) :   0.0550 B(  5-C ,  9-O ) :   0.0850 B(  5-C , 25-H ) :   0.8599 
B(  5-C , 26-H ) :   0.8251 B(  6-C ,  7-H ) :   0.8925 B(  6-C ,  8-C ) :  -0.1759 
B(  6-C ,  9-O ) :  -0.1027 B(  6-C , 13-S ) :   0.3349 B(  6-C , 14-P ) :  -0.0587 
B(  6-C , 25-H ) :  -0.1086 B(  7-H ,  8-C ) :  -0.0833 B(  7-H , 13-S ) :  -0.0854 
B(  8-C ,  9-O ) :   0.8504 B(  8-C , 10-O ) :   0.0713 B(  8-C , 11-C ) :  -0.2646 
B(  8-C , 13-S ) :  -0.2390 B(  8-C , 26-H ) :  -0.0509 B(  9-O , 10-O ) :  -0.1879 
B( 10-O , 11-C ) :   0.2791 B( 10-O , 12-C ) :  -0.1308 B( 10-O , 14-P ) :   0.0596 
B( 10-O , 27-H ) :  -0.0669 B( 10-O , 28-H ) :  -0.0546 B( 11-C , 12-C ) :   0.4044 
B( 11-C , 27-H ) :   0.8299 B( 11-C , 28-H ) :   0.8149 B( 11-C , 29-H ) :  -0.0821 
B( 11-C , 30-H ) :  -0.0675 B( 11-C , 31-H ) :  -0.0665 B( 12-C , 27-H ) :  -0.0602 
B( 12-C , 28-H ) :  -0.0568 B( 12-C , 29-H ) :   0.8304 B( 12-C , 30-H ) :   0.8039 
B( 12-C , 31-H ) :   0.8229 B( 13-S , 14-P ) :   0.5735 B( 13-S , 15-S ) :  -0.1126 
B( 13-S , 16-O ) :  -0.0951 B( 13-S , 18-O ) :  -0.0844 B( 14-P , 15-S ) :   1.2632 
B( 14-P , 16-O ) :   0.4527 B( 14-P , 17-C ) :  -0.1726 B( 14-P , 18-O ) :   0.6637 
B( 14-P , 19-C ) :  -0.2050 B( 15-S , 16-O ) :  -0.0874 B( 15-S , 18-O ) :  -0.1005 
B( 16-O , 17-C ) :   0.3583 B( 16-O , 18-O ) :  -0.2217 B( 16-O , 32-H ) :  -0.0766 
B( 16-O , 33-H ) :  -0.0848 B( 16-O , 34-H ) :  -0.0922 B( 17-C , 32-H ) :   0.8026 
B( 17-C , 33-H ) :   0.8338 B( 17-C , 34-H ) :   0.7969 B( 18-O , 19-C ) :   0.3082 
B( 18-O , 35-H ) :  -0.0728 B( 18-O , 36-H ) :  -0.0812 B( 18-O , 37-H ) :  -0.0836 
B( 19-C , 35-H ) :   0.8075 B( 19-C , 36-H ) :   0.7887 B( 19-C , 37-H ) :   0.8291 
B( 27-H , 28-H ) :  -0.0566 B( 29-H , 31-H ) :  -0.0515 B( 32-H , 33-H ) :  -0.0608 
B( 35-H , 37-H ) :  -0.0590 


                     *******************************
                     * LOEWDIN POPULATION ANALYSIS *
                     *******************************

----------------------
LOEWDIN ATOMIC CHARGES
----------------------
   0 C :   -0.394705
   1 C :    0.032308
   2 O :   -0.585236
   3 C :    0.351724
   4 O :   -0.415360
   5 C :   -0.197298
   6 C :   -0.191828
   7 H :    0.203551
   8 C :    0.317106
   9 O :   -0.399960
  10 O :   -0.624855
  11 C :    0.040822
  12 C :   -0.387665
  13 S :    0.203190
  14 P :    0.400112
  15 S :   -0.051696
  16 O :   -0.686255
  17 C :   -0.059873
  18 O :   -0.653886
  19 C :   -0.054610
  20 H :    0.158871
  21 H :    0.158706
  22 H :    0.167210
  23 H :    0.179638
  24 H :    0.189097
  25 H :    0.185533
  26 H :    0.200322
  27 H :    0.190406
  28 H :    0.186808
  29 H :    0.157881
  30 H :    0.159614
  31 H :    0.167066
  32 H :    0.168926
  33 H :    0.176896
  34 H :    0.177382
  35 H :    0.175936
  36 H :    0.180465
  37 H :    0.173656

-------------------------------
LOEWDIN REDUCED ORBITAL CHARGES
-------------------------------
  0 C s       :     2.973676  s :     2.973676
      pz      :     1.070329  p :     3.360619
      px      :     1.138465
      py      :     1.151824
      dz2     :     0.009952  d :     0.060410
      dxz     :     0.014293
      dyz     :     0.014687
      dx2y2   :     0.008206
      dxy     :     0.013273

  1 C s       :     2.871053  s :     2.871053
      pz      :     0.968399  p :     2.977972
      px      :     1.000170
      py      :     1.009403
      dz2     :     0.022543  d :     0.118667
      dxz     :     0.026692
      dyz     :     0.028974
      dx2y2   :     0.017288
      dxy     :     0.023170

  2 O s       :     3.457703  s :     3.457703
      pz      :     1.626739  p :     4.646688
      px      :     1.636645
      py      :     1.383304
      dz2     :     0.081808  d :     0.480844
      dxz     :     0.063525
      dyz     :     0.109185
      dx2y2   :     0.113926
      dxy     :     0.112399

  3 C s       :     2.731473  s :     2.731473
      pz      :     0.858042  p :     2.639113
      px      :     0.870910
      py      :     0.910161
      dz2     :     0.043323  d :     0.277690
      dxz     :     0.035114
      dyz     :     0.062147
      dx2y2   :     0.079091
      dxy     :     0.058015

  4 O s       :     3.542241  s :     3.542241
      pz      :     1.485919  p :     4.638725
      px      :     1.501697
      py      :     1.651109
      dz2     :     0.040562  d :     0.234394
      dxz     :     0.059781
      dyz     :     0.043546
      dx2y2   :     0.045130
      dxy     :     0.045376

  5 C s       :     2.921470  s :     2.921470
      pz      :     1.058921  p :     3.202517
      px      :     1.028644
      py      :     1.114952
      dz2     :     0.006128  d :     0.073312
      dxz     :     0.021865
      dyz     :     0.019989
      dx2y2   :     0.009726
      dxy     :     0.015604

  6 C s       :     2.920981  s :     2.920981
      pz      :     1.062979  p :     3.179095
      px      :     1.076764
      py      :     1.039352
      dz2     :     0.008862  d :     0.091752
      dxz     :     0.021220
      dyz     :     0.025464
      dx2y2   :     0.012313
      dxy     :     0.023892

  7 H s       :     0.750177  s :     0.750177
      pz      :     0.013895  p :     0.046272
      px      :     0.018678
      py      :     0.013700

  8 C s       :     2.732936  s :     2.732936
      pz      :     0.912905  p :     2.671337
      px      :     0.796448
      py      :     0.961984
      dz2     :     0.064169  d :     0.278621
      dxz     :     0.036178
      dyz     :     0.099894
      dx2y2   :     0.036345
      dxy     :     0.042035

  9 O s       :     3.540781  s :     3.540781
      pz      :     1.699498  p :     4.636843
      px      :     1.463294
      py      :     1.474051
      dz2     :     0.037924  d :     0.222336
      dxz     :     0.019093
      dyz     :     0.057990
      dx2y2   :     0.052757
      dxy     :     0.054572

 10 O s       :     3.452213  s :     3.452213
      pz      :     1.343399  p :     4.622675
      px      :     1.640888
      py      :     1.638388
      dz2     :     0.157310  d :     0.549966
      dxz     :     0.106977
      dyz     :     0.131461
      dx2y2   :     0.077551
      dxy     :     0.076667

 11 C s       :     2.865011  s :     2.865011
      pz      :     0.932490  p :     2.975791
      px      :     1.044720
      py      :     0.998582
      dz2     :     0.025879  d :     0.118376
      dxz     :     0.021605
      dyz     :     0.029823
      dx2y2   :     0.020464
      dxy     :     0.020605

 12 C s       :     2.968667  s :     2.968667
      pz      :     1.069895  p :     3.358193
      px      :     1.155215
      py      :     1.133083
      dz2     :     0.011697  d :     0.060804
      dxz     :     0.011413
      dyz     :     0.014966
      dx2y2   :     0.011169
      dxy     :     0.011560

 13 S s       :     5.408399  s :     5.408399
      pz      :     3.390490  p :    10.088440
      px      :     3.376310
      py      :     3.321640
      dz2     :     0.035031  d :     0.299971
      dxz     :     0.065150
      dyz     :     0.077240
      dx2y2   :     0.047235
      dxy     :     0.075314

 14 P s       :     4.654573  s :     4.654573
      pz      :     2.755842  p :     8.377920
      px      :     2.737058
      py      :     2.885020
      dz2     :     0.336726  d :     1.567395
      dxz     :     0.274155
      dyz     :     0.308943
      dx2y2   :     0.290716
      dxy     :     0.356855

 15 S s       :     5.557433  s :     5.557433
      pz      :     3.591846  p :    10.358462
      px      :     3.572258
      py      :     3.194358
      dz2     :     0.021329  d :     0.135801
      dxz     :     0.004735
      dyz     :     0.025669
      dx2y2   :     0.057038
      dxy     :     0.027030

 16 O s       :     3.471161  s :     3.471161
      pz      :     1.542416  p :     4.746841
      px      :     1.503291
      py      :     1.701134
      dz2     :     0.101726  d :     0.468253
      dxz     :     0.116956
      dyz     :     0.071201
      dx2y2   :     0.087668
      dxy     :     0.090703

 17 C s       :     2.915912  s :     2.915912
      pz      :     0.911543  p :     3.038475
      px      :     1.002982
      py      :     1.123950
      dz2     :     0.024256  d :     0.105486
      dxz     :     0.029139
      dyz     :     0.022735
      dx2y2   :     0.014289
      dxy     :     0.015067

 18 O s       :     3.471677  s :     3.471677
      pz      :     1.537784  p :     4.720392
      px      :     1.715326
      py      :     1.467281
      dz2     :     0.114059  d :     0.461817
      dxz     :     0.066931
      dyz     :     0.121959
      dx2y2   :     0.073538
      dxy     :     0.085329

 19 C s       :     2.915027  s :     2.915027
      pz      :     1.079663  p :     3.036945
      px      :     1.113606
      py      :     0.843675
      dz2     :     0.020978  d :     0.102638
      dxz     :     0.011111
      dyz     :     0.019396
      dx2y2   :     0.020744
      dxy     :     0.030410

 20 H s       :     0.797536  s :     0.797536
      pz      :     0.008448  p :     0.043593
      px      :     0.023122
      py      :     0.012022

 21 H s       :     0.797166  s :     0.797166
      pz      :     0.015168  p :     0.044128
      px      :     0.014061
      py      :     0.014899

 22 H s       :     0.788465  s :     0.788465
      pz      :     0.012131  p :     0.044325
      px      :     0.008558
      py      :     0.023636

 23 H s       :     0.780356  s :     0.780356
      pz      :     0.012434  p :     0.040006
      px      :     0.007503
      py      :     0.020068

 24 H s       :     0.767875  s :     0.767875
      pz      :     0.007558  p :     0.043029
      px      :     0.021459
      py      :     0.014011

 25 H s       :     0.769856  s :     0.769856
      pz      :     0.016773  p :     0.044611
      px      :     0.010290
      py      :     0.017548

 26 H s       :     0.754665  s :     0.754665
      pz      :     0.011584  p :     0.045013
      px      :     0.011121
      py      :     0.022309

 27 H s       :     0.768055  s :     0.768055
      pz      :     0.009657  p :     0.041539
      px      :     0.024416
      py      :     0.007466

 28 H s       :     0.771883  s :     0.771883
      pz      :     0.006342  p :     0.041308
      px      :     0.012596
      py      :     0.022370

 29 H s       :     0.798741  s :     0.798741
      pz      :     0.007998  p :     0.043377
      px      :     0.012167
      py      :     0.023213

 30 H s       :     0.796558  s :     0.796558
      pz      :     0.016962  p :     0.043829
      px      :     0.013114
      py      :     0.013752

 31 H s       :     0.788382  s :     0.788382
      pz      :     0.009654  p :     0.044552
      px      :     0.026563
      py      :     0.008335

 32 H s       :     0.789341  s :     0.789341
      pz      :     0.016663  p :     0.041733
      px      :     0.011489
      py      :     0.013581

 33 H s       :     0.780539  s :     0.780539
      pz      :     0.007741  p :     0.042564
      px      :     0.007396
      py      :     0.027427

 34 H s       :     0.782423  s :     0.782423
      pz      :     0.007561  p :     0.040195
      px      :     0.020337
      py      :     0.012297

 35 H s       :     0.781931  s :     0.781931
      pz      :     0.007508  p :     0.042133
      px      :     0.024418
      py      :     0.010207

 36 H s       :     0.779043  s :     0.779043
      pz      :     0.024973  p :     0.040492
      px      :     0.010284
      py      :     0.005235

 37 H s       :     0.783763  s :     0.783763
      pz      :     0.015074  p :     0.042580
      px      :     0.017674
      py      :     0.009833


---------------------------------
LOEWDIN BOND ORDERS (THRESH 0.050000)
---------------------------------
B(  0-C ,  1-C ) :   1.0820 B(  0-C ,  2-O ) :   0.1562 B(  0-C , 20-H ) :   0.9230 
B(  0-C , 21-H ) :   0.9179 B(  0-C , 22-H ) :   0.9158 B(  1-C ,  2-O ) :   1.2956 
B(  1-C ,  3-C ) :   0.0842 B(  1-C ,  4-O ) :   0.0622 B(  1-C , 23-H ) :   0.8341 
B(  1-C , 24-H ) :   0.8198 B(  2-O ,  3-C ) :   1.4800 B(  2-O ,  4-O ) :   0.4578 
B(  2-O ,  5-C ) :   0.1821 B(  2-O , 23-H ) :   0.0958 B(  2-O , 24-H ) :   0.0910 
B(  3-C ,  4-O ) :   2.1372 B(  3-C ,  5-C ) :   0.8995 B(  3-C ,  6-C ) :   0.0715 
B(  4-O ,  5-C ) :   0.1781 B(  4-O , 10-O ) :   0.0541 B(  5-C ,  6-C ) :   1.0261 
B(  5-C ,  8-C ) :   0.0680 B(  5-C , 13-S ) :   0.1172 B(  5-C , 25-H ) :   0.8585 
B(  5-C , 26-H ) :   0.8470 B(  6-C ,  7-H ) :   0.8122 B(  6-C ,  8-C ) :   0.8493 
B(  6-C ,  9-O ) :   0.1838 B(  6-C , 10-O ) :   0.1615 B(  6-C , 13-S ) :   1.2306 
B(  6-C , 14-P ) :   0.0841 B(  6-C , 15-S ) :   0.0516 B(  7-H , 13-S ) :   0.0583 
B(  8-C ,  9-O ) :   2.1614 B(  8-C , 10-O ) :   1.4401 B(  8-C , 11-C ) :   0.0914 
B(  8-C , 13-S ) :   0.1020 B(  8-C , 15-S ) :   0.0705 B(  9-O , 10-O ) :   0.4454 
B(  9-O , 11-C ) :   0.0692 B( 10-O , 11-C ) :   1.2711 B( 10-O , 12-C ) :   0.1589 
B( 10-O , 13-S ) :   0.1277 B( 10-O , 14-P ) :   0.0662 B( 10-O , 15-S ) :   0.0563 
B( 10-O , 18-O ) :   0.0534 B( 10-O , 27-H ) :   0.0943 B( 10-O , 28-H ) :   0.0937 
B( 11-C , 12-C ) :   1.0924 B( 11-C , 27-H ) :   0.8164 B( 11-C , 28-H ) :   0.8200 
B( 11-C , 30-H ) :   0.0502 B( 12-C , 29-H ) :   0.9212 B( 12-C , 30-H ) :   0.9168 
B( 12-C , 31-H ) :   0.9115 B( 13-S , 14-P ) :   1.1914 B( 13-S , 15-S ) :   0.1468 
B( 13-S , 16-O ) :   0.1569 B( 13-S , 18-O ) :   0.1400 B( 14-P , 15-S ) :   2.0200 
B( 14-P , 16-O ) :   1.5312 B( 14-P , 17-C ) :   0.0988 B( 14-P , 18-O ) :   1.5731 
B( 14-P , 19-C ) :   0.0991 B( 15-S , 16-O ) :   0.1824 B( 15-S , 18-O ) :   0.1625 
B( 16-O , 17-C ) :   1.3518 B( 16-O , 18-O ) :   0.2297 B( 16-O , 32-H ) :   0.1033 
B( 16-O , 33-H ) :   0.1019 B( 16-O , 34-H ) :   0.1020 B( 17-C , 32-H ) :   0.8658 
B( 17-C , 33-H ) :   0.8604 B( 17-C , 34-H ) :   0.8630 B( 18-O , 19-C ) :   1.3233 
B( 18-O , 35-H ) :   0.0984 B( 18-O , 36-H ) :   0.1009 B( 18-O , 37-H ) :   0.0998 
B( 19-C , 35-H ) :   0.8645 B( 19-C , 36-H ) :   0.8619 B( 19-C , 37-H ) :   0.8605 


------------------------------------------
LOEWDIN REDUCED ORBITAL POPULATIONS PER MO
-------------------------------------------
THRESHOLD FOR PRINTING IS 0.1%%
                      0         1         2         3         4         5   
                 -88.57667 -88.52021 -76.91629 -19.01029 -18.99848 -18.99419
                   2.00000   2.00000   2.00000   2.00000   2.00000   2.00000
                  --------  --------  --------  --------  --------  --------
 2 O  s               0.0       0.0       0.0      99.9       0.0       0.0
13 S  s             100.0       0.0       0.0       0.0       0.0       0.0
14 P  s               0.0       0.0     100.0       0.0       0.0       0.0
15 S  s               0.0     100.0       0.0       0.0       0.0       0.0
16 O  s               0.0       0.0       0.0       0.0       0.0      99.9
18 O  s               0.0       0.0       0.0       0.0      99.9       0.0

                      6         7         8         9        10        11   
                 -18.99303 -18.93930 -18.92435 -10.16540 -10.15408 -10.10254
                   2.00000   2.00000   2.00000   2.00000   2.00000   2.00000
                  --------  --------  --------  --------  --------  --------
 2 O  py              0.0       0.0       0.0       0.1       0.0       0.0
 2 O  dx2y2           0.0       0.0       0.0       0.2       0.0       0.0
 3 C  s               0.0       0.0       0.0      98.8       0.0       0.0
 4 O  s               0.0      99.9       0.0       0.0       0.0       0.0
 4 O  dxz             0.0       0.0       0.0       0.1       0.0       0.0
 4 O  dyz             0.0       0.0       0.0       0.1       0.0       0.0
 8 C  s               0.0       0.0       0.0       0.0      98.8       0.0
 9 O  s               0.0       0.0      99.9       0.0       0.0       0.0
 9 O  py              0.0       0.0       0.0       0.0       0.2       0.0
 9 O  dx2y2           0.0       0.0       0.0       0.0       0.1       0.0
10 O  s              99.9       0.0       0.0       0.0       0.0       0.0
10 O  pz              0.0       0.0       0.0       0.0       0.1       0.0
10 O  dz2             0.0       0.0       0.0       0.0       0.2       0.0
10 O  dyz             0.0       0.0       0.0       0.0       0.1       0.0
18 O  dx2y2           0.0       0.0       0.0       0.0       0.0       0.2
19 C  s               0.0       0.0       0.0       0.0       0.0      99.4

                     12        13        14        15        16        17   
                 -10.10110 -10.09913 -10.09445 -10.08271 -10.06608 -10.03665
                   2.00000   2.00000   2.00000   2.00000   2.00000   2.00000
                  --------  --------  --------  --------  --------  --------
 0 C  s               0.0       0.0       0.0       0.0       0.0      99.7
 1 C  s              99.4       0.0       0.0       0.0       0.0       0.0
 2 O  dxz             0.1       0.0       0.0       0.0       0.0       0.0
 5 C  s               0.0       0.0       0.0       0.0      99.7       0.0
 6 C  s               0.0      99.6       0.0       0.0       0.0       0.0
10 O  dyz             0.0       0.0       0.0       0.1       0.0       0.0
11 C  s               0.0       0.0       0.0      99.4       0.0       0.0
16 O  dxz             0.0       0.0       0.2       0.0       0.0       0.0
17 C  s               0.0       0.0      99.4       0.0       0.0       0.0

                     18        19        20        21        22        23   
                 -10.02534  -7.87120  -7.81472  -6.59461  -5.81796  -5.81504
                   2.00000   2.00000   2.00000   2.00000   2.00000   2.00000
                  --------  --------  --------  --------  --------  --------
 6 C  py              0.0       0.1       0.0       0.0       0.0       0.0
12 C  s              99.7       0.0       0.0       0.0       0.0       0.0
13 S  s               0.0      99.6       0.0       0.0       0.0       0.0
13 S  pz              0.0       0.0       0.0       0.0      50.2       1.4
13 S  px              0.0       0.0       0.0       0.0      47.4       1.0
13 S  py              0.0       0.0       0.0       0.0       2.4      97.6
14 P  s               0.0       0.0       0.0      96.5       0.0       0.0
14 P  py              0.0       0.0       0.1       0.0       0.0       0.0
14 P  dx2y2           0.0       0.0       0.1       0.0       0.0       0.0
15 S  s               0.0       0.0      99.6       0.0       0.0       0.0
15 S  py              0.0       0.0       0.0       0.1       0.0       0.0
15 S  dx2y2           0.0       0.0       0.0       0.2       0.0       0.0
[...]

                    492       493       494       495       496       497   
                  18.99045  19.34903  21.96277  21.99244  22.01402  22.02621
                   0.00000   0.00000   0.00000   0.00000   0.00000   0.00000
                  --------  --------  --------  --------  --------  --------
 0 C  s               0.0       0.0      42.9      42.7       0.0       0.0
 1 C  s               0.0       0.0       0.2      13.4       0.8       0.5
 3 C  s               0.0       0.1       0.7       0.4       0.1       0.0
 5 C  s               0.0       0.1       0.0       6.1       1.0       1.6
 6 C  s               0.0       0.5       1.0       0.0       0.1       1.0
 8 C  s               0.1       0.0       0.0       0.1       0.1       0.0
11 C  s               0.0       0.0       3.7       3.5       0.3      20.5
12 C  s               0.0       0.0      39.8      26.1       0.7       8.1
13 S  s               0.1      98.3       0.0       0.0       0.0       0.0
13 S  py              0.0       0.1       0.0       0.0       0.0       0.0
14 P  s               0.1       0.1       0.0       0.0       0.0       0.0
14 P  py              0.2       0.0       0.0       0.0       0.0       0.0
15 S  s              98.8       0.1       0.0       0.0       0.0       0.0
15 S  py              0.1       0.0       0.0       0.0       0.0       0.0
17 C  s               0.0       0.0       0.1       1.4      96.1       0.6
19 C  s               0.1       0.0      11.1       5.8       0.3      67.2

                    498       499       500       501       502       503   
                  22.06232  22.09315  22.14617  22.27376  22.41524  22.52667
                   0.00000   0.00000   0.00000   0.00000   0.00000   0.00000
                  --------  --------  --------  --------  --------  --------
 0 C  s              12.6       0.0       0.6       0.8       0.1       0.0
 1 C  s              74.7       0.4       6.9       2.5       0.2       0.0
 2 O  s               0.0       0.0       0.0       0.0       0.1       0.0
 2 O  py              0.0       0.0       0.0       0.0       0.1       0.0
 3 C  s               0.3       1.5       6.4       8.3      79.2       2.1
 4 O  s               0.0       0.0       0.0       0.0       0.2       0.0
 5 C  s               3.7       2.4      66.9      13.4       3.2       1.0
 6 C  s               0.4       4.4       7.5      69.6      15.3       0.1
 8 C  s               0.1       1.1       1.1       0.1       1.1      95.2
 8 C  py              0.0       0.0       0.0       0.0       0.0       0.2
 9 O  s               0.0       0.0       0.0       0.0       0.0       0.2
 9 O  py              0.0       0.0       0.0       0.0       0.0       0.1
10 O  pz              0.0       0.0       0.0       0.0       0.0       0.1
11 C  s               0.0      61.2       5.7       4.4       0.0       0.2
12 C  s               3.8      20.6       0.0       0.1       0.0       0.3
13 S  s               0.0       0.0       0.2       0.3       0.0       0.0
17 C  s               0.7       0.0       0.6       0.0       0.0       0.0
19 C  s               3.5       7.9       3.7       0.1       0.0       0.0

                    504       505       506       507       508       509   
                  43.77734  43.78394  43.78727  43.87879  43.90323  44.05564
                   0.00000   0.00000   0.00000   0.00000   0.00000   0.00000
                  --------  --------  --------  --------  --------  --------
 2 O  s               2.8      46.2      18.4      23.0       4.8       4.7
 4 O  s               2.5      39.7       0.7      39.6      15.2       2.2
 8 C  s               0.0       0.0       0.0       0.0       0.0       0.1
 9 O  s              13.7      12.3      42.1       8.5       5.7      17.5
10 O  s              12.6       1.4      11.7       1.4       0.0      72.7
16 O  s              68.3       0.3      25.7       1.0       1.9       2.6
18 O  s               0.0       0.1       1.3      26.3      72.1       0.0



                      *****************************
                      * MAYER POPULATION ANALYSIS *
                      *****************************

  NA   - Mulliken gross atomic population
  ZA   - Total nuclear charge
  QA   - Mulliken gross atomic charge
  VA   - Mayer's total valence
  BVA  - Mayer's bonded valence
  FA   - Mayer's free valence

  ATOM       NA         ZA         QA         VA         BVA        FA
  0 C      6.4839     6.0000    -0.4839     3.8064     3.8064    -0.0000
  1 C      6.1300     6.0000    -0.1300     3.6634     3.6634    -0.0000
  2 O      8.1540     8.0000    -0.1540     1.9159     1.9159     0.0000
  3 C      5.6655     6.0000     0.3345     3.8010     3.8010    -0.0000
  4 O      8.3628     8.0000    -0.3628     1.9380     1.9380    -0.0000
  5 C      6.4206     6.0000    -0.4206     3.8323     3.8323    -0.0000
  6 C      5.9722     6.0000     0.0278     3.5651     3.5651     0.0000
  7 H      0.7640     1.0000     0.2360     0.9249     0.9249     0.0000
  8 C      5.8188     6.0000     0.1812     3.9121     3.9121     0.0000
  9 O      8.3579     8.0000    -0.3579     1.9683     1.9683    -0.0000
 10 O      8.1188     8.0000    -0.1188     1.9680     1.9680     0.0000
 11 C      6.1299     6.0000    -0.1299     3.6626     3.6626    -0.0000
 12 C      6.4862     6.0000    -0.4862     3.8063     3.8063     0.0000
 13 S     16.2192    16.0000    -0.2192     2.1598     2.1598    -0.0000
 14 P     14.2314    15.0000     0.7686     5.0818     5.0818    -0.0000
 15 S     16.4186    16.0000    -0.4186     2.0803     2.0803     0.0000
 16 O      8.3494     8.0000    -0.3494     1.8367     1.8367    -0.0000
 17 C      6.2984     6.0000    -0.2984     3.7719     3.7719     0.0000
 18 O      8.3081     8.0000    -0.3081     1.8814     1.8814     0.0000
 19 C      6.2950     6.0000    -0.2950     3.7343     3.7343     0.0000
 20 H      0.8442     1.0000     0.1558     0.9600     0.9600    -0.0000
 21 H      0.8508     1.0000     0.1492     0.9634     0.9634    -0.0000
 22 H      0.8224     1.0000     0.1776     0.9564     0.9564    -0.0000
 23 H      0.8484     1.0000     0.1516     0.9513     0.9513    -0.0000
 24 H      0.8289     1.0000     0.1711     0.9585     0.9585     0.0000
 25 H      0.8184     1.0000     0.1816     0.9508     0.9508    -0.0000
 26 H      0.7913     1.0000     0.2087     0.9436     0.9436     0.0000
 27 H      0.8268     1.0000     0.1732     0.9486     0.9486    -0.0000
 28 H      0.8342     1.0000     0.1658     0.9513     0.9513     0.0000
 29 H      0.8494     1.0000     0.1506     0.9609     0.9609     0.0000
 30 H      0.8526     1.0000     0.1474     0.9639     0.9639     0.0000
 31 H      0.8349     1.0000     0.1651     0.9594     0.9594     0.0000
 32 H      0.8415     1.0000     0.1585     0.9548     0.9548     0.0000
 33 H      0.8243     1.0000     0.1757     0.9552     0.9552    -0.0000
 34 H      0.8477     1.0000     0.1523     0.9557     0.9557     0.0000
 35 H      0.8293     1.0000     0.1707     0.9519     0.9519    -0.0000
 36 H      0.8397     1.0000     0.1603     0.9557     0.9557     0.0000
 37 H      0.8306     1.0000     0.1694     0.9571     0.9571     0.0000

  Mayer bond orders larger than 0.100000
B(  0-C ,  1-C ) :   0.9284 B(  0-C , 20-H ) :   0.9688 B(  0-C , 21-H ) :   0.9629 
B(  0-C , 22-H ) :   0.9692 B(  1-C ,  2-O ) :   0.8149 B(  1-C , 23-H ) :   0.9615 
B(  1-C , 24-H ) :   0.9706 B(  2-O ,  3-C ) :   1.0693 B(  3-C ,  4-O ) :   1.8060 
B(  3-C ,  5-C ) :   0.9280 B(  4-O ,  8-C ) :   0.1231 B(  5-C ,  6-C ) :   0.8574 
B(  5-C , 25-H ) :   0.9824 B(  5-C , 26-H ) :   0.9606 B(  6-C ,  7-H ) :   0.9252 
B(  6-C ,  8-C ) :   0.8828 B(  6-C , 13-S ) :   0.8817 B(  8-C ,  9-O ) :   1.8440 
B(  8-C , 10-O ) :   1.1005 B( 10-O , 11-C ) :   0.8057 B( 11-C , 12-C ) :   0.9236 
B( 11-C , 27-H ) :   0.9540 B( 11-C , 28-H ) :   0.9500 B( 12-C , 29-H ) :   0.9769 
B( 12-C , 30-H ) :   0.9666 B( 12-C , 31-H ) :   0.9670 B( 13-S , 14-P ) :   0.9807 
B( 14-P , 15-S ) :   1.7973 B( 14-P , 16-O ) :   1.0284 B( 14-P , 18-O ) :   1.1490 
B( 16-O , 17-C ) :   0.8314 B( 17-C , 32-H ) :   0.9565 B( 17-C , 33-H ) :   0.9590 
B( 17-C , 34-H ) :   0.9673 B( 18-O , 19-C ) :   0.7896 B( 19-C , 35-H ) :   0.9588 
B( 19-C , 36-H ) :   0.9638 B( 19-C , 37-H ) :   0.9576 

-------
TIMINGS
-------

Total SCF time: 0 days 0 hours 1 min 24 sec 

Total time                  ....      84.102 sec
Sum of individual times     ....      84.065 sec  (100.0%)

SCF preparation             ....       4.086 sec  (  4.9%)
Fock matrix formation       ....      74.565 sec  ( 88.7%)
  Startup                   ....       0.021 sec  (  0.0% of F)
  Split-RI-J                ....      25.445 sec  ( 34.1% of F)
  XC integration            ....      48.904 sec  ( 65.6% of F)
    XC Preparation          ....       0.000 sec  (  0.0% of XC)
    Basis function eval.    ....       7.381 sec  ( 15.1% of XC)
    Density eval.           ....      20.171 sec  ( 41.2% of XC)
    XC-Functional eval.     ....       2.989 sec  (  6.1% of XC)
    XC-Potential eval.      ....      17.599 sec  ( 36.0% of XC)
Diagonalization             ....       0.000 sec  (  0.0%)
Density matrix formation    ....       0.110 sec  (  0.1%)
Total Energy calculation    ....       0.010 sec  (  0.0%)
Population analysis         ....       4.265 sec  (  5.1%)
Orbital Transformation      ....       0.122 sec  (  0.1%)
Orbital Orthonormalization  ....       0.000 sec  (  0.0%)
DIIS solution               ....       0.804 sec  (  1.0%)
  MO trafo                  ....       0.000 sec  (  0.0 % of DIIS)
  Orb grad                  ....       0.000 sec  (  0.0 % of DIIS)
  Energy W gradient         ....       0.000 sec  (  0.0 % of DIIS)
  DIIS error                ....       0.128 sec  ( 15.9 % of DIIS)
  DIIS work                 ....       0.608 sec  ( 75.6 % of DIIS)
  Form Q                    ....       0.000 sec  (  0.0 % of DIIS)
  Form QpQm                 ....       0.000 sec  (  0.0 % of DIIS)
  Exp/Cayley                ....       0.000 sec  (  0.0 % of DIIS)
  Orb update                ....       0.000 sec  (  0.0 % of DIIS)
  Wake-sleep                ....       0.005 sec  (  0.6 % of DIIS)
SOSCF solution              ....       0.103 sec  (  0.1%)
  MO trafo                  ....       0.081 sec  ( 78.5 % of SOSCF)
  Orb grad                  ....       0.000 sec  (  0.3 % of SOSCF)
  Rot update                ....       0.000 sec  (  0.1 % of SOSCF)
  Step                      ....       0.022 sec  ( 21.0 % of SOSCF)
Finished LeanSCF after  88.7 sec

Maximum memory used throughout the entire LEANSCF-calculation: 74.5 MB


-------------------------------------------------------------------------------
                          DFT DISPERSION CORRECTION                            
                                                                               
                                DFTD4 V3.4.0                                   
-------------------------------------------------------------------------------
The R2SCAN3C composite method is recognized
Using three-body term ABC
Active option DFTDOPT                   ...         5   

-------------------------   ----------------
Dispersion correction           -0.018711237
-------------------------   ----------------

------------------   -----------------
gCP correction             0.037250401
------------------   -----------------

-------------------------   --------------------
FINAL SINGLE POINT ENERGY     -1981.453111348051
-------------------------   --------------------


------------------------------------------------------------------------------
                              ORCA PROPERTY CALCULATIONS
------------------------------------------------------------------------------

GBWName                                 ... sp_gas.gbw
Number of atoms                         ...     38
Number of basis functions               ...    510
Max core memory                         ...   1024 MB

Electric properties:
Dipole moment                           ... YES
Quadrupole moment                       ...  NO
Static polarizability (Dipole/Dipole)   ...  NO
Static polarizability (Dipole/Quad.)    ...  NO
Static polarizability (Quad./Quad.)     ...  NO
Static polarizability (Velocity)        ...  NO

Atomic electric properties:
Dipole moment                           ...  NO
Quadrupole moment                       ...  NO
Static polarizability                   ...  NO

Choice of electric origin               ... Center of mass
Position of electric origin             ...    -0.000004    -0.000010     0.000007

General magnetic properties:
Magnetizability                         ...  NO

EPR properties:
g-Tensor (aka g-matrix)                 ...  NO
Zero-Field splitting spin-orbit         ...  NO
Zero-field splitting spin-spin          ...  NO
Hyperfine couplings                     ...  NO (   0 nuclei)
Quadrupole couplings                    ...  NO (   0 nuclei)
Contact density                         ...  NO (   0 nuclei)

NMR properties:
Chemical shifts                         ...  NO (   0 nuclei)
Spin-rotation constants                 ...  NO (   0 nuclei)
Spin-spin couplings                     ...  NO (   0 nuclei,    0 pairs)

Choice of magnetic origin               ... GIAO
Position of magnetic origin             ...     0.000000     0.000000     0.000000

Properties with geometric perturbations:
SCF Hessian                             ...  NO
IR spectrum                             ...  NO
VCD spectrum                            ...  NO
X-ray spectroscopy properties:
SCF XES/XAS/RIXS spectra                ...  NO


-------------
DIPOLE MOMENT
-------------

Method             : SCF
Type of density    : Electron Density
Multiplicity       :   1
Irrep              :   0
Energy             : -1981.4716505112655796 Eh
Relativity type    : 
Basis              : AO
                                X                 Y                 Z
Electronic contribution:     -9.539692775      10.636598782      -8.369979233
Nuclear contribution   :      9.492951364     -13.082960651       8.632251116
                        -----------------------------------------
Total Dipole Moment    :     -0.046741410      -2.446361869       0.262271882
                        -----------------------------------------
Magnitude (a.u.)       :      2.460824596
Magnitude (Debye)      :      6.254919037



--------------------
Rotational spectrum 
--------------------
 
Rotational constants in cm-1:             0.013336             0.007902             0.007429 
Rotational constants in MHz :           399.803008           236.906772           222.703751 

Dipole components along the rotational axes: 
x,y,z [a.u.] :    -0.508986    -2.195775     0.987503 
x,y,z [Debye]:    -1.293740    -5.581217     2.510032 

 

Dipole moment calculation done in   1.6 sec 

Maximum memory used throughout the entire PROP-calculation: 53.3 MB

--------------------------------
SUGGESTED CITATIONS FOR THIS RUN
--------------------------------

Below you find a list of papers that are relevant to this ORCA run
We neither can nor want to force you to cite these papers, but we appreciate if you do
You receive ORCA, which is the product of decades of hard work by many enthusiastic individuals, for free
The only thing we kindly ask in return is that you cite our papers,
We deeply appreciate it, if you show your appreciation for ORCA by not just citing the generic ORCA reference.

Please note that relegating all ORCA citations to the supporting information does *not* help us.
SI sections are not indexed - citations you put there will not count into any citation statistics
But we need these citations in order to attract the funding resources that allow us to do what we are doing

Therefore, if you are a happy ORCA user, please consider citing a few of the papers listed below in the main body of your paper

In addition to the list printed below, the program has created the file sp_gas.bibtex that contains the list in bibtex format
You can import this file easily into all common literature databanks and citation aid programs


List of essential papers. We consider these as the minimum necessary citations

  1. Neese,F.
     Software update: the ORCA program system, version 5.0
     WIRES Comput. Molec. Sci., 2022 12(1)e1606
     doi.org/10.1002/wcms.1606
  2. Grimme,S.; Hansen,A.; Ehlert,S.; Mewes,J.
     r2SCAN-3c: A 'Swiss army knife' composite electronic-structure method
     J. Chem. Phys., 2021 154 064103
     doi.org/10.1063/5.0040021

List of papers to cite with high priority. The work reported in these papers was absolutely
necessary for this run to complete.
Our perspective: the developers of density functionals and basis sets usually get cited in chemistry papers
Good! But without the algorithms to do something with them, the functionals or basis sets would not do anything.
Hence, in our opinion, the algorithm design and method developments papers are equally worthy of getting cited

  1. Neese,F.
     An improvement of the resolution of the identity approximation for the formation of the Coulomb matrix
     J. Comp. Chem., 2003 24(14)1740-1747
     doi.org/10.1002/jcc.10318
  2. Neese,F.
     The SHARK Integral Generation and Digestion System
     J. Comp. Chem., 2022  1-16
     doi.org/10.1002/jcc.26942
  3. Lehtola,S.; Steigemann,C.; Oliveira,M.; Marques,M.
     Recent developments in Libxc - A comprehensive library of functionals for density functional theory
     Software X, 2018 7 
     doi.org/10.1016/j.softx.2017.11.002
  4. Caldeweyher,E.; Bannwarth,C.; Grimme,S.
     Extension of the D3 dispersion coefficient model
     J. Chem. Phys., 2017 147 034112
     doi.org/10.1063/1.4993215
  5. Caldeweyher,E.; Ehlert,S.; Hansen,A.; Neugebauer,H.; Spicher,S.; Bannwarth,C.; Grimme,S.
     A generally applicable atomic-charge dependent London dispersion correction
     J. Chem. Phys., 2019 150 154122
     doi.org/10.1063/1.5090222
  6. Caldeweyher,E.; Mewes,J.; Ehlert,S.; Grimme,S.
     Extension and evaluation of the D4 London-dispersion model for periodic systems
     Phys. Chem. Chem. Phys., 2020 22(16)8499-8512
     doi.org/10.1039/D0CP00502A
  7. Wittmann,L.; Gordiy,I.; Friede,M.; Helmich-Paris,B.; Grimme,S.; Hansen,A.; Bursch,M.
     Extension of the D3 and D4 London Dispersion Corrections to the full Actinides Series
     Phys. Chem. Chem. Phys., 2024 26(32)21379-21394
     doi.org/https://doi.org/10.1039/D4CP01514B 

List of suggested additional citations. These are papers that are important in the 'surrounding' of 
of this run, or papers that preceded the highly important papers. If you like your results we are grateful for a citation.

  1. Neese,F.
     The ORCA program system
     WIRES Comput. Molec. Sci., 2012 2(1)73-78
     doi.org/10.1002/wcms.81
  2. Neese,F.
     Software update: the ORCA program system, version 4.0
     WIRES Comput. Molec. Sci., 2018 8(1)1-6
     doi.org/10.1002/wcms.1327
  3. Neese,F.; Wennmohs,F.; Becker,U.; Riplinger,C.
     The ORCA quantum chemistry program package
     J. Chem. Phys., 2020 152 Art. No. L224108
     doi.org/10.1063/5.0004608

List of optional additional citations

  1. Neese,F.
     Approximate second-order SCF convergence for spin unrestricted wavefunctions
     Chem. Phys. Lett., 2000 325(1-3)93-98
     doi.org/10.1016/s0009-2614(00)00662-x

Timings for individual modules:

Sum of individual times          ...       93.494 sec (=   1.558 min)
Startup calculation              ...        2.767 sec (=   0.046 min)   3.0 %
SCF iterations                   ...       88.975 sec (=   1.483 min)  95.2 %
Property calculations            ...        1.752 sec (=   0.029 min)   1.9 %
                             ****ORCA TERMINATED NORMALLY****
TOTAL RUN TIME: 0 days 0 hours 1 minutes 41 seconds 875 msec
