 Entering Gaussian System
 *********************************************
 Gaussian 98:
 frequency output generated by the xtb code
 *********************************************
                         Standard orientation:
 --------------------------------------------------------------------
  Center     Atomic     Atomic              Coordinates (Angstroms)
  Number     Number      Type              X           Y           Z
 --------------------------------------------------------------------
    1          6             0        1.466793    0.436739   -2.668005
    2          6             0        2.500599    0.767728   -1.610075
    3          8             0        2.885460   -0.411524   -0.882537
    4         15             0        2.347131   -0.738909    0.577525
    5         16             0        2.486624    0.732118    1.874613
    6          8             0        3.178207   -2.040396    0.925382
    7          6             0        4.484298   -1.988157    1.542412
    8          6             0        5.535627   -1.397899    0.625226
    9         16             0        0.436648   -1.582049    0.281749
   10          6             0       -0.461643   -0.841108    1.700689
   11         16             0       -2.227020   -0.691900    1.364792
   12         15             0       -2.142879    0.847275   -0.091826
   13         16             0       -0.720176    2.177507    0.055641
   14          8             0       -3.643618    1.347086    0.126255
   15          6             0       -4.113746    2.642024   -0.298899
   16          6             0       -4.155221    2.770256   -1.809164
   17          8             0       -2.095270    0.145059   -1.517486
   18          6             0       -3.105683   -0.805008   -1.935472
   19          6             0       -2.490140   -2.180543   -2.088749
   20          1             0        0.540963    0.098305   -2.207018
   21          1             0        1.259425    1.331708   -3.245960
   22          1             0        1.842634   -0.343009   -3.324249
   23          1             0        2.121252    1.519040   -0.908634
   24          1             0        3.424158    1.133369   -2.063333
   25          1             0        4.406736   -1.402599    2.463843
   26          1             0        4.699340   -3.030863    1.780399
   27          1             0        6.507100   -1.465955    1.106022
   28          1             0        5.560904   -1.935130   -0.319065
   29          1             0        5.313338   -0.349971    0.428808
   30          1             0       -0.033744    0.144703    1.903700
   31          1             0       -0.371726   -1.493046    2.566175
   32          1             0       -5.111774    2.711370    0.137483
   33          1             0       -3.465454    3.408392    0.136004
   34          1             0       -3.147758    2.689142   -2.216393
   35          1             0       -4.778988    1.991580   -2.240720
   36          1             0       -4.564097    3.740974   -2.073108
   37          1             0       -3.917212   -0.812752   -1.202109
   38          1             0       -3.475717   -0.428984   -2.891345
   39          1             0       -1.651452   -2.137569   -2.777677
   40          1             0       -2.131196   -2.547199   -1.129789
   41          1             0       -3.239445   -2.863098   -2.476601
 --------------------------------------------------------------------
     1 basis functions        1 primitive gaussians
     1 alpha electrons        1 beta electrons
 
 Harmonic frequencies (cm**-1), IR intensities (km*mol⁻¹),
 Raman scattering activities (A**4/amu), Raman depolarization ratios,
 reduced masses (AMU), force constants (mDyne/A) and normal coordinates:
                      1                      2                      3
                        a                      a                      a 
 Frequencies --    53.7943                55.3068                58.2535
 Red. masses --    23.9709                25.5624                24.1877
 Frc consts  --     0.0000                 0.0000                 0.0000
 IR Inten    --     2.9943                 1.0792                 1.4324
 Raman Activ --     0.0000                 0.0000                 0.0000
 Depolar     --     0.0000                 0.0000                 0.0000
 Atom AN      X      Y      Z        X      Y      Z        X      Y      Z
   1   6    -0.01   0.05   0.09    -0.04   0.01  -0.05    -0.14  -0.04   0.06
   2   6    -0.04   0.12   0.11    -0.04   0.01  -0.06    -0.11  -0.08   0.04
   3   8     0.05   0.17   0.12    -0.10   0.02  -0.02    -0.12  -0.12   0.00
   4  15     0.07   0.04   0.12    -0.16   0.11  -0.03     0.03  -0.17   0.08
   5  16     0.03  -0.18   0.38    -0.36   0.25  -0.17    -0.06  -0.06  -0.04
   6   8     0.08   0.01  -0.05    -0.06   0.14   0.09     0.19  -0.02   0.04
   7   6     0.07  -0.01  -0.06    -0.04   0.17   0.04     0.20   0.12  -0.05
   8   6     0.06   0.02  -0.06    -0.05   0.12  -0.01     0.09   0.19  -0.12
   9  16     0.09   0.03   0.02    -0.04  -0.18   0.02     0.13  -0.54   0.42
  10   6     0.01   0.04  -0.02    -0.06  -0.17   0.02    -0.02   0.03   0.01
  11  16     0.03   0.00  -0.12    -0.07  -0.17  -0.07     0.01   0.02  -0.20
  12  15    -0.02  -0.03  -0.17     0.17  -0.09   0.03    -0.02   0.13  -0.08
  13  16     0.17  -0.20  -0.52     0.42  -0.37   0.06    -0.07   0.17   0.01
  14   8     0.05   0.09   0.08     0.18   0.10   0.09    -0.03   0.05  -0.03
  15   6     0.02   0.07   0.09     0.20   0.09   0.06    -0.06   0.04   0.00
  16   6    -0.06   0.06   0.09     0.15   0.07   0.06    -0.09   0.06   0.01
  17   8    -0.25  -0.04  -0.12     0.01  -0.00  -0.01    -0.00   0.15  -0.09
  18   6    -0.24  -0.07   0.04    -0.03   0.04   0.01     0.02   0.10  -0.07
  19   6    -0.22  -0.06   0.06    -0.08   0.02  -0.01     0.04   0.11  -0.06
  20   1     0.00   0.00   0.02    -0.01   0.01  -0.01    -0.04  -0.02   0.02
  21   1    -0.01   0.01   0.02    -0.01   0.00  -0.02    -0.04  -0.01   0.03
  22   1     0.01   0.02   0.03    -0.02  -0.00  -0.01    -0.04  -0.01   0.01
  23   1    -0.03   0.03   0.03    -0.00   0.01  -0.02    -0.02  -0.03   0.02
  24   1    -0.02   0.05   0.03    -0.01  -0.01  -0.02    -0.03  -0.02   0.01
  25   1     0.02  -0.01  -0.01    -0.01   0.06   0.01     0.06   0.04  -0.02
  26   1     0.02  -0.00  -0.02    -0.01   0.05   0.03     0.09   0.04  -0.01
  27   1     0.02   0.00  -0.02    -0.01   0.04  -0.01     0.04   0.08  -0.05
  28   1     0.01   0.01  -0.02    -0.02   0.02   0.01     0.02   0.05  -0.03
  29   1     0.01   0.01  -0.01    -0.01   0.03  -0.01     0.00   0.05  -0.03
  30   1    -0.00   0.01  -0.01    -0.01  -0.05   0.02    -0.00   0.02  -0.05
  31   1    -0.00   0.02  -0.00    -0.03  -0.06  -0.00    -0.03   0.06   0.05
  32   1     0.01   0.02   0.04     0.06   0.04   0.02    -0.01   0.00   0.01
  33   1     0.01   0.02   0.01     0.07   0.02   0.01    -0.02   0.01   0.00
  34   1    -0.02   0.02   0.01     0.04   0.01   0.01    -0.03   0.02  -0.00
  35   1    -0.02   0.02   0.04     0.03   0.02   0.03    -0.02   0.01   0.00
  36   1    -0.02   0.02   0.03     0.05   0.02   0.02    -0.03   0.02   0.01
  37   1    -0.05  -0.01   0.03    -0.00   0.02   0.01     0.01   0.03  -0.02
  38   1    -0.09  -0.03   0.02    -0.01   0.02   0.00     0.00   0.03  -0.02
  39   1    -0.07  -0.02   0.00    -0.02  -0.00  -0.01     0.01   0.03  -0.02
  40   1    -0.05  -0.00   0.02    -0.02   0.00  -0.00     0.02   0.04  -0.02
  41   1    -0.06  -0.03   0.04    -0.03   0.01  -0.00     0.01   0.03  -0.01
                      4                      5                      6
                        a                      a                      a 
 Frequencies --    56.6647                74.3731                74.3806
 Red. masses --    19.1960                22.8070                17.3375
 Frc consts  --     0.0000                 0.0000                 0.0000
 IR Inten    --     2.9306                 5.8302                 4.9063
 Raman Activ --     0.0000                 0.0000                 0.0000
 Depolar     --     0.0000                 0.0000                 0.0000
 Atom AN      X      Y      Z        X      Y      Z        X      Y      Z
   1   6     0.13  -0.12   0.02     0.06   0.09   0.01     0.06   0.39   0.08
   2   6     0.20  -0.15  -0.04     0.08   0.01   0.02     0.14   0.07   0.10
   3   8     0.19  -0.16   0.00     0.07  -0.04  -0.05    -0.10  -0.11  -0.06
   4  15     0.14   0.00   0.01    -0.06  -0.17  -0.15    -0.04  -0.05  -0.02
   5  16     0.08   0.26  -0.27    -0.38  -0.20  -0.08     0.10   0.13  -0.25
   6   8     0.02   0.01   0.22     0.02  -0.07  -0.05    -0.06  -0.04   0.03
   7   6     0.01  -0.01   0.21    -0.06   0.05   0.12    -0.04  -0.06   0.01
   8   6     0.04  -0.08   0.19    -0.01   0.18   0.27    -0.06   0.01   0.05
   9  16     0.15   0.03  -0.10    -0.03  -0.19  -0.29    -0.07  -0.09   0.22
  10   6     0.03   0.00  -0.10     0.09  -0.12  -0.11     0.01   0.05   0.11
  11  16     0.04  -0.22  -0.24     0.14   0.18   0.08     0.02   0.13   0.22
  12  15    -0.16   0.00  -0.03     0.09   0.14   0.04    -0.01  -0.12  -0.05
  13  16    -0.15  -0.00  -0.03     0.03   0.24  -0.26    -0.07  -0.04  -0.30
  14   8    -0.09  -0.00   0.15     0.06   0.04   0.13    -0.03  -0.13  -0.11
  15   6    -0.07   0.02   0.18    -0.05  -0.02   0.08     0.02  -0.02   0.14
  16   6    -0.07   0.09   0.19    -0.11  -0.08   0.07     0.08   0.24   0.16
  17   8    -0.23   0.14  -0.09     0.00   0.04   0.06     0.04  -0.20   0.02
  18   6    -0.17   0.07  -0.03     0.04  -0.05   0.14     0.01  -0.11  -0.06
  19   6    -0.13   0.09  -0.01     0.11  -0.02   0.18     0.03  -0.08  -0.24
  20   1     0.04  -0.02   0.02     0.02   0.03   0.00     0.01   0.13   0.02
  21   1     0.04  -0.04   0.00     0.02   0.04   0.02     0.05   0.15   0.07
  22   1     0.02  -0.05   0.01     0.01   0.03  -0.01    -0.02   0.13  -0.02
  23   1     0.08  -0.03  -0.01     0.03  -0.00   0.02     0.08   0.01   0.06
  24   1     0.06  -0.06  -0.02     0.03   0.00   0.01     0.06  -0.01   0.04
  25   1     0.01   0.01   0.05    -0.06   0.00   0.04    -0.01  -0.03   0.01
  26   1    -0.01  -0.00   0.07     0.00   0.02   0.03    -0.01  -0.02  -0.02
  27   1     0.01  -0.03   0.06    -0.02   0.07   0.10    -0.02  -0.00   0.01
  28   1     0.01  -0.03   0.06     0.04   0.07   0.07    -0.01   0.02   0.00
  29   1     0.02  -0.02   0.04    -0.02   0.05   0.08    -0.02   0.01   0.03
  30   1    -0.01   0.01  -0.03     0.06  -0.05  -0.02     0.01   0.01   0.02
  31   1     0.01   0.01  -0.02     0.02  -0.05  -0.04     0.00   0.02   0.04
  32   1    -0.02   0.00   0.05    -0.01  -0.02   0.03     0.00  -0.02   0.03
  33   1    -0.02  -0.00   0.06    -0.03   0.01   0.01     0.01  -0.03   0.08
  34   1    -0.02   0.03   0.05    -0.04  -0.01   0.01     0.03   0.08   0.06
  35   1    -0.02   0.03   0.04    -0.02  -0.04   0.04     0.02   0.09   0.00
  36   1    -0.02   0.03   0.06    -0.05  -0.03   0.01     0.04   0.08   0.08
  37   1    -0.05   0.02  -0.01     0.02  -0.02   0.05     0.01  -0.06  -0.01
  38   1    -0.06   0.01  -0.01    -0.00  -0.03   0.04    -0.01   0.00  -0.00
  39   1    -0.04   0.03  -0.00     0.03  -0.00   0.05     0.00   0.01  -0.07
  40   1    -0.03   0.03  -0.00     0.04   0.00   0.05     0.02  -0.05  -0.08
  41   1    -0.03   0.02   0.00     0.04  -0.02   0.06     0.01  -0.02  -0.08
                      7                      8                      9
                        a                      a                      a 
 Frequencies --    78.4735                74.9650                71.2997
 Red. masses --    16.9844                13.5304                11.2022
 Frc consts  --     0.0000                 0.0000                 0.0000
 IR Inten    --    11.8360                 1.3776                 1.4902
 Raman Activ --     0.0000                 0.0000                 0.0000
 Depolar     --     0.0000                 0.0000                 0.0000
 Atom AN      X      Y      Z        X      Y      Z        X      Y      Z
   1   6     0.13  -0.11   0.01     0.06  -0.07  -0.00     0.26   0.38   0.07
   2   6     0.09  -0.01   0.02     0.03  -0.05   0.02     0.31   0.09   0.11
   3   8     0.11   0.06   0.13     0.00  -0.04   0.07     0.05  -0.06   0.02
   4  15    -0.05   0.07   0.10    -0.05   0.04   0.10     0.00  -0.06   0.01
   5  16    -0.42   0.12   0.09    -0.05   0.12   0.01    -0.05   0.03  -0.09
   6   8    -0.04   0.07   0.15    -0.12  -0.00   0.15    -0.00  -0.03   0.06
   7   6     0.09  -0.00  -0.12    -0.03  -0.07  -0.03     0.07   0.00  -0.10
   8   6     0.00  -0.27  -0.39    -0.09  -0.15  -0.16    -0.01  -0.06  -0.22
   9  16     0.05  -0.05  -0.07    -0.04   0.07   0.06     0.01  -0.12   0.04
  10   6     0.01  -0.06  -0.04     0.01  -0.02   0.08    -0.02   0.01  -0.03
  11  16     0.03   0.00  -0.03     0.05   0.10   0.06    -0.05  -0.02  -0.00
  12  15     0.00  -0.00  -0.04     0.15   0.05   0.02    -0.09   0.04   0.07
  13  16    -0.20   0.22  -0.07     0.22   0.01  -0.18     0.00  -0.06   0.13
  14   8    -0.03  -0.07  -0.10     0.11  -0.02   0.16    -0.04   0.10   0.08
  15   6     0.05   0.02   0.10    -0.13  -0.13   0.06    -0.03   0.00  -0.22
  16   6     0.09   0.21   0.11    -0.40  -0.30   0.06     0.02  -0.27  -0.25
  17   8     0.08  -0.07   0.01     0.05   0.09  -0.01    -0.11   0.05   0.04
  18   6     0.09  -0.11   0.05     0.06   0.10  -0.09    -0.12   0.04   0.08
  19   6     0.12  -0.10   0.13     0.12   0.16  -0.34    -0.16   0.02   0.17
  20   1     0.03  -0.03   0.00     0.02  -0.02  -0.01     0.06   0.14   0.01
  21   1     0.04  -0.04  -0.02     0.02  -0.02  -0.00     0.12   0.14   0.05
  22   1     0.05  -0.04   0.02     0.02  -0.02   0.00     0.04   0.11  -0.00
  23   1     0.01   0.01  -0.01     0.00  -0.01  -0.00     0.13   0.03   0.05
  24   1     0.03  -0.01   0.00     0.01  -0.02   0.01     0.11  -0.02   0.04
  25   1     0.09   0.04  -0.05     0.03  -0.02  -0.01     0.05   0.01  -0.03
  26   1     0.00   0.00  -0.00    -0.02  -0.02  -0.01     0.02   0.00  -0.02
  27   1     0.02  -0.10  -0.16    -0.01  -0.06  -0.08     0.01  -0.02  -0.09
  28   1    -0.07  -0.11  -0.09    -0.07  -0.05  -0.05    -0.03  -0.03  -0.06
  29   1     0.04  -0.08  -0.14    -0.01  -0.04  -0.04     0.00  -0.02  -0.07
  30   1     0.01  -0.02  -0.00     0.01  -0.02   0.04    -0.01   0.01  -0.02
  31   1    -0.00  -0.03  -0.02    -0.01  -0.02   0.01    -0.00   0.02   0.00
  32   1     0.01   0.01   0.03    -0.02  -0.06   0.06    -0.01   0.02  -0.08
  33   1     0.03  -0.02   0.06    -0.05  -0.00  -0.04    -0.01   0.03  -0.10
  34   1     0.03   0.06   0.04    -0.13  -0.07  -0.03     0.01  -0.09  -0.06
  35   1     0.02   0.08   0.00    -0.12  -0.12   0.07     0.01  -0.10  -0.04
  36   1     0.04   0.07   0.06    -0.15  -0.10   0.01     0.00  -0.09  -0.12
  37   1     0.03  -0.02   0.01     0.03  -0.01  -0.01    -0.04   0.03   0.02
  38   1     0.02  -0.05   0.01    -0.01   0.06  -0.00    -0.03  -0.00   0.01
  39   1     0.03  -0.04   0.04     0.02   0.08  -0.11    -0.04  -0.01   0.06
  40   1     0.04  -0.02   0.04     0.06   0.01  -0.12    -0.06   0.01   0.06
  41   1     0.04  -0.04   0.05     0.04   0.05  -0.11    -0.05   0.01   0.05
                     10                     11                     12
                        a                      a                      a 
 Frequencies --    85.4836                85.1421                85.7502
 Red. masses --    14.6143                13.2008                12.1822
 Frc consts  --     0.0000                 0.0000                 0.0000
 IR Inten    --     3.3823                 0.9967                 1.2066
 Raman Activ --     0.0000                 0.0000                 0.0000
 Depolar     --     0.0000                 0.0000                 0.0000
 Atom AN      X      Y      Z        X      Y      Z        X      Y      Z
   1   6    -0.16   0.19   0.12    -0.28   0.13   0.19    -0.15   0.02   0.04
   2   6    -0.04   0.06   0.05    -0.14   0.12   0.05    -0.12   0.07  -0.01
   3   8    -0.10  -0.00  -0.04    -0.01   0.14  -0.02    -0.03   0.10  -0.03
   4  15    -0.03   0.03  -0.00     0.03   0.08  -0.04     0.01   0.05  -0.04
   5  16     0.21   0.09  -0.10    -0.09   0.13  -0.08    -0.08   0.06  -0.03
   6   8    -0.08  -0.02  -0.02     0.02   0.06  -0.05     0.05   0.05  -0.09
   7   6    -0.09  -0.09   0.01    -0.05  -0.08   0.11    -0.01  -0.04   0.05
   8   6    -0.03  -0.18   0.02     0.12  -0.36   0.13     0.13  -0.27   0.07
   9  16    -0.03   0.03   0.05     0.13  -0.14  -0.00     0.06  -0.10   0.05
  10   6    -0.10   0.01  -0.02     0.09  -0.07  -0.01     0.02   0.00  -0.01
  11  16    -0.12  -0.11  -0.30     0.16   0.01  -0.00     0.01  -0.05   0.04
  12  15     0.03   0.05  -0.11     0.16  -0.03  -0.05    -0.14   0.05   0.13
  13  16     0.13  -0.06   0.02    -0.03   0.17   0.02    -0.08   0.01  -0.16
  14   8     0.04   0.07   0.00     0.07  -0.13  -0.11    -0.05   0.12   0.27
  15   6    -0.03   0.05   0.06     0.01  -0.11  -0.04     0.02   0.03  -0.07
  16   6    -0.21   0.03   0.06    -0.07  -0.08  -0.04     0.36  -0.15  -0.10
  17   8    -0.01   0.12  -0.12     0.17  -0.06  -0.02    -0.23   0.09   0.07
  18   6     0.17  -0.16   0.07    -0.03   0.15  -0.07    -0.04  -0.10   0.10
  19   6     0.38  -0.10   0.36    -0.35  -0.00   0.06     0.29   0.09  -0.23
  20   1    -0.04   0.07   0.05    -0.07   0.04   0.09    -0.03  -0.00   0.02
  21   1    -0.04   0.07   0.05    -0.10   0.04   0.06    -0.06  -0.00   0.01
  22   1    -0.08   0.06   0.02    -0.11   0.04   0.04    -0.04   0.01   0.01
  23   1     0.02   0.02   0.03    -0.01   0.03   0.03    -0.04   0.02   0.00
  24   1    -0.01   0.00  -0.00    -0.06   0.04  -0.02    -0.04   0.03  -0.01
  25   1    -0.02  -0.02  -0.00    -0.02   0.01   0.01    -0.01   0.02  -0.01
  26   1    -0.05  -0.03   0.01    -0.07  -0.02   0.07    -0.04  -0.01   0.05
  27   1    -0.01  -0.06   0.01     0.02  -0.12   0.07     0.02  -0.09   0.05
  28   1    -0.01  -0.06   0.01     0.04  -0.14   0.06     0.05  -0.11   0.04
  29   1     0.00  -0.05  -0.01     0.08  -0.10  -0.01     0.07  -0.08  -0.03
  30   1    -0.04   0.01  -0.00     0.03  -0.02   0.00     0.00   0.00  -0.02
  31   1    -0.04   0.01  -0.00     0.02  -0.02  -0.00     0.01   0.01   0.01
  32   1     0.00   0.01   0.05     0.01  -0.04   0.00    -0.02   0.02  -0.09
  33   1     0.00   0.02  -0.01     0.00  -0.03  -0.02    -0.03   0.03  -0.01
  34   1    -0.07   0.02  -0.01    -0.03  -0.02  -0.03     0.13  -0.05   0.04
  35   1    -0.06  -0.00   0.04    -0.03  -0.02  -0.01     0.13  -0.06  -0.04
  36   1    -0.08   0.00   0.03    -0.02  -0.02   0.00     0.11  -0.05  -0.08
  37   1     0.04  -0.04   0.02    -0.03   0.11  -0.04     0.03  -0.12   0.07
  38   1     0.04  -0.12  -0.00     0.04   0.05  -0.04    -0.09  -0.01   0.06
  39   1     0.12  -0.03   0.12    -0.08  -0.07   0.04     0.05   0.12  -0.10
  40   1     0.11   0.03   0.13    -0.15  -0.01   0.03     0.15   0.01  -0.10
  41   1     0.14  -0.08   0.12    -0.14   0.04   0.01     0.12  -0.01  -0.06
                     13                     14                     15
                        a                      a                      a 
 Frequencies --   100.7736               104.8356               122.6665
 Red. masses --    12.5973                12.9474                16.8448
 Frc consts  --     0.0000                 0.0000                 0.0000
 IR Inten    --     2.4047                 1.5457                 7.7118
 Raman Activ --     0.0000                 0.0000                 0.0000
 Depolar     --     0.0000                 0.0000                 0.0000
 Atom AN      X      Y      Z        X      Y      Z        X      Y      Z
   1   6     0.37   0.01  -0.43    -0.11   0.00   0.18     0.10   0.01  -0.12
   2   6     0.01   0.12  -0.11     0.07  -0.02   0.01    -0.06   0.04   0.02
   3   8    -0.09   0.14  -0.07     0.14  -0.00   0.00    -0.08   0.03   0.01
   4  15    -0.03   0.09  -0.08     0.09  -0.05  -0.04    -0.02   0.06   0.06
   5  16    -0.06  -0.03   0.05    -0.11  -0.05  -0.03     0.18   0.09   0.01
   6   8     0.08   0.08  -0.21     0.13   0.01   0.01    -0.09  -0.01   0.01
   7   6    -0.05   0.00   0.06     0.09   0.09   0.06    -0.06  -0.12  -0.03
   8   6     0.18  -0.24   0.17     0.14  -0.07   0.02    -0.11   0.08   0.05
   9  16     0.02  -0.19   0.24     0.05  -0.00  -0.13     0.05  -0.08   0.05
  10   6    -0.02   0.05   0.04     0.01   0.05  -0.10    -0.05  -0.18   0.04
  11  16    -0.04   0.05   0.05    -0.04   0.10   0.10    -0.04  -0.25  -0.20
  12  15    -0.06  -0.00   0.01    -0.11   0.01   0.01     0.13  -0.01   0.03
  13  16     0.02  -0.09   0.06     0.03  -0.18   0.22    -0.21   0.37  -0.06
  14   8    -0.05   0.01  -0.04    -0.06   0.16  -0.21     0.12   0.07   0.01
  15   6    -0.05   0.04   0.04     0.11   0.23  -0.08     0.30   0.12  -0.03
  16   6    -0.19   0.06   0.05    -0.35   0.15  -0.08    -0.06  -0.08  -0.04
  17   8    -0.01   0.01   0.00    -0.02  -0.16   0.10     0.06  -0.12   0.07
  18   6     0.01   0.00  -0.03    -0.05  -0.14   0.15    -0.07  -0.08   0.26
  19   6     0.00  -0.01   0.05     0.05  -0.06  -0.23    -0.09  -0.05  -0.10
  20   1     0.09  -0.04  -0.20    -0.02   0.03   0.09     0.02  -0.02  -0.07
  21   1     0.12  -0.00  -0.13    -0.04  -0.00   0.05     0.03   0.01  -0.03
  22   1     0.19   0.02  -0.10    -0.08  -0.02   0.04     0.07   0.02  -0.03
  23   1    -0.08   0.01  -0.05     0.06   0.01   0.01    -0.05  -0.00   0.00
  24   1     0.03   0.07   0.05     0.01  -0.03  -0.04    -0.01   0.04   0.04
  25   1    -0.04   0.04  -0.01     0.02   0.06  -0.01    -0.01  -0.09   0.03
  26   1    -0.06   0.00   0.07     0.02   0.03   0.06    -0.01  -0.05  -0.07
  27   1     0.02  -0.07   0.10     0.03  -0.01   0.02    -0.03   0.01   0.00
  28   1     0.09  -0.11   0.07     0.04  -0.06   0.03    -0.03   0.07  -0.01
  29   1     0.09  -0.07  -0.01     0.05  -0.03  -0.04    -0.04   0.03   0.07
  30   1    -0.01   0.02  -0.02     0.01   0.02  -0.04    -0.02  -0.06   0.05
  31   1    -0.01   0.04   0.03     0.02   0.02  -0.02    -0.04  -0.08  -0.00
  32   1    -0.00   0.01   0.04     0.08   0.14   0.07     0.12   0.12   0.06
  33   1     0.00   0.00  -0.00     0.12   0.03  -0.09     0.17   0.01  -0.09
  34   1    -0.07   0.01  -0.01    -0.14  -0.01  -0.11    -0.05  -0.09  -0.08
  35   1    -0.07   0.02   0.03    -0.17   0.06   0.05    -0.09  -0.01   0.07
  36   1    -0.06   0.02   0.03    -0.08   0.06  -0.00     0.01  -0.02  -0.02
  37   1    -0.01   0.01  -0.02     0.04  -0.10   0.10     0.05  -0.05   0.15
  38   1     0.02  -0.01  -0.02    -0.09  -0.01   0.09    -0.11   0.01   0.12
  39   1     0.01  -0.01   0.02    -0.03   0.04  -0.12    -0.08   0.02  -0.10
  40   1    -0.01   0.01   0.02     0.09  -0.05  -0.11     0.06  -0.05  -0.07
  41   1     0.00  -0.00   0.01     0.01  -0.02  -0.05    -0.06  -0.00   0.01
                     16                     17                     18
                        a                      a                      a 
 Frequencies --   124.2421               127.5971               141.3314
 Red. masses --    13.5534                12.7208                14.7036
 Frc consts  --     0.0000                 0.0000                 0.0000
 IR Inten    --     2.5802                 8.3447                 9.2256
 Raman Activ --     0.0000                 0.0000                 0.0000
 Depolar     --     0.0000                 0.0000                 0.0000
 Atom AN      X      Y      Z        X      Y      Z        X      Y      Z
   1   6     0.00   0.12  -0.07     0.07  -0.02  -0.05     0.07  -0.06  -0.01
   2   6    -0.04  -0.05   0.02    -0.11   0.04   0.10    -0.29   0.08   0.29
   3   8    -0.17  -0.15  -0.05    -0.03   0.02   0.03    -0.00   0.04   0.08
   4  15    -0.08  -0.10   0.02    -0.01  -0.01   0.05     0.07  -0.09   0.10
   5  16     0.25  -0.18   0.07     0.17   0.07  -0.05     0.13   0.19  -0.21
   6   8     0.10   0.06   0.13    -0.02   0.00   0.09     0.06  -0.05   0.10
   7   6     0.04   0.47   0.20     0.00   0.02   0.04     0.11  -0.10  -0.01
   8   6     0.10  -0.11  -0.11    -0.03  -0.03  -0.03     0.03   0.02  -0.03
   9  16    -0.15   0.11  -0.16     0.05  -0.11  -0.13     0.06  -0.09  -0.23
  10   6    -0.08  -0.15   0.03    -0.03  -0.14  -0.07    -0.01  -0.24  -0.05
  11  16    -0.11  -0.07  -0.01    -0.02   0.17  -0.12    -0.07   0.09   0.21
  12  15     0.05  -0.02   0.03     0.07   0.15  -0.09    -0.14   0.01   0.10
  13  16    -0.06   0.12  -0.13     0.22  -0.01   0.17    -0.02  -0.12  -0.12
  14   8     0.04  -0.01   0.04    -0.01  -0.03  -0.13    -0.09   0.09  -0.00
  15   6     0.06  -0.00   0.04    -0.37  -0.14  -0.04     0.05   0.12  -0.05
  16   6     0.02  -0.03   0.04     0.05   0.13  -0.03    -0.06   0.03  -0.06
  17   8     0.04  -0.01   0.02     0.02  -0.08   0.02    -0.03   0.03   0.07
  18   6     0.02   0.03  -0.03    -0.10  -0.09   0.33     0.06   0.05  -0.18
  19   6    -0.02   0.01  -0.02    -0.08  -0.03  -0.06     0.05   0.01   0.08
  20   1    -0.01   0.04  -0.04     0.02  -0.06  -0.06     0.03  -0.15  -0.08
  21   1     0.03   0.05   0.00    -0.00   0.00   0.00    -0.04   0.00   0.05
  22   1    -0.00   0.04  -0.03     0.08   0.03  -0.03     0.15   0.07  -0.03
  23   1    -0.01  -0.02   0.02    -0.09  -0.02   0.04    -0.21  -0.07   0.11
  24   1     0.00  -0.02   0.03    -0.03   0.06   0.07    -0.10   0.16   0.17
  25   1    -0.01   0.30  -0.05     0.01   0.02   0.00     0.05  -0.06   0.02
  26   1     0.01   0.18   0.25     0.00   0.01   0.02     0.04  -0.04  -0.04
  27   1     0.02   0.03  -0.01    -0.00  -0.00  -0.02     0.02  -0.00  -0.03
  28   1     0.03  -0.19   0.06    -0.02  -0.02  -0.00    -0.00   0.03  -0.02
  29   1     0.05  -0.06  -0.21    -0.01  -0.01  -0.02    -0.00   0.01   0.03
  30   1    -0.01  -0.06   0.05     0.02  -0.06   0.02     0.03  -0.09   0.04
  31   1    -0.03  -0.09  -0.02    -0.04  -0.07  -0.04    -0.02  -0.12  -0.05
  32   1     0.02   0.01   0.02    -0.15  -0.18  -0.10     0.03   0.08   0.00
  33   1     0.03  -0.00   0.00    -0.23   0.01   0.09     0.05   0.02  -0.04
  34   1     0.00  -0.01   0.00     0.06   0.12   0.08    -0.03  -0.02  -0.04
  35   1    -0.00  -0.01   0.02     0.11   0.02  -0.11    -0.04   0.02   0.01
  36   1     0.01  -0.01   0.01    -0.03   0.02   0.01    -0.00   0.01  -0.02
  37   1    -0.00   0.02  -0.02     0.06  -0.06   0.19    -0.05   0.04  -0.12
  38   1     0.02   0.02  -0.01    -0.15  -0.01   0.15     0.11   0.00  -0.09
  39   1     0.00  -0.00   0.00    -0.10   0.03  -0.11     0.08  -0.01   0.10
  40   1    -0.02  -0.00  -0.00     0.09  -0.03  -0.07    -0.08   0.01   0.06
  41   1    -0.01   0.01  -0.02    -0.06  -0.01   0.05     0.04   0.01  -0.04
                     19                     20                     21
                        a                      a                      a 
 Frequencies --   157.2048               167.6210               195.6815
 Red. masses --    18.4994                17.5554                19.7907
 Frc consts  --     0.0000                 0.0000                 0.0000
 IR Inten    --     6.7242                11.1407                24.5653
 Raman Activ --     0.0000                 0.0000                 0.0000
 Depolar     --     0.0000                 0.0000                 0.0000
 Atom AN      X      Y      Z        X      Y      Z        X      Y      Z
   1   6     0.05   0.07  -0.06    -0.02  -0.01   0.05    -0.01   0.02  -0.02
   2   6    -0.23   0.01   0.23     0.10  -0.08  -0.05     0.04  -0.03  -0.05
   3   8    -0.10  -0.13  -0.03     0.02  -0.08  -0.02    -0.06  -0.03  -0.00
   4  15     0.06  -0.22   0.03     0.13  -0.04   0.02    -0.00   0.03   0.04
   5  16    -0.31  -0.02  -0.18    -0.18   0.06  -0.07     0.01   0.04   0.04
   6   8     0.11  -0.11   0.03     0.24   0.00  -0.18     0.05   0.04  -0.02
   7   6     0.11  -0.03   0.02     0.21  -0.13  -0.11     0.05  -0.03  -0.02
   8   6     0.09  -0.02  -0.00     0.30   0.00   0.08     0.08   0.01   0.03
   9  16    -0.12   0.38   0.04    -0.09   0.29   0.11    -0.03   0.01  -0.02
  10   6     0.05   0.34   0.03    -0.24  -0.24   0.19    -0.02  -0.28   0.12
  11  16     0.11  -0.05  -0.13    -0.36  -0.07  -0.05     0.03   0.43   0.10
  12  15     0.11  -0.06  -0.11     0.04   0.06   0.07     0.06  -0.07  -0.33
  13  16     0.01   0.03   0.14     0.06   0.07  -0.16    -0.11   0.03   0.31
  14   8     0.10  -0.04   0.04     0.01   0.02  -0.02     0.07  -0.08   0.05
  15   6     0.09  -0.04   0.04    -0.12  -0.03  -0.01     0.16  -0.04   0.06
  16   6     0.04  -0.07   0.04    -0.01   0.03  -0.01     0.06  -0.12   0.06
  17   8    -0.03   0.00  -0.11     0.10  -0.03   0.09    -0.28   0.10  -0.34
  18   6    -0.05  -0.05   0.06     0.04   0.04   0.06    -0.16  -0.11  -0.10
  19   6    -0.03  -0.03  -0.02    -0.05   0.01   0.02     0.04  -0.04  -0.01
  20   1     0.02  -0.09  -0.10    -0.00   0.03   0.04    -0.01   0.04   0.00
  21   1    -0.02   0.06   0.05     0.01  -0.00   0.01     0.02   0.00  -0.02
  22   1     0.11   0.11  -0.07    -0.04  -0.02   0.01    -0.03  -0.01   0.00
  23   1    -0.15  -0.08   0.11     0.07  -0.00  -0.02     0.03   0.01  -0.02
  24   1    -0.07   0.11   0.15     0.03  -0.06  -0.04     0.02  -0.04  -0.02
  25   1     0.03  -0.00   0.00     0.05  -0.09  -0.00     0.02  -0.03   0.01
  26   1     0.04  -0.01   0.01     0.05  -0.05  -0.09     0.01  -0.02  -0.03
  27   1     0.03   0.01   0.00     0.07  -0.02   0.05     0.02  -0.01   0.01
  28   1     0.04  -0.02   0.01     0.12   0.04   0.00     0.03   0.02  -0.00
  29   1     0.01  -0.01  -0.01     0.09   0.01   0.06     0.03   0.01   0.02
  30   1    -0.02   0.13  -0.05    -0.06  -0.10   0.16     0.06  -0.13   0.14
  31   1     0.06   0.14   0.04    -0.12  -0.15  -0.00    -0.08  -0.17  -0.02
  32   1     0.03  -0.00   0.02    -0.05  -0.05  -0.03     0.06   0.02   0.04
  33   1     0.03  -0.01   0.00    -0.07   0.01   0.02     0.08  -0.03  -0.01
  34   1     0.01  -0.03   0.00     0.01   0.04   0.02     0.01  -0.06  -0.00
  35   1     0.01  -0.02   0.02     0.03  -0.00  -0.03    -0.00  -0.03   0.04
  36   1     0.01  -0.02   0.01    -0.02   0.00  -0.00     0.03  -0.03   0.01
  37   1     0.02  -0.02   0.05     0.01   0.02   0.02    -0.03  -0.04  -0.01
  38   1    -0.06  -0.02   0.03     0.01   0.02   0.02    -0.08  -0.07  -0.03
  39   1    -0.04  -0.00  -0.04    -0.01  -0.00   0.01    -0.01   0.00  -0.03
  40   1     0.04  -0.00  -0.02    -0.02  -0.01   0.00     0.06   0.04  -0.00
  41   1    -0.02  -0.02   0.03    -0.02   0.02  -0.00     0.03  -0.06   0.05
                     22                     23                     24
                        a                      a                      a 
 Frequencies --   208.3286               215.4288               220.7203
 Red. masses --    16.9460                14.2818                13.1877
 Frc consts  --     0.0000                 0.0000                 0.0000
 IR Inten    --     8.8828                 8.4060                 7.8368
 Raman Activ --     0.0000                 0.0000                 0.0000
 Depolar     --     0.0000                 0.0000                 0.0000
 Atom AN      X      Y      Z        X      Y      Z        X      Y      Z
   1   6     0.12  -0.22   0.25     0.03  -0.06   0.07    -0.04   0.04  -0.03
   2   6     0.09   0.13   0.16     0.01   0.05   0.05     0.00  -0.01  -0.05
   3   8     0.36   0.25   0.15     0.18   0.05  -0.03     0.15  -0.04  -0.16
   4  15    -0.07  -0.06  -0.12     0.06  -0.02  -0.15     0.18   0.06  -0.17
   5  16     0.13  -0.00  -0.24    -0.06  -0.10  -0.09    -0.11  -0.13   0.04
   6   8    -0.02  -0.07  -0.23    -0.07  -0.08  -0.07    -0.07  -0.03   0.07
   7   6    -0.10   0.15  -0.05    -0.12   0.10   0.03    -0.09   0.04   0.07
   8   6    -0.00   0.03  -0.03    -0.13   0.01  -0.04    -0.17  -0.01  -0.05
   9  16    -0.21  -0.12   0.11     0.01   0.11   0.20     0.18   0.11   0.21
  10   6    -0.15   0.09  -0.00     0.07  -0.18   0.28     0.01  -0.13   0.17
  11  16    -0.25   0.10  -0.05     0.18  -0.17   0.12     0.08  -0.01  -0.09
  12  15     0.07  -0.02  -0.07    -0.00  -0.08   0.03    -0.01   0.09  -0.04
  13  16    -0.01   0.07   0.05    -0.02  -0.07  -0.11     0.00   0.09   0.11
  14   8     0.09  -0.00   0.11    -0.09  -0.16  -0.23     0.08   0.24   0.12
  15   6     0.05  -0.03   0.10     0.04  -0.06  -0.13    -0.11   0.12  -0.01
  16   6     0.06  -0.11   0.10    -0.06   0.14  -0.12    -0.02   0.04  -0.02
  17   8     0.04  -0.06  -0.04    -0.08   0.23  -0.10    -0.09  -0.15   0.06
  18   6     0.02  -0.04  -0.04    -0.09   0.15   0.13     0.00  -0.17  -0.14
  19   6    -0.04  -0.07  -0.05     0.09   0.24   0.11    -0.04  -0.20  -0.09
  20   1     0.07  -0.13   0.10     0.05  -0.11   0.03     0.06  -0.19  -0.00
  21   1    -0.06  -0.10   0.05    -0.08  -0.01   0.07    -0.17   0.07   0.15
  22   1     0.09  -0.05   0.08     0.06   0.04  -0.02     0.06   0.17  -0.15
  23   1    -0.01   0.02   0.04    -0.02  -0.01   0.03    -0.01  -0.03   0.01
  24   1    -0.00   0.09   0.03    -0.01   0.06   0.02    -0.02   0.04  -0.01
  25   1    -0.07   0.10  -0.05    -0.06   0.07  -0.02    -0.03   0.04   0.00
  26   1    -0.02   0.06   0.06    -0.02   0.04   0.06    -0.02   0.02   0.05
  27   1    -0.02   0.04   0.04    -0.04   0.05  -0.00    -0.04   0.02  -0.04
  28   1     0.04  -0.04   0.02    -0.02  -0.04   0.02    -0.07  -0.03  -0.00
  29   1    -0.00  -0.01  -0.07    -0.06  -0.01  -0.06    -0.07  -0.01  -0.03
  30   1    -0.04   0.03  -0.03     0.03  -0.07   0.15     0.01  -0.06   0.12
  31   1    -0.04   0.05   0.02    -0.02  -0.11   0.04    -0.05  -0.09   0.01
  32   1     0.01  -0.01   0.03     0.02   0.00  -0.02    -0.05  -0.01  -0.03
  33   1     0.01  -0.00   0.02     0.04  -0.04  -0.03    -0.08   0.07   0.00
  34   1     0.02  -0.03   0.04    -0.03   0.03  -0.06     0.01   0.08   0.02
  35   1     0.02  -0.04   0.04    -0.05   0.08  -0.05     0.07  -0.04  -0.01
  36   1     0.01  -0.04   0.01     0.01   0.06   0.02    -0.08  -0.02  -0.03
  37   1     0.00  -0.01  -0.01     0.01   0.03   0.08    -0.04  -0.04  -0.09
  38   1     0.01  -0.01  -0.01    -0.09   0.02   0.05     0.06  -0.04  -0.06
  39   1    -0.01  -0.03  -0.02    -0.05   0.09  -0.06     0.10  -0.04   0.11
  40   1    -0.02  -0.03  -0.01     0.15   0.14   0.01    -0.18  -0.13   0.01
  41   1    -0.02  -0.01  -0.01     0.03   0.01   0.14     0.03  -0.01  -0.19
                     25                     26                     27
                        a                      a                      a 
 Frequencies --   217.9230               225.0603               249.0828
 Red. masses --     9.9896                 5.7186                12.4345
 Frc consts  --     0.0000                 0.0000                 0.0000
 IR Inten    --     3.3987                 1.0798                 4.1608
 Raman Activ --     0.0000                 0.0000                 0.0000
 Depolar     --     0.0000                 0.0000                 0.0000
 Atom AN      X      Y      Z        X      Y      Z        X      Y      Z
   1   6    -0.06   0.06  -0.05     0.01  -0.04   0.03     0.02  -0.04   0.06
   2   6     0.03  -0.05  -0.10     0.07  -0.06  -0.03     0.11  -0.07  -0.02
   3   8     0.09  -0.07  -0.13    -0.03  -0.03   0.05    -0.08  -0.04   0.10
   4  15     0.11   0.11  -0.10    -0.16   0.03   0.04    -0.24   0.02   0.09
   5  16    -0.00  -0.06   0.12     0.06   0.04   0.04     0.09   0.08   0.04
   6   8    -0.01   0.10   0.15     0.01   0.08  -0.04     0.01   0.09  -0.09
   7   6     0.03  -0.03   0.05     0.03   0.02  -0.06     0.03   0.02  -0.09
   8   6    -0.01  -0.01   0.01     0.12  -0.00   0.02     0.17  -0.00   0.04
   9  16     0.09  -0.08  -0.02    -0.16  -0.06  -0.06    -0.22  -0.08  -0.10
  10   6    -0.13   0.07  -0.15     0.02   0.04  -0.03     0.09   0.02   0.01
  11  16    -0.30   0.16   0.02     0.05   0.00  -0.03     0.15  -0.22   0.16
  12  15    -0.04  -0.01   0.01     0.07  -0.01  -0.02     0.09  -0.10   0.01
  13  16    -0.00  -0.08  -0.05     0.05   0.02   0.00    -0.08   0.08   0.02
  14   8    -0.07  -0.13  -0.00    -0.02  -0.16  -0.12     0.16   0.18   0.04
  15   6     0.09  -0.06   0.08     0.06  -0.10  -0.02    -0.05   0.07  -0.08
  16   6     0.07  -0.12   0.08    -0.00   0.00  -0.01    -0.07   0.13  -0.09
  17   8     0.14   0.03  -0.00    -0.08   0.04  -0.01    -0.09   0.02  -0.06
  18   6     0.07   0.09   0.03    -0.13   0.02   0.20    -0.01  -0.03  -0.12
  19   6    -0.01   0.06   0.04     0.05   0.13   0.03     0.00  -0.04  -0.00
  20   1     0.10  -0.29  -0.00     0.07  -0.18   0.03     0.09  -0.21   0.04
  21   1    -0.26   0.12   0.23    -0.15   0.04   0.14    -0.17   0.04   0.17
  22   1     0.07   0.26  -0.25     0.05   0.12  -0.12     0.06   0.14  -0.13
  23   1     0.02  -0.02  -0.01     0.04   0.00  -0.02     0.06   0.01  -0.02
  24   1    -0.00  -0.00  -0.04     0.03  -0.04  -0.02     0.04  -0.07  -0.02
  25   1     0.04  -0.03   0.03     0.01  -0.01  -0.01     0.01  -0.01  -0.02
  26   1    -0.00  -0.02  -0.02    -0.01  -0.00  -0.03    -0.01  -0.00  -0.05
  27   1     0.02  -0.09  -0.05     0.03  -0.09   0.00     0.04  -0.09   0.02
  28   1    -0.08   0.06  -0.03     0.00   0.05  -0.02     0.03   0.05  -0.02
  29   1     0.05   0.02   0.08     0.10   0.02   0.06     0.12   0.02   0.06
  30   1    -0.04   0.03  -0.07     0.00   0.02  -0.03     0.02   0.02  -0.04
  31   1    -0.02   0.05  -0.02     0.02   0.03   0.00     0.07   0.03   0.02
  32   1     0.03   0.03   0.04     0.02  -0.01   0.01    -0.02  -0.04  -0.04
  33   1     0.06  -0.04   0.01     0.04  -0.05  -0.01    -0.07   0.06  -0.01
  34   1     0.01  -0.12   0.02    -0.01  -0.07  -0.02    -0.00   0.28  -0.02
  35   1    -0.05   0.01   0.04    -0.07   0.06  -0.01     0.17  -0.10  -0.05
  36   1     0.10  -0.01   0.01     0.07   0.04   0.02    -0.25  -0.05  -0.00
  37   1     0.03   0.03   0.02    -0.00  -0.02   0.10    -0.02  -0.00  -0.06
  38   1     0.00   0.02   0.02    -0.09   0.01   0.08     0.02  -0.02  -0.05
  39   1    -0.12  -0.04  -0.13     0.26   0.20   0.31    -0.09  -0.07  -0.12
  40   1     0.16   0.10  -0.02    -0.32  -0.16   0.06     0.13   0.08  -0.02
  41   1    -0.07  -0.02   0.20     0.16   0.11  -0.41    -0.04  -0.06   0.16
                     28                     29                     30
                        a                      a                      a 
 Frequencies --   235.8976               263.9483               294.4960
 Red. masses --     6.2632                12.1719                12.1609
 Frc consts  --     0.0000                 0.0000                 0.0000
 IR Inten    --     5.2039                10.7751                 9.3840
 Raman Activ --     0.0000                 0.0000                 0.0000
 Depolar     --     0.0000                 0.0000                 0.0000
 Atom AN      X      Y      Z        X      Y      Z        X      Y      Z
   1   6    -0.01   0.01  -0.02     0.04  -0.04   0.06     0.03  -0.02   0.04
   2   6    -0.08   0.09   0.03     0.04  -0.02   0.05     0.02  -0.05   0.05
   3   8     0.12   0.08  -0.08    -0.06  -0.03   0.06    -0.07  -0.08   0.02
   4  15     0.04  -0.02  -0.19    -0.19  -0.02   0.02    -0.05  -0.00   0.05
   5  16     0.03  -0.18  -0.08     0.03   0.00  -0.03    -0.02   0.05   0.01
   6   8     0.03   0.09   0.19     0.00   0.04  -0.11     0.00  -0.04  -0.18
   7   6     0.05   0.08   0.13    -0.03   0.09  -0.04    -0.08   0.07  -0.02
   8   6     0.02  -0.03   0.01     0.09   0.00   0.02    -0.02  -0.00   0.00
   9  16    -0.09  -0.01   0.05    -0.14   0.06   0.03     0.07   0.07   0.03
  10   6    -0.04   0.02   0.04     0.11  -0.08   0.13     0.04  -0.05   0.03
  11  16    -0.09  -0.04   0.07     0.32  -0.01  -0.22     0.16   0.17  -0.24
  12  15     0.07  -0.07  -0.01    -0.15   0.21   0.00    -0.23   0.14  -0.00
  13  16    -0.03   0.03  -0.00     0.09  -0.04   0.02    -0.02  -0.18  -0.04
  14   8     0.07   0.02  -0.01    -0.16   0.04   0.06    -0.25  -0.13  -0.09
  15   6     0.01  -0.01  -0.02    -0.11   0.04   0.02     0.17   0.08   0.10
  16   6    -0.02   0.03  -0.02     0.02  -0.04   0.01     0.07  -0.14   0.09
  17   8    -0.04   0.02  -0.04     0.04  -0.06   0.09     0.16  -0.02   0.09
  18   6    -0.03   0.00   0.01     0.09  -0.05  -0.09     0.08   0.06   0.10
  19   6     0.02   0.03   0.01    -0.04  -0.13  -0.04    -0.03   0.02   0.00
  20   1    -0.06   0.13  -0.02     0.03  -0.06   0.02     0.01  -0.02   0.01
  21   1     0.11  -0.05  -0.12    -0.03  -0.01   0.04     0.00  -0.00   0.02
  22   1    -0.03  -0.10   0.10     0.03   0.01  -0.00     0.01  -0.00   0.01
  23   1    -0.05  -0.00   0.02     0.02   0.00   0.01     0.01  -0.01   0.02
  24   1    -0.04   0.07   0.02     0.02  -0.02   0.01     0.01  -0.02   0.02
  25   1     0.04   0.03   0.04    -0.02   0.04  -0.02    -0.05   0.05  -0.03
  26   1    -0.00   0.02   0.03    -0.02   0.03   0.01    -0.02   0.03   0.03
  27   1     0.08  -0.43  -0.22     0.04  -0.20  -0.05     0.00  -0.09  -0.03
  28   1    -0.34   0.24  -0.15    -0.10   0.11  -0.06    -0.06   0.04  -0.02
  29   1     0.27   0.11   0.33     0.17   0.06   0.14     0.06   0.02   0.05
  30   1    -0.01   0.01   0.00     0.05  -0.04   0.09     0.03  -0.03   0.06
  31   1    -0.00   0.01   0.02    -0.01  -0.06   0.01    -0.04  -0.05  -0.01
  32   1     0.00  -0.02  -0.01    -0.04   0.03  -0.01     0.07   0.12   0.06
  33   1    -0.01   0.01  -0.00    -0.02   0.01   0.01     0.14  -0.04  -0.00
  34   1     0.00   0.11  -0.01    -0.01  -0.34   0.02     0.05   0.27   0.03
  35   1     0.06  -0.04  -0.01    -0.23   0.18   0.01     0.28  -0.28   0.08
  36   1    -0.10  -0.03   0.01     0.32   0.11  -0.03    -0.31  -0.20  -0.03
  37   1    -0.00  -0.00   0.01    -0.00  -0.01  -0.05     0.04   0.02   0.04
  38   1    -0.02  -0.00   0.00     0.06  -0.01  -0.04     0.01   0.03   0.04
  39   1     0.02   0.03   0.03    -0.08  -0.10  -0.09    -0.00   0.00   0.01
  40   1    -0.02  -0.00   0.01     0.07   0.00  -0.02    -0.02  -0.03  -0.01
  41   1     0.02   0.00  -0.03    -0.07  -0.03   0.10    -0.03   0.04  -0.02
                     31                     32                     33
                        a                      a                      a 
 Frequencies --   326.2867               347.7175               374.6811
 Red. masses --    17.2979                16.0322                19.2728
 Frc consts  --     0.0000                 0.0000                 0.0000
 IR Inten    --    11.6043                 6.7955                21.8704
 Raman Activ --     0.0000                 0.0000                 0.0000
 Depolar     --     0.0000                 0.0000                 0.0000
 Atom AN      X      Y      Z        X      Y      Z        X      Y      Z
   1   6    -0.03   0.02  -0.05    -0.10   0.07  -0.19     0.00   0.00   0.00
   2   6    -0.01   0.13  -0.10     0.05   0.12  -0.31    -0.01  -0.01   0.01
   3   8     0.15   0.21  -0.02    -0.05   0.42   0.27     0.01  -0.02  -0.01
   4  15    -0.13  -0.02  -0.18     0.11  -0.32   0.29     0.01   0.01  -0.01
   5  16     0.08  -0.19  -0.08    -0.01   0.05  -0.16    -0.00   0.01   0.01
   6   8    -0.06   0.17   0.49     0.16  -0.27  -0.02    -0.00   0.01  -0.01
   7   6     0.22  -0.15   0.00     0.06  -0.02   0.18    -0.01   0.00  -0.00
   8   6     0.15   0.01   0.02    -0.15  -0.01  -0.02    -0.01  -0.00  -0.00
   9  16    -0.37  -0.04   0.04    -0.07   0.04  -0.03     0.01  -0.01  -0.00
  10   6     0.04  -0.02   0.13    -0.00  -0.00   0.02    -0.05   0.04  -0.04
  11  16     0.16  -0.01  -0.13     0.01  -0.00  -0.01    -0.07  -0.03  -0.07
  12  15    -0.10   0.10  -0.01    -0.01   0.02   0.01     0.10   0.22   0.26
  13  16     0.02  -0.05  -0.01     0.02  -0.00   0.00     0.37   0.28   0.04
  14   8    -0.12  -0.04  -0.03    -0.02  -0.01  -0.01    -0.16  -0.30  -0.18
  15   6     0.04   0.04   0.03     0.01  -0.00   0.00     0.15  -0.16  -0.03
  16   6     0.02  -0.04   0.02     0.00  -0.00   0.00    -0.00   0.02  -0.02
  17   8     0.04   0.00   0.03    -0.01   0.00   0.01    -0.42  -0.01   0.21
  18   6     0.04   0.00   0.02     0.00  -0.00  -0.01    -0.15  -0.14  -0.20
  19   6    -0.02  -0.03  -0.01     0.00  -0.01  -0.00     0.02  -0.11  -0.04
  20   1    -0.00   0.01  -0.00     0.01  -0.05  -0.02    -0.00   0.00  -0.01
  21   1    -0.02  -0.01  -0.03    -0.11   0.05   0.02     0.01   0.00  -0.00
  22   1    -0.01  -0.00  -0.00    -0.04   0.08  -0.13     0.00  -0.00   0.00
  23   1    -0.01   0.04  -0.03     0.08   0.14  -0.17    -0.00  -0.01   0.01
  24   1    -0.01   0.04  -0.04     0.04  -0.09  -0.15    -0.00   0.01   0.01
  25   1     0.15  -0.13   0.06    -0.02   0.04   0.02    -0.00   0.00  -0.00
  26   1     0.04  -0.08  -0.11     0.05   0.01   0.10    -0.00   0.00   0.00
  27   1     0.01   0.17   0.09     0.01  -0.03  -0.11    -0.00  -0.00  -0.00
  28   1     0.18  -0.07   0.05    -0.14   0.02  -0.02    -0.00  -0.00  -0.00
  29   1    -0.07  -0.04  -0.09    -0.05   0.00   0.04    -0.00  -0.00  -0.00
  30   1     0.03  -0.02   0.06     0.00  -0.00   0.01    -0.03   0.02  -0.03
  31   1    -0.01  -0.02   0.03    -0.00  -0.01   0.00     0.00   0.03  -0.00
  32   1     0.02   0.05   0.02     0.00   0.01   0.00     0.06   0.03   0.02
  33   1     0.04  -0.01  -0.00     0.01  -0.00   0.00     0.11  -0.10  -0.01
  34   1     0.01   0.04   0.01     0.00   0.01   0.00    -0.01   0.08  -0.04
  35   1     0.06  -0.07   0.02     0.01  -0.01   0.00     0.03  -0.01  -0.02
  36   1    -0.06  -0.05  -0.02    -0.01  -0.00  -0.00    -0.07  -0.01   0.05
  37   1     0.01   0.00   0.00    -0.00  -0.00  -0.00    -0.12  -0.06  -0.15
  38   1     0.01   0.00   0.01     0.00  -0.00  -0.00     0.06  -0.03  -0.10
  39   1    -0.01  -0.02  -0.01     0.00  -0.00  -0.00    -0.02  -0.04  -0.05
  40   1    -0.00  -0.02  -0.01    -0.00  -0.00  -0.00     0.06   0.04  -0.01
  41   1    -0.02   0.01   0.00     0.00  -0.00  -0.00     0.01  -0.08   0.06
                     34                     35                     36
                        a                      a                      a 
 Frequencies --   396.1492               415.1780               414.0978
 Red. masses --    12.7860                21.1042                12.5726
 Frc consts  --     0.0000                 0.0000                 0.0000
 IR Inten    --    10.7567                28.4839                11.1379
 Raman Activ --     0.0000                 0.0000                 0.0000
 Depolar     --     0.0000                 0.0000                 0.0000
 Atom AN      X      Y      Z        X      Y      Z        X      Y      Z
   1   6    -0.01   0.01  -0.01    -0.00  -0.00   0.00     0.17  -0.20   0.26
   2   6    -0.01  -0.02   0.01     0.00   0.00  -0.00     0.17   0.32   0.02
   3   8     0.03  -0.02  -0.01     0.00   0.01   0.00    -0.58   0.04  -0.17
   4  15     0.05   0.02   0.00     0.00  -0.00   0.00    -0.00   0.01  -0.09
   5  16    -0.00   0.03   0.03     0.00  -0.01  -0.01    -0.01  -0.15  -0.11
   6   8     0.02  -0.00  -0.03    -0.00   0.00   0.01     0.13   0.12   0.06
   7   6    -0.00  -0.00   0.01     0.00   0.00  -0.00     0.08  -0.08   0.14
   8   6    -0.02  -0.00  -0.00     0.01   0.00  -0.00    -0.10  -0.03  -0.01
   9  16    -0.03  -0.03  -0.02    -0.04   0.01   0.03     0.14   0.08  -0.02
  10   6     0.00  -0.00   0.00    -0.00   0.02  -0.03    -0.01   0.01  -0.03
  11  16    -0.05  -0.10   0.19     0.06   0.37  -0.38    -0.03   0.00   0.02
  12  15    -0.05   0.09   0.08     0.08  -0.25   0.31     0.00   0.00   0.01
  13  16     0.08   0.02  -0.03    -0.17  -0.14  -0.03     0.01   0.01  -0.00
  14   8    -0.11  -0.08   0.06     0.09  -0.09   0.38    -0.00  -0.01   0.00
  15   6     0.04  -0.03  -0.04     0.11  -0.22  -0.18     0.00  -0.01  -0.00
  16   6    -0.01   0.05  -0.04    -0.08   0.23  -0.18    -0.00   0.01  -0.00
  17   8    -0.02   0.54  -0.29    -0.02   0.05   0.11    -0.01   0.03  -0.01
  18   6     0.32  -0.11   0.12     0.07   0.00   0.02     0.01  -0.00   0.00
  19   6    -0.16  -0.35  -0.12    -0.01  -0.04  -0.01    -0.01  -0.01  -0.01
  20   1    -0.01   0.01  -0.01     0.00  -0.00   0.00     0.13  -0.16   0.17
  21   1     0.01   0.01   0.00    -0.00  -0.00   0.00    -0.13  -0.16  -0.01
  22   1    -0.01   0.00  -0.00    -0.00   0.00  -0.00     0.13  -0.08   0.14
  23   1    -0.01  -0.01   0.01     0.00   0.00  -0.00     0.10   0.13  -0.02
  24   1    -0.01   0.00   0.00     0.00  -0.00  -0.00     0.09  -0.01   0.00
  25   1    -0.01   0.00   0.00     0.00   0.00  -0.00     0.04  -0.05   0.05
  26   1     0.00   0.00   0.01     0.00   0.00  -0.00     0.00  -0.04   0.00
  27   1    -0.00   0.00  -0.01     0.00   0.00   0.00     0.00   0.04  -0.06
  28   1    -0.01  -0.00  -0.00     0.00   0.00   0.00    -0.07  -0.02   0.00
  29   1    -0.01  -0.00  -0.00     0.00   0.00  -0.00    -0.09  -0.02  -0.00
  30   1    -0.01   0.01  -0.02     0.03  -0.02   0.04    -0.01   0.00  -0.00
  31   1     0.03   0.01   0.01    -0.07  -0.02  -0.02     0.00  -0.00  -0.01
  32   1     0.02   0.03  -0.01     0.03  -0.04  -0.05     0.00  -0.00  -0.00
  33   1     0.04  -0.03  -0.02     0.02  -0.05  -0.06     0.00  -0.00  -0.00
  34   1    -0.01   0.03  -0.03    -0.05   0.14  -0.13    -0.00   0.00  -0.00
  35   1    -0.00   0.02  -0.02    -0.05   0.13  -0.13    -0.00   0.00  -0.00
  36   1    -0.01   0.02   0.02    -0.05   0.11   0.13    -0.00   0.00   0.00
  37   1     0.14  -0.04   0.09     0.00  -0.00  -0.01     0.00  -0.00   0.00
  38   1    -0.01  -0.08   0.05     0.04   0.01   0.00     0.00  -0.00   0.00
  39   1    -0.04  -0.20  -0.04    -0.01  -0.03  -0.02    -0.00  -0.01  -0.00
  40   1    -0.12  -0.25  -0.06    -0.00  -0.02  -0.01    -0.01  -0.01  -0.00
  41   1    -0.17   0.07  -0.10    -0.03   0.01   0.01    -0.01   0.00  -0.01
                     37                     38                     39
                        a                      a                      a 
 Frequencies --   432.4826               488.0992               493.9154
 Red. masses --    22.5309                19.1138                20.0019
 Frc consts  --     0.0000                 0.0000                 0.0000
 IR Inten    --    28.7268               167.1373               156.2354
 Raman Activ --     0.0000                 0.0000                 0.0000
 Depolar     --     0.0000                 0.0000                 0.0000
 Atom AN      X      Y      Z        X      Y      Z        X      Y      Z
   1   6     0.02  -0.00   0.04     0.02  -0.04   0.04     0.00  -0.01   0.01
   2   6     0.00  -0.03   0.05     0.03   0.19  -0.06     0.01   0.06  -0.02
   3   8     0.06  -0.12  -0.14    -0.17  -0.00  -0.18    -0.05  -0.01  -0.06
   4  15     0.32   0.13  -0.05     0.45  -0.01   0.00     0.13  -0.00  -0.01
   5  16    -0.00   0.20   0.21    -0.04   0.18   0.16    -0.01   0.06   0.05
   6   8     0.32   0.12  -0.22    -0.31  -0.39   0.18    -0.08  -0.12   0.05
   7   6     0.08  -0.11   0.23    -0.08   0.11  -0.18    -0.02   0.03  -0.05
   8   6    -0.24  -0.05  -0.03     0.19   0.05   0.01     0.05   0.01   0.00
   9  16    -0.54  -0.18  -0.06    -0.25  -0.09  -0.01    -0.06  -0.03  -0.01
  10   6     0.04  -0.02   0.02     0.04  -0.03  -0.04    -0.03  -0.03   0.00
  11  16     0.09  -0.01  -0.06     0.03   0.04  -0.06    -0.02  -0.18   0.18
  12  15    -0.01   0.01  -0.01     0.05  -0.07   0.11    -0.18   0.28  -0.41
  13  16    -0.01  -0.01   0.00    -0.04  -0.02  -0.01     0.14   0.07   0.04
  14   8    -0.01   0.01  -0.01     0.03   0.04  -0.15    -0.14  -0.14   0.49
  15   6    -0.01   0.02   0.01    -0.04   0.06   0.04     0.13  -0.18  -0.11
  16   6     0.00  -0.01   0.00     0.01  -0.04   0.04    -0.04   0.13  -0.12
  17   8     0.01  -0.05   0.03    -0.05   0.05   0.01     0.18  -0.21  -0.02
  18   6    -0.02   0.01  -0.01     0.01  -0.00  -0.00    -0.04   0.02  -0.00
  19   6     0.02   0.03   0.01    -0.00  -0.02  -0.01     0.01   0.06   0.02
  20   1     0.00   0.01   0.01     0.04  -0.04   0.05     0.01  -0.01   0.02
  21   1     0.02  -0.01  -0.00    -0.06  -0.06  -0.04    -0.01  -0.02  -0.01
  22   1     0.00  -0.01   0.02     0.03  -0.03   0.05     0.01  -0.01   0.02
  23   1    -0.02  -0.04   0.04     0.02   0.05  -0.01     0.00   0.01  -0.00
  24   1    -0.01   0.03   0.03     0.02   0.03  -0.02     0.00   0.01  -0.00
  25   1     0.00  -0.04   0.07    -0.04   0.09  -0.09    -0.01   0.03  -0.03
  26   1     0.00  -0.04   0.05     0.03   0.06   0.03     0.01   0.02   0.01
  27   1    -0.00   0.07  -0.14    -0.00  -0.08   0.11    -0.00  -0.02   0.03
  28   1    -0.16  -0.04   0.00     0.12   0.05  -0.01     0.03   0.01  -0.00
  29   1    -0.17  -0.04  -0.02     0.16   0.04   0.02     0.04   0.01   0.01
  30   1     0.02  -0.00  -0.02     0.02  -0.01  -0.02    -0.03   0.01  -0.03
  31   1     0.01   0.01   0.02     0.00   0.00  -0.00     0.03   0.02   0.01
  32   1    -0.00   0.00   0.00    -0.01  -0.01   0.01     0.05   0.05  -0.03
  33   1    -0.00   0.01   0.00    -0.02   0.02   0.02     0.08  -0.07  -0.07
  34   1     0.00  -0.01   0.01     0.01  -0.04   0.03    -0.03   0.13  -0.11
  35   1     0.00  -0.01   0.01     0.01  -0.03   0.03    -0.02   0.08  -0.10
  36   1     0.00  -0.00  -0.01     0.02  -0.02  -0.04    -0.06   0.06   0.12
  37   1    -0.01   0.00  -0.01    -0.00  -0.00  -0.01     0.01   0.02   0.02
  38   1     0.00   0.01  -0.00     0.01  -0.00  -0.00    -0.02   0.02   0.01
  39   1     0.00   0.01   0.00    -0.00  -0.01  -0.00     0.01   0.04   0.02
  40   1     0.01   0.02   0.01    -0.00  -0.01  -0.00     0.01   0.04   0.01
  41   1     0.01  -0.01   0.01    -0.01   0.00  -0.00     0.03  -0.01   0.01
                     40                     41                     42
                        a                      a                      a 
 Frequencies --   613.9754               630.9984               677.6324
 Red. masses --    25.8567                23.2818                18.0275
 Frc consts  --     0.0000                 0.0000                 0.0000
 IR Inten    --   143.8184               108.6269                16.4902
 Raman Activ --     0.0000                 0.0000                 0.0000
 Depolar     --     0.0000                 0.0000                 0.0000
 Atom AN      X      Y      Z        X      Y      Z        X      Y      Z
   1   6    -0.01  -0.00   0.00    -0.00   0.00  -0.00     0.00  -0.00   0.00
   2   6     0.02   0.15  -0.07    -0.00   0.00  -0.00     0.00  -0.03   0.01
   3   8     0.13  -0.04  -0.26     0.00  -0.00  -0.00    -0.05   0.00   0.02
   4  15    -0.42  -0.33  -0.26     0.00   0.01   0.00     0.15   0.06   0.10
   5  16     0.05   0.42   0.37     0.00  -0.00   0.00    -0.02  -0.07  -0.06
   6   8     0.09  -0.27   0.02    -0.00  -0.00  -0.00    -0.02   0.08   0.01
   7   6     0.14  -0.06   0.10    -0.00   0.00  -0.00    -0.07   0.02  -0.05
   8   6     0.02   0.00  -0.00    -0.00  -0.00   0.00    -0.01  -0.00  -0.00
   9  16     0.16  -0.00  -0.07     0.01  -0.01  -0.01     0.13  -0.24  -0.45
  10   6    -0.05   0.09   0.17    -0.09   0.00   0.01    -0.14   0.29   0.70
  11  16    -0.03   0.01  -0.02     0.03  -0.07   0.05    -0.07   0.02  -0.07
  12  15     0.00  -0.02   0.01     0.04   0.53  -0.12     0.04  -0.00   0.00
  13  16    -0.00  -0.00  -0.00    -0.35  -0.34  -0.03    -0.01  -0.02   0.00
  14   8     0.00   0.00  -0.00     0.43   0.00  -0.17    -0.04  -0.00   0.02
  15   6     0.00  -0.00   0.00     0.15  -0.22  -0.00    -0.01   0.01   0.00
  16   6     0.00   0.00   0.00     0.01  -0.03   0.04    -0.00   0.00  -0.00
  17   8    -0.00   0.01   0.00    -0.16   0.09   0.25     0.01  -0.01  -0.01
  18   6     0.00   0.00   0.00     0.07   0.02   0.04    -0.00  -0.00  -0.00
  19   6    -0.00  -0.00  -0.00     0.00  -0.02  -0.01     0.00   0.00  -0.00
  20   1     0.02  -0.01   0.04    -0.00  -0.00  -0.00    -0.00   0.00  -0.00
  21   1    -0.05  -0.04  -0.04     0.00  -0.00  -0.00     0.01   0.00   0.01
  22   1     0.01  -0.02   0.03    -0.00  -0.00   0.00    -0.00   0.00  -0.01
  23   1    -0.01  -0.01   0.02     0.00  -0.00   0.00     0.00   0.00  -0.00
  24   1    -0.01   0.09  -0.01    -0.00  -0.00  -0.00     0.00  -0.02   0.00
  25   1     0.01   0.01   0.01    -0.00   0.00  -0.00    -0.01  -0.00  -0.01
  26   1     0.07  -0.00   0.06    -0.00   0.00   0.00    -0.02   0.00  -0.02
  27   1     0.03   0.03  -0.05    -0.00  -0.00   0.00    -0.02  -0.02   0.03
  28   1    -0.03   0.01  -0.00    -0.00  -0.00   0.00     0.02   0.00  -0.00
  29   1    -0.03  -0.01   0.01    -0.00  -0.00   0.00     0.02   0.00  -0.00
  30   1     0.00   0.01   0.05    -0.03   0.01  -0.02    -0.02   0.08   0.12
  31   1    -0.01  -0.00   0.03     0.01   0.01   0.01    -0.00   0.06   0.17
  32   1    -0.00  -0.00  -0.00     0.04  -0.15   0.00    -0.00   0.02   0.00
  33   1    -0.00   0.00   0.00    -0.02  -0.02   0.02     0.00  -0.00  -0.00
  34   1    -0.00  -0.00   0.00    -0.02   0.01  -0.04     0.00   0.00   0.00
  35   1    -0.00   0.00   0.00    -0.02   0.02  -0.01     0.00  -0.00  -0.00
  36   1     0.00   0.00   0.00    -0.00   0.01   0.09     0.00  -0.00  -0.01
  37   1    -0.00  -0.00  -0.00    -0.03  -0.02  -0.04     0.00  -0.00   0.00
  38   1     0.00   0.00   0.00     0.08   0.01  -0.01    -0.00   0.00  -0.00
  39   1    -0.00  -0.00  -0.00    -0.01  -0.03  -0.02     0.00   0.00   0.00
  40   1    -0.00  -0.00  -0.00     0.00  -0.04  -0.02    -0.00   0.00   0.00
  41   1    -0.00   0.00  -0.00    -0.04   0.03   0.00     0.00  -0.00  -0.00
                     43                     44                     45
                        a                      a                      a 
 Frequencies --   715.2804               735.2771               738.9477
 Red. masses --    16.6778                19.6796                19.1534
 Frc consts  --     0.0000                 0.0000                 0.0000
 IR Inten    --    18.8822               264.1375               177.0617
 Raman Activ --     0.0000                 0.0000                 0.0000
 Depolar     --     0.0000                 0.0000                 0.0000
 Atom AN      X      Y      Z        X      Y      Z        X      Y      Z
   1   6    -0.00   0.00  -0.01     0.00  -0.00   0.00    -0.04   0.03  -0.05
   2   6     0.01   0.03  -0.02     0.01   0.01  -0.01     0.07   0.21  -0.13
   3   8     0.04  -0.02  -0.06     0.01  -0.00  -0.02     0.21  -0.11  -0.36
   4  15     0.01   0.02   0.07     0.00   0.00   0.03     0.02  -0.39   0.47
   5  16     0.00  -0.02  -0.02    -0.00  -0.01  -0.01     0.00  -0.00  -0.01
   6   8     0.00  -0.00  -0.00    -0.00   0.00  -0.00     0.02   0.39  -0.01
   7   6    -0.00   0.00  -0.00    -0.00   0.00  -0.00    -0.19   0.09  -0.14
   8   6     0.00  -0.00  -0.00    -0.00  -0.00   0.00    -0.08  -0.02   0.02
   9  16     0.01  -0.01  -0.01    -0.00  -0.01  -0.02    -0.02   0.02   0.02
  10   6    -0.79   0.09  -0.14    -0.01   0.03   0.02     0.08  -0.02  -0.03
  11  16     0.49  -0.02   0.11     0.02   0.01  -0.01    -0.03   0.00  -0.00
  12  15    -0.00  -0.08   0.01    -0.44   0.16   0.42    -0.01  -0.01  -0.02
  13  16     0.02   0.03  -0.00     0.08   0.06  -0.01     0.01   0.01   0.00
  14   8    -0.02  -0.01   0.01     0.31   0.06  -0.10     0.01   0.00  -0.00
  15   6    -0.02   0.05   0.00     0.12  -0.15  -0.02     0.00  -0.01  -0.00
  16   6    -0.00   0.01  -0.01     0.01  -0.03   0.06     0.00  -0.00   0.00
  17   8     0.00   0.02  -0.00     0.25  -0.10  -0.40    -0.01   0.01   0.02
  18   6     0.00   0.00   0.00    -0.19  -0.07  -0.16     0.01   0.01   0.01
  19   6     0.00   0.00   0.00    -0.02  -0.05  -0.01     0.00   0.00   0.00
  20   1     0.01  -0.00   0.01     0.00  -0.00   0.00     0.05  -0.01   0.09
  21   1    -0.02  -0.01  -0.01    -0.01  -0.00  -0.00    -0.11  -0.07  -0.09
  22   1    -0.00  -0.01   0.01    -0.00  -0.00  -0.00    -0.01  -0.04   0.04
  23   1    -0.01  -0.01   0.01    -0.00  -0.00   0.00    -0.05  -0.04   0.04
  24   1    -0.00   0.03   0.00     0.00   0.01   0.00    -0.01   0.18   0.01
  25   1    -0.00   0.00  -0.00    -0.00   0.00  -0.00     0.00  -0.05   0.02
  26   1    -0.00   0.00   0.00    -0.00   0.00  -0.00    -0.10  -0.01  -0.14
  27   1    -0.00  -0.00   0.00    -0.00  -0.00   0.00    -0.06  -0.06   0.08
  28   1    -0.00   0.00  -0.00     0.00   0.00  -0.00     0.02  -0.02   0.02
  29   1     0.00   0.00  -0.00     0.00  -0.00   0.00     0.05   0.00  -0.03
  30   1    -0.13  -0.02   0.01     0.01  -0.00   0.03     0.01  -0.00  -0.01
  31   1    -0.21  -0.03  -0.07    -0.03  -0.02  -0.01     0.01  -0.01  -0.01
  32   1    -0.01   0.01  -0.00     0.02  -0.14  -0.02     0.00  -0.00  -0.00
  33   1    -0.00   0.01   0.00    -0.04   0.00   0.02    -0.00  -0.00   0.00
  34   1     0.00  -0.01   0.00    -0.02   0.01  -0.04    -0.00   0.00  -0.00
  35   1     0.00  -0.01   0.01    -0.02   0.01   0.01    -0.00   0.00  -0.00
  36   1     0.00  -0.00  -0.02    -0.01   0.00   0.09     0.00   0.00   0.00
  37   1     0.00   0.00   0.00     0.06  -0.02   0.09    -0.00   0.00  -0.00
  38   1     0.00  -0.00   0.00    -0.20  -0.03   0.01     0.01   0.00  -0.00
  39   1    -0.00  -0.00  -0.00     0.04   0.03   0.05    -0.00  -0.00  -0.00
  40   1     0.00  -0.00  -0.00    -0.01   0.10   0.05     0.00  -0.01  -0.00
  41   1    -0.00   0.00   0.00     0.09  -0.13   0.01    -0.01   0.01   0.00
                     46                     47                     48
                        a                      a                      a 
 Frequencies --   754.7216               761.6019               797.4067
 Red. masses --    23.6520                21.9933                 5.4419
 Frc consts  --     0.0000                 0.0000                 0.0000
 IR Inten    --   210.8287               307.8515                13.8485
 Raman Activ --     0.0000                 0.0000                 0.0000
 Depolar     --     0.0000                 0.0000                 0.0000
 Atom AN      X      Y      Z        X      Y      Z        X      Y      Z
   1   6     0.01  -0.00   0.00    -0.03   0.03  -0.04     0.00  -0.00  -0.00
   2   6     0.00  -0.02   0.00     0.05   0.15  -0.10     0.01   0.00  -0.01
   3   8    -0.02   0.01   0.02     0.17  -0.14  -0.25    -0.00  -0.01  -0.01
   4  15     0.01   0.02  -0.01    -0.24   0.49   0.40     0.00   0.05   0.04
   5  16    -0.00  -0.00  -0.00    -0.02  -0.20  -0.17    -0.00  -0.02  -0.01
   6   8    -0.00  -0.02   0.00    -0.01  -0.36  -0.06    -0.01  -0.03  -0.01
   7   6     0.00  -0.00   0.00     0.17  -0.09   0.13     0.01  -0.00   0.01
   8   6     0.00   0.00  -0.00     0.09   0.02  -0.01     0.01   0.00  -0.00
   9  16    -0.00  -0.02  -0.02    -0.03  -0.03  -0.02    -0.03  -0.11   0.01
  10   6     0.03   0.02   0.04     0.06  -0.04   0.03     0.13   0.47  -0.16
  11  16     0.00   0.03  -0.03    -0.02   0.01  -0.02    -0.08  -0.12   0.06
  12  15    -0.55  -0.36  -0.24     0.01  -0.00  -0.01     0.06   0.03  -0.02
  13  16     0.25   0.24   0.03    -0.00  -0.00  -0.00    -0.01  -0.01   0.00
  14   8     0.27   0.09  -0.11    -0.01  -0.00   0.00    -0.02   0.02   0.00
  15   6     0.11  -0.13  -0.01    -0.00   0.01   0.00    -0.01  -0.03   0.00
  16   6     0.01  -0.04   0.05     0.00   0.00  -0.00    -0.00  -0.01   0.01
  17   8    -0.17   0.07   0.26    -0.01  -0.00   0.01    -0.01  -0.00   0.00
  18   6     0.19   0.08   0.14     0.01   0.00   0.00     0.00   0.00   0.01
  19   6     0.02   0.06   0.02     0.00   0.00  -0.00    -0.00  -0.00   0.00
  20   1     0.00   0.01   0.01     0.04  -0.00   0.07     0.01   0.00   0.01
  21   1     0.00   0.01   0.01    -0.09  -0.04  -0.06    -0.01  -0.00   0.00
  22   1    -0.01   0.00  -0.01    -0.03  -0.03   0.03    -0.01  -0.00  -0.00
  23   1    -0.01  -0.00  -0.01    -0.07  -0.05   0.03    -0.02  -0.01  -0.00
  24   1     0.00  -0.00   0.01    -0.01   0.16   0.03     0.00   0.02   0.01
  25   1    -0.00   0.00  -0.00    -0.01   0.06  -0.02    -0.00  -0.00   0.00
  26   1     0.00   0.00   0.01     0.09   0.01   0.14     0.01   0.00   0.00
  27   1     0.00   0.00  -0.00     0.07   0.06  -0.08     0.00   0.00  -0.01
  28   1     0.00   0.00  -0.00    -0.02   0.03  -0.02    -0.00  -0.00   0.00
  29   1    -0.00   0.00   0.00    -0.05  -0.00   0.02     0.00   0.00  -0.00
  30   1     0.01  -0.00   0.03    -0.02   0.01  -0.04     0.22  -0.08   0.54
  31   1    -0.02  -0.02  -0.00     0.04   0.03   0.04    -0.24  -0.36  -0.38
  32   1     0.01  -0.13  -0.02    -0.00   0.00  -0.00     0.01   0.02   0.02
  33   1    -0.04   0.01   0.03    -0.00   0.00   0.00     0.02  -0.01  -0.03
  34   1    -0.02   0.01  -0.03    -0.00  -0.00  -0.00     0.01   0.01   0.02
  35   1    -0.03   0.02   0.01    -0.00  -0.00   0.00     0.01   0.01  -0.03
  36   1    -0.00   0.00   0.08    -0.00  -0.00  -0.00     0.01   0.00   0.01
  37   1    -0.02   0.00  -0.04    -0.00   0.00  -0.00    -0.01   0.01  -0.01
  38   1     0.13   0.02   0.00     0.00  -0.00  -0.00     0.01  -0.01  -0.00
  39   1    -0.03  -0.03  -0.04    -0.00  -0.00  -0.00    -0.00   0.01  -0.00
  40   1     0.00  -0.08  -0.03     0.00  -0.00  -0.00     0.01  -0.01  -0.00
  41   1    -0.09   0.12  -0.01    -0.00   0.00   0.00    -0.00   0.00  -0.00
                     49                     50                     51
                        a                      a                      a 
 Frequencies --   819.1897               819.2506               824.7654
 Red. masses --     2.6939                 2.6768                 2.8626
 Frc consts  --     0.0000                 0.0000                 0.0000
 IR Inten    --     3.1035                 5.1307                 4.3904
 Raman Activ --     0.0000                 0.0000                 0.0000
 Depolar     --     0.0000                 0.0000                 0.0000
 Atom AN      X      Y      Z        X      Y      Z        X      Y      Z
   1   6     0.01  -0.00  -0.00     0.00  -0.00   0.00    -0.01   0.01   0.00
   2   6     0.01  -0.01  -0.01     0.01  -0.01  -0.01    -0.02   0.01   0.01
   3   8    -0.01   0.01   0.01    -0.00   0.01  -0.00     0.01  -0.01  -0.01
   4  15     0.01  -0.04  -0.00     0.01  -0.05  -0.00    -0.00   0.00   0.01
   5  16     0.00   0.00   0.00     0.00   0.00   0.00    -0.00  -0.00  -0.00
   6   8     0.03   0.09   0.04     0.05   0.14   0.06     0.00   0.01   0.00
   7   6    -0.01  -0.13  -0.08    -0.01  -0.20  -0.13    -0.00  -0.01  -0.01
   8   6    -0.01  -0.06  -0.02    -0.01  -0.09  -0.04    -0.00  -0.00  -0.00
   9  16    -0.00  -0.00   0.00    -0.00   0.01   0.00    -0.00  -0.00   0.00
  10   6     0.01   0.03  -0.01    -0.00  -0.01  -0.00     0.00   0.00  -0.01
  11  16    -0.01  -0.01   0.00     0.01   0.00  -0.00     0.00   0.00  -0.00
  12  15     0.06   0.00  -0.03    -0.03  -0.00   0.02     0.02  -0.04  -0.06
  13  16    -0.01  -0.01  -0.00     0.00   0.00  -0.00     0.01   0.01   0.00
  14   8    -0.12  -0.07   0.04     0.07   0.05  -0.02     0.02   0.02  -0.02
  15   6     0.19   0.12   0.01    -0.12  -0.08  -0.00    -0.06  -0.04  -0.00
  16   6     0.08   0.05  -0.02    -0.05  -0.03   0.01    -0.02  -0.01   0.00
  17   8    -0.02  -0.01   0.04     0.02   0.01  -0.03    -0.13  -0.05   0.15
  18   6     0.02   0.02  -0.04    -0.02  -0.01   0.03     0.14   0.10  -0.21
  19   6     0.01   0.01  -0.02    -0.01  -0.01   0.01     0.05   0.06  -0.09
  20   1     0.01   0.01   0.02     0.00   0.01   0.01    -0.01  -0.02  -0.03
  21   1    -0.00   0.00   0.01    -0.00   0.00   0.01     0.01  -0.01  -0.01
  22   1    -0.02  -0.00  -0.01    -0.01  -0.00  -0.01     0.04   0.01   0.02
  23   1    -0.02  -0.01  -0.01    -0.01  -0.01  -0.00     0.04   0.02   0.01
  24   1     0.01   0.02   0.02     0.00   0.01   0.01    -0.01  -0.03  -0.03
  25   1     0.04   0.20  -0.16     0.06   0.31  -0.25     0.00   0.01  -0.01
  26   1    -0.10   0.01   0.24    -0.15   0.02   0.38    -0.01   0.00   0.01
  27   1    -0.02   0.07   0.04    -0.03   0.11   0.06    -0.00   0.00   0.00
  28   1     0.12   0.17  -0.11     0.19   0.27  -0.16     0.01   0.01  -0.01
  29   1    -0.15  -0.01   0.18    -0.23  -0.01   0.28    -0.01  -0.00   0.01
  30   1     0.01  -0.00   0.03    -0.00   0.00  -0.01    -0.00  -0.00   0.01
  31   1    -0.01  -0.02  -0.03     0.00   0.01   0.01    -0.00  -0.00  -0.00
  32   1    -0.12  -0.18  -0.33     0.07   0.12   0.21     0.03   0.06   0.10
  33   1    -0.22   0.07   0.32     0.14  -0.04  -0.21     0.06  -0.02  -0.09
  34   1    -0.12  -0.06  -0.33     0.08   0.04   0.21     0.04   0.02   0.10
  35   1    -0.13  -0.05   0.33     0.09   0.04  -0.21     0.04   0.01  -0.09
  36   1    -0.11  -0.05  -0.02     0.07   0.03   0.01     0.03   0.01   0.00
  37   1     0.05  -0.06   0.04    -0.04   0.05  -0.03     0.27  -0.33   0.21
  38   1    -0.07   0.04   0.03     0.05  -0.03  -0.03    -0.36   0.22   0.18
  39   1     0.03  -0.07   0.02    -0.02   0.06  -0.02     0.14  -0.40   0.12
  40   1    -0.04   0.05   0.03     0.04  -0.04  -0.03    -0.24   0.27   0.17
  41   1    -0.01   0.00   0.03     0.01  -0.00  -0.02    -0.08   0.02   0.15
                     52                     53                     54
                        a                      a                      a 
 Frequencies --   829.2746               905.3404               909.1531
 Red. masses --     2.9449                13.1091                12.8686
 Frc consts  --     0.0000                 0.0000                 0.0000
 IR Inten    --     1.2440               285.9937               306.3067
 Raman Activ --     0.0000                 0.0000                 0.0000
 Depolar     --     0.0000                 0.0000                 0.0000
 Atom AN      X      Y      Z        X      Y      Z        X      Y      Z
   1   6    -0.10   0.05   0.04     0.00  -0.00  -0.00     0.05  -0.04   0.08
   2   6    -0.19   0.12   0.14     0.01   0.00  -0.00     0.00  -0.16   0.04
   3   8     0.14  -0.09  -0.12    -0.00  -0.00   0.01    -0.03   0.19  -0.20
   4  15    -0.03   0.03   0.10    -0.00   0.00  -0.01     0.08  -0.18   0.11
   5  16    -0.00  -0.02  -0.01     0.00   0.00   0.00    -0.00   0.01   0.01
   6   8     0.02   0.00  -0.00     0.02  -0.00   0.01    -0.58   0.19  -0.24
   7   6    -0.01  -0.02  -0.01    -0.01   0.00  -0.01     0.23  -0.06   0.27
   8   6    -0.00  -0.01  -0.00    -0.01  -0.00   0.00     0.27   0.06  -0.03
   9  16    -0.01  -0.01   0.00     0.00   0.00   0.00     0.02  -0.00  -0.00
  10   6     0.01   0.01  -0.00     0.00   0.01  -0.00    -0.00   0.00   0.01
  11  16    -0.00  -0.00   0.00    -0.01   0.00  -0.00    -0.00  -0.00   0.00
  12  15    -0.02  -0.01   0.00    -0.05   0.13   0.16    -0.00   0.01   0.00
  13  16     0.01   0.01  -0.00     0.00   0.00   0.01     0.00  -0.00   0.00
  14   8     0.00  -0.00   0.00     0.18  -0.28   0.08     0.01  -0.02   0.01
  15   6     0.01   0.00   0.00    -0.07   0.19   0.03    -0.00   0.01   0.00
  16   6     0.00   0.00   0.00    -0.04   0.10  -0.12    -0.00   0.01  -0.01
  17   8     0.00  -0.01  -0.02    -0.32  -0.44  -0.34    -0.01  -0.01  -0.00
  18   6     0.00  -0.00   0.03     0.33   0.15   0.11     0.01   0.00   0.00
  19   6    -0.00   0.00   0.01     0.05   0.20   0.07     0.00   0.00   0.00
  20   1    -0.13  -0.17  -0.36     0.00   0.00   0.01    -0.02   0.01  -0.04
  21   1     0.08  -0.06  -0.13    -0.00  -0.00  -0.00     0.10   0.05   0.08
  22   1     0.41   0.07   0.17    -0.01  -0.00  -0.00     0.00   0.02  -0.02
  23   1     0.42   0.21   0.09    -0.01  -0.00  -0.00     0.01  -0.02  -0.00
  24   1    -0.10  -0.30  -0.35     0.00   0.01   0.01    -0.03  -0.01  -0.04
  25   1     0.00   0.02  -0.02     0.00   0.00  -0.00    -0.05   0.01   0.04
  26   1    -0.01   0.00   0.03     0.00   0.00  -0.00    -0.10  -0.04   0.07
  27   1    -0.00   0.01   0.01    -0.01  -0.01   0.01     0.20   0.16  -0.25
  28   1     0.01   0.02  -0.01     0.00   0.00   0.00    -0.09   0.01  -0.01
  29   1    -0.02  -0.00   0.02     0.00   0.00   0.00    -0.11  -0.02  -0.01
  30   1     0.01  -0.00   0.02    -0.00   0.00   0.01    -0.00   0.00   0.00
  31   1    -0.01  -0.01  -0.01    -0.00  -0.00  -0.01     0.00  -0.00   0.00
  32   1    -0.01  -0.02  -0.02     0.00  -0.00   0.05     0.00  -0.00   0.00
  33   1    -0.01   0.00   0.02     0.02  -0.00   0.04     0.00  -0.00   0.00
  34   1    -0.01  -0.00  -0.02     0.01  -0.05   0.03     0.00  -0.00   0.00
  35   1    -0.01  -0.00   0.02     0.02  -0.04   0.03     0.00  -0.00   0.00
  36   1    -0.01  -0.00   0.00     0.01  -0.01  -0.20     0.00  -0.00  -0.02
  37   1    -0.02   0.03  -0.02     0.03   0.00  -0.03     0.00   0.00  -0.00
  38   1     0.04  -0.02  -0.02     0.04  -0.10  -0.02     0.00  -0.00  -0.00
  39   1    -0.01   0.03  -0.01    -0.03  -0.04  -0.04    -0.00  -0.00  -0.00
  40   1     0.02  -0.03  -0.02    -0.01  -0.10  -0.03    -0.00  -0.00  -0.00
  41   1     0.00   0.01  -0.01    -0.15   0.25  -0.00    -0.00   0.01  -0.00
                     55                     56                     57
                        a                      a                      a 
 Frequencies --   919.0860               939.8663              1033.8306
 Red. masses --    11.9632                11.5198                 8.1349
 Frc consts  --     0.0000                 0.0000                 0.0000
 IR Inten    --   213.3022               123.3558               119.8080
 Raman Activ --     0.0000                 0.0000                 0.0000
 Depolar     --     0.0000                 0.0000                 0.0000
 Atom AN      X      Y      Z        X      Y      Z        X      Y      Z
   1   6    -0.00   0.00  -0.00    -0.18   0.12  -0.25    -0.00   0.00  -0.01
   2   6    -0.00   0.01  -0.00     0.04   0.32  -0.02     0.00  -0.00   0.01
   3   8     0.00  -0.01   0.01     0.07  -0.41   0.47    -0.00   0.00  -0.00
   4  15     0.00   0.00  -0.00     0.09  -0.04  -0.14    -0.00  -0.00  -0.00
   5  16    -0.00  -0.00  -0.00     0.00   0.01   0.01     0.00   0.00   0.00
   6   8     0.01  -0.00   0.00    -0.20   0.12  -0.11    -0.01   0.00  -0.01
   7   6    -0.00   0.00  -0.00     0.04  -0.03   0.10     0.03   0.00   0.00
   8   6    -0.01  -0.00   0.00     0.13   0.03  -0.02    -0.02  -0.00   0.00
   9  16    -0.00  -0.01  -0.00     0.02  -0.00  -0.01     0.00   0.00   0.00
  10   6     0.02   0.02   0.00    -0.01   0.01   0.01    -0.00  -0.00  -0.00
  11  16    -0.03   0.01  -0.01    -0.00   0.00  -0.00    -0.00   0.00  -0.00
  12  15    -0.15  -0.01  -0.08    -0.01  -0.00   0.00    -0.01  -0.00  -0.02
  13  16     0.01   0.01  -0.00     0.00   0.00   0.00     0.01   0.01   0.01
  14   8     0.34  -0.47   0.12    -0.00   0.00  -0.00     0.03  -0.08   0.00
  15   6    -0.11   0.30   0.08     0.00  -0.00  -0.00    -0.05   0.11  -0.10
  16   6    -0.07   0.17  -0.23     0.00  -0.00   0.00     0.03  -0.07   0.09
  17   8     0.15   0.26   0.22    -0.00  -0.00  -0.00    -0.21  -0.12  -0.06
  18   6    -0.18  -0.07  -0.05     0.00   0.00   0.00     0.14   0.52   0.16
  19   6    -0.03  -0.12  -0.04    -0.00   0.00  -0.00    -0.03  -0.43  -0.12
  20   1     0.00  -0.00  -0.00     0.06  -0.06   0.08     0.00  -0.00   0.00
  21   1    -0.00  -0.00  -0.00    -0.29  -0.15  -0.25    -0.00  -0.00  -0.00
  22   1     0.00  -0.00   0.00     0.02  -0.06   0.08    -0.00  -0.00   0.00
  23   1     0.00   0.00   0.00     0.03   0.03   0.05     0.00  -0.00   0.00
  24   1     0.00  -0.00  -0.00     0.09  -0.01   0.11     0.00  -0.00   0.00
  25   1     0.00  -0.00  -0.00    -0.03  -0.00   0.02     0.01   0.00  -0.00
  26   1     0.00   0.00  -0.00    -0.07  -0.02   0.02     0.01   0.00  -0.00
  27   1    -0.00  -0.00   0.00     0.10   0.08  -0.12    -0.01  -0.01   0.02
  28   1     0.00  -0.00   0.00    -0.04   0.00  -0.01     0.01  -0.00   0.00
  29   1     0.00   0.00  -0.00    -0.05  -0.01  -0.00     0.01   0.00   0.00
  30   1     0.01   0.00   0.03     0.01  -0.00   0.00     0.00  -0.00  -0.00
  31   1     0.01  -0.02  -0.02    -0.00   0.00   0.00    -0.00   0.00   0.00
  32   1     0.01  -0.02   0.12     0.00  -0.00  -0.00    -0.02   0.04  -0.05
  33   1     0.03  -0.00   0.07    -0.00   0.00  -0.00    -0.00   0.03  -0.04
  34   1     0.03  -0.08   0.07     0.00   0.00   0.00    -0.01   0.04  -0.02
  35   1     0.05  -0.07   0.05    -0.00   0.00  -0.00    -0.02   0.03  -0.01
  36   1     0.02  -0.02  -0.38    -0.00   0.00   0.01    -0.01   0.01   0.13
  37   1    -0.02  -0.01   0.01    -0.00   0.00  -0.00     0.02   0.21   0.03
  38   1    -0.02   0.07   0.01     0.00  -0.00  -0.00     0.02   0.21   0.07
  39   1     0.02   0.02   0.03     0.00   0.00   0.00     0.07   0.07   0.07
  40   1     0.01   0.06   0.02     0.00  -0.00  -0.00     0.09   0.09   0.02
  41   1     0.09  -0.15   0.00     0.00  -0.00  -0.00     0.26  -0.40  -0.02
                     58                     59                     60
                        a                      a                      a 
 Frequencies --  1037.9690              1044.7880              1055.9599
 Red. masses --     8.4317                 9.1244                 9.8980
 Frc consts  --     0.0000                 0.0000                 0.0000
 IR Inten    --   213.6642               168.1349                85.5244
 Raman Activ --     0.0000                 0.0000                 0.0000
 Depolar     --     0.0000                 0.0000                 0.0000
 Atom AN      X      Y      Z        X      Y      Z        X      Y      Z
   1   6     0.12  -0.06   0.15     0.00  -0.00   0.00    -0.22   0.07  -0.28
   2   6    -0.13   0.13  -0.19    -0.00   0.00  -0.00     0.28  -0.29   0.40
   3   8     0.02  -0.12   0.05     0.00  -0.00   0.00    -0.05   0.31  -0.19
   4  15    -0.01   0.01  -0.01     0.00  -0.00   0.00    -0.02   0.02   0.01
   5  16     0.00   0.00  -0.00    -0.00   0.00   0.00    -0.00   0.00   0.00
   6   8     0.23  -0.05   0.16    -0.01   0.00  -0.01     0.16  -0.06   0.12
   7   6    -0.52  -0.07  -0.03     0.02   0.00  -0.00    -0.27  -0.04  -0.02
   8   6     0.37   0.08  -0.05    -0.01  -0.00   0.00     0.17   0.04  -0.03
   9  16    -0.01   0.00  -0.00     0.00  -0.00   0.00    -0.01   0.00   0.00
  10   6     0.00  -0.00  -0.00     0.00   0.01   0.00     0.00  -0.00  -0.01
  11  16    -0.00  -0.00   0.00    -0.01   0.01  -0.01     0.00   0.00   0.00
  12  15     0.00   0.00  -0.00    -0.01   0.01   0.00     0.00  -0.00  -0.00
  13  16    -0.00  -0.00   0.00    -0.01  -0.01  -0.00    -0.00  -0.00  -0.00
  14   8     0.01  -0.01   0.00     0.17  -0.32   0.03     0.00  -0.01   0.00
  15   6    -0.01   0.02  -0.01    -0.19   0.41  -0.37    -0.00   0.01  -0.01
  16   6     0.01  -0.01   0.01     0.10  -0.21   0.33     0.00  -0.00   0.01
  17   8    -0.01  -0.00  -0.00     0.06   0.05   0.04     0.00   0.00   0.00
  18   6     0.00   0.02   0.01    -0.05  -0.15  -0.04    -0.00   0.00  -0.00
  19   6     0.00  -0.02  -0.00     0.01   0.11   0.03     0.00  -0.00  -0.00
  20   1    -0.02   0.05  -0.02    -0.00   0.00  -0.00     0.02  -0.08   0.02
  21   1     0.14   0.08   0.13     0.00   0.00   0.00    -0.23  -0.12  -0.22
  22   1    -0.01   0.04  -0.04     0.00   0.00   0.00    -0.01  -0.07   0.05
  23   1    -0.07   0.04  -0.08    -0.00   0.00  -0.00     0.13  -0.07   0.14
  24   1    -0.05   0.02  -0.08    -0.00  -0.00  -0.00     0.09  -0.04   0.15
  25   1    -0.16  -0.08   0.04     0.01   0.00  -0.00    -0.08  -0.04   0.02
  26   1    -0.20  -0.04   0.00     0.01   0.00  -0.00    -0.08  -0.01   0.01
  27   1     0.24   0.18  -0.30    -0.01  -0.01   0.01     0.10   0.07  -0.13
  28   1    -0.12   0.02  -0.02     0.00  -0.00   0.00    -0.04   0.01  -0.01
  29   1    -0.11  -0.03  -0.05     0.00   0.00   0.00    -0.03  -0.01  -0.03
[...]
  33   1     0.41   0.48   0.27    -0.00  -0.00  -0.00    -0.00  -0.00  -0.00
  34   1    -0.01   0.00   0.01    -0.00   0.00   0.00     0.00  -0.00  -0.00
  35   1    -0.02  -0.03  -0.02     0.00   0.00   0.00     0.00   0.00   0.00
  36   1     0.01  -0.01   0.00    -0.00   0.00  -0.00    -0.00   0.00  -0.00
  37   1     0.50   0.01  -0.46    -0.02  -0.01   0.06    -0.00  -0.00   0.00
  38   1    -0.03   0.01  -0.01    -0.31   0.33  -0.85    -0.00   0.00  -0.00
  39   1    -0.03  -0.00   0.02    -0.01   0.00   0.00     0.00   0.00  -0.00
  40   1     0.01  -0.00   0.01     0.02  -0.03   0.06     0.00  -0.00   0.00
  41   1    -0.00  -0.00  -0.00     0.01   0.01   0.00     0.00   0.00   0.00
                    103                    104                    105
                        a                      a                      a 
 Frequencies --  2974.6654              2978.4184              3011.5109
 Red. masses --     1.7195                 1.7338                 1.7902
 Frc consts  --     0.0000                 0.0000                 0.0000
 IR Inten    --     8.1239                 7.1722                 3.3830
 Raman Activ --     0.0000                 0.0000                 0.0000
 Depolar     --     0.0000                 0.0000                 0.0000
 Atom AN      X      Y      Z        X      Y      Z        X      Y      Z
   1   6     0.00  -0.00  -0.00    -0.00   0.00   0.00    -0.00  -0.00   0.00
   2   6    -0.00  -0.00   0.00     0.00   0.00  -0.00     0.00  -0.00  -0.00
   3   8     0.00  -0.00   0.00     0.00   0.00   0.00    -0.00  -0.00   0.00
   4  15    -0.00   0.00  -0.00     0.00  -0.00   0.00     0.00   0.00   0.00
   5  16     0.00  -0.00  -0.00     0.00  -0.00   0.00     0.00  -0.00  -0.00
   6   8     0.00  -0.00   0.00    -0.01   0.00  -0.00     0.00  -0.00  -0.00
   7   6     0.00  -0.00   0.00    -0.05   0.24  -0.05     0.00   0.00  -0.00
   8   6     0.00  -0.00   0.00     0.01  -0.03   0.00     0.00  -0.00   0.00
   9  16     0.00  -0.00   0.00     0.00   0.00   0.00    -0.00   0.00   0.00
  10   6    -0.00  -0.00  -0.00    -0.00   0.00  -0.00     0.02  -0.17   0.20
  11  16     0.00   0.00  -0.00    -0.00   0.00  -0.00     0.00  -0.00   0.00
  12  15    -0.00   0.00  -0.00    -0.00  -0.00   0.00     0.00  -0.00   0.00
  13  16    -0.00   0.00  -0.00    -0.00   0.00  -0.00     0.00   0.00  -0.00
  14   8     0.01  -0.01   0.00     0.00  -0.00  -0.00    -0.00  -0.00  -0.00
  15   6     0.23  -0.01  -0.11     0.00   0.00  -0.00    -0.00  -0.00   0.00
  16   6    -0.04   0.00   0.01    -0.00  -0.00   0.00    -0.00  -0.00   0.00
  17   8    -0.00   0.00   0.00     0.00   0.00  -0.00    -0.00   0.00  -0.00
  18   6    -0.00  -0.00   0.00     0.00  -0.00   0.00     0.00  -0.00   0.00
  19   6     0.00   0.00  -0.00     0.00  -0.00   0.00     0.00  -0.00   0.00
  20   1    -0.00  -0.00   0.00     0.00   0.00  -0.00     0.00   0.00  -0.00
  21   1    -0.00   0.00  -0.00     0.00  -0.00   0.00    -0.00  -0.00   0.00
  22   1    -0.00   0.00   0.00     0.00  -0.00  -0.00     0.00  -0.00  -0.00
  23   1    -0.00  -0.00  -0.00     0.00  -0.00  -0.00    -0.00   0.00   0.00
  24   1     0.01   0.00  -0.00    -0.01  -0.00   0.00    -0.00  -0.00   0.00
  25   1     0.00  -0.00  -0.00    -0.00   0.04   0.00    -0.00   0.00   0.00
  26   1    -0.00   0.01  -0.00     0.19  -0.92   0.20     0.00  -0.00   0.00
  27   1    -0.00  -0.00  -0.00    -0.02  -0.00  -0.01    -0.00  -0.00  -0.00
  28   1     0.00  -0.00   0.00     0.00   0.00   0.02     0.00  -0.00   0.00
  29   1    -0.00   0.00  -0.00    -0.03   0.13  -0.02    -0.00   0.02  -0.00
  30   1     0.00   0.00  -0.00     0.00   0.00   0.00     0.02   0.02   0.03
  31   1     0.00  -0.00   0.00     0.00  -0.00   0.00    -0.08   0.59  -0.76
  32   1    -0.88   0.05   0.37    -0.01   0.00   0.00     0.00  -0.00  -0.00
  33   1     0.05   0.02  -0.00    -0.00  -0.00  -0.00     0.00   0.00   0.00
  34   1     0.13  -0.01  -0.06     0.00  -0.00  -0.00     0.02  -0.00  -0.01
  35   1     0.00   0.01   0.01     0.00   0.00   0.00    -0.00   0.00   0.00
  36   1     0.00  -0.02   0.01    -0.00  -0.00   0.00    -0.00   0.00   0.00
  37   1     0.00  -0.00  -0.00    -0.00  -0.00   0.00     0.00  -0.00   0.00
  38   1    -0.00   0.00  -0.01    -0.00   0.00  -0.00    -0.00   0.00  -0.00
  39   1    -0.00   0.00   0.00     0.00   0.00   0.00    -0.00  -0.00   0.00
  40   1     0.00  -0.00   0.00    -0.00   0.00  -0.00    -0.00   0.00  -0.01
  41   1     0.00   0.00   0.00    -0.00  -0.00   0.00     0.00   0.00   0.00
                    106                    107                    108
                        a                      a                      a 
 Frequencies --  3014.6984              3019.8657              3036.6378
 Red. masses --     1.7471                 1.7661                 1.7642
 Frc consts  --     0.0000                 0.0000                 0.0000
 IR Inten    --    44.6657                49.7863                34.1654
 Raman Activ --     0.0000                 0.0000                 0.0000
 Depolar     --     0.0000                 0.0000                 0.0000
 Atom AN      X      Y      Z        X      Y      Z        X      Y      Z
   1   6     0.00   0.00  -0.00     0.00  -0.00   0.00    -0.22  -0.07   0.12
   2   6     0.00   0.00  -0.00     0.00   0.00   0.00    -0.03  -0.01   0.01
   3   8    -0.00  -0.00   0.00     0.00   0.00   0.00     0.00  -0.00   0.00
   4  15     0.00  -0.00  -0.00    -0.00  -0.00   0.00    -0.00   0.00  -0.00
   5  16    -0.00   0.00   0.00     0.00   0.00  -0.00    -0.00  -0.00  -0.00
   6   8     0.00  -0.00   0.00     0.00  -0.00   0.00    -0.00   0.00  -0.00
   7   6    -0.00   0.00   0.00     0.01  -0.04   0.00     0.00   0.00   0.00
   8   6    -0.00   0.01  -0.00     0.06  -0.25   0.03    -0.00   0.00  -0.00
   9  16     0.00  -0.00  -0.00    -0.00  -0.00  -0.00     0.00  -0.00   0.00
  10   6    -0.00   0.00  -0.00    -0.00   0.00  -0.00    -0.00   0.00  -0.00
  11  16    -0.00   0.00  -0.00    -0.00   0.00  -0.00    -0.00   0.00  -0.00
  12  15     0.00  -0.00   0.00     0.00   0.00   0.00    -0.00   0.00   0.00
  13  16    -0.00   0.00  -0.00    -0.00  -0.00   0.00    -0.00   0.00   0.00
  14   8    -0.00   0.00  -0.00    -0.00   0.00  -0.00     0.00  -0.00  -0.00
  15   6    -0.04  -0.00   0.02    -0.00  -0.00   0.00     0.00  -0.00  -0.00
  16   6    -0.24   0.01   0.09    -0.00   0.00   0.00    -0.00  -0.00  -0.00
  17   8    -0.00   0.00  -0.00    -0.00  -0.00  -0.00    -0.00  -0.00  -0.00
  18   6     0.00  -0.00  -0.00    -0.00   0.00  -0.00     0.00  -0.00   0.00
  19   6    -0.00   0.00  -0.00    -0.00   0.00  -0.00     0.01  -0.01   0.02
  20   1    -0.00  -0.00   0.00     0.00   0.00  -0.00     0.81   0.30  -0.41
  21   1     0.00  -0.00   0.00    -0.00   0.00  -0.00    -0.03   0.02   0.00
  22   1     0.00  -0.00  -0.00    -0.00   0.00   0.00    -0.00  -0.06  -0.02
  23   1    -0.00   0.00   0.00     0.00  -0.00  -0.00     0.00  -0.01  -0.00
  24   1    -0.00  -0.00   0.00    -0.01  -0.00   0.00     0.07   0.03  -0.04
  25   1     0.00  -0.00  -0.00    -0.00   0.01   0.02     0.00  -0.00  -0.00
  26   1     0.00  -0.00   0.00    -0.03   0.13  -0.03     0.00  -0.00   0.00
  27   1     0.00   0.00   0.00    -0.01  -0.03  -0.01     0.00  -0.00   0.00
  28   1    -0.00   0.00  -0.00     0.01   0.00   0.07    -0.00   0.00   0.00
  29   1     0.00  -0.02   0.00    -0.20   0.91  -0.17     0.00  -0.00   0.00
  30   1    -0.00  -0.00  -0.00    -0.00  -0.00  -0.00     0.00   0.00  -0.00
  31   1     0.00  -0.01   0.01     0.00  -0.01   0.02     0.00  -0.00   0.00
  32   1     0.13  -0.01  -0.05     0.00  -0.00  -0.00    -0.00  -0.00   0.00
  33   1     0.01   0.01   0.01     0.00   0.00   0.00     0.00   0.00   0.00
  34   1     0.88  -0.07  -0.35     0.02  -0.00  -0.01     0.00  -0.00  -0.00
  35   1    -0.01   0.03   0.03    -0.00  -0.00  -0.00     0.01   0.02   0.01
  36   1    -0.03  -0.00   0.01    -0.00   0.00   0.00    -0.00  -0.00  -0.00
  37   1    -0.00  -0.00   0.00    -0.00   0.00  -0.00    -0.00   0.00   0.00
  38   1    -0.00   0.00  -0.00     0.00  -0.00   0.00    -0.00   0.00  -0.01
  39   1     0.00   0.00  -0.00     0.00  -0.00  -0.00    -0.01  -0.00   0.01
  40   1     0.00  -0.00   0.00     0.00  -0.00   0.00    -0.03   0.03  -0.09
  41   1     0.00   0.00   0.00     0.00   0.00   0.00     0.01   0.00   0.01
                    109                    110                    111
                        a                      a                      a 
 Frequencies --  3041.1919              3042.7579              3047.6879
 Red. masses --     1.7697                 1.6938                 1.5710
 Frc consts  --     0.0000                 0.0000                 0.0000
 IR Inten    --    36.1963                20.1028                15.0160
 Raman Activ --     0.0000                 0.0000                 0.0000
 Depolar     --     0.0000                 0.0000                 0.0000
 Atom AN      X      Y      Z        X      Y      Z        X      Y      Z
   1   6     0.02   0.01  -0.01     0.01  -0.00  -0.00     0.00   0.00  -0.00
   2   6     0.00   0.00  -0.00     0.00   0.00  -0.00     0.00  -0.00  -0.00
   3   8    -0.00   0.00  -0.00    -0.00   0.00  -0.00    -0.00  -0.00   0.00
   4  15     0.00   0.00   0.00     0.00   0.00   0.00     0.00   0.00  -0.00
   5  16     0.00   0.00  -0.00    -0.00  -0.00  -0.00     0.00  -0.00  -0.00
   6   8    -0.00   0.00   0.00     0.00   0.00  -0.00    -0.00  -0.00   0.00
   7   6     0.00  -0.00  -0.00     0.00  -0.00   0.00     0.00  -0.01  -0.01
   8   6     0.00   0.00   0.00    -0.00   0.00   0.00     0.05  -0.11  -0.19
   9  16     0.00  -0.00  -0.00    -0.00  -0.00  -0.00     0.00  -0.00  -0.00
  10   6    -0.00   0.00  -0.00     0.00   0.00   0.00     0.00  -0.00   0.00
  11  16    -0.00   0.00   0.00    -0.00   0.00  -0.00     0.00   0.00  -0.00
  12  15    -0.00  -0.00   0.00    -0.00  -0.00  -0.00    -0.00  -0.00   0.00
  13  16    -0.00  -0.00  -0.00    -0.00  -0.00  -0.00     0.00  -0.00  -0.00
  14   8     0.00  -0.00   0.00    -0.00   0.00   0.00     0.00   0.00   0.00
  15   6    -0.00  -0.00  -0.00    -0.01  -0.01  -0.01    -0.00  -0.00  -0.00
  16   6    -0.00  -0.00  -0.00    -0.14  -0.18  -0.10    -0.00  -0.00  -0.00
  17   8     0.00   0.00   0.00    -0.00  -0.00  -0.00    -0.00  -0.00  -0.00
  18   6     0.00  -0.01   0.02    -0.00   0.00  -0.00    -0.00  -0.00   0.00
  19   6     0.04  -0.09   0.24    -0.00   0.00  -0.00    -0.00  -0.00   0.00
  20   1    -0.08  -0.03   0.04    -0.02  -0.01   0.01    -0.00  -0.00  -0.00
  21   1     0.00  -0.00   0.00     0.00  -0.00  -0.00     0.00  -0.01   0.00
  22   1    -0.00   0.01   0.01    -0.00   0.01   0.01    -0.00   0.01   0.00
  23   1    -0.00   0.00   0.00    -0.00   0.00   0.00    -0.00   0.00   0.00
  24   1    -0.01  -0.00   0.00    -0.00  -0.00   0.00     0.00   0.00  -0.00
  25   1     0.00   0.00   0.00    -0.00   0.00   0.00    -0.00   0.02   0.03
  26   1    -0.00   0.00  -0.00    -0.00   0.00  -0.00    -0.00   0.01  -0.00
  27   1    -0.00   0.00  -0.00     0.00  -0.00   0.00    -0.20  -0.00  -0.13
  28   1     0.00  -0.00  -0.00     0.00  -0.01  -0.01    -0.01   0.47   0.81
  29   1    -0.00   0.00  -0.00    -0.00   0.01  -0.00     0.02  -0.09  -0.01
  30   1     0.00   0.00  -0.00    -0.00  -0.00  -0.00    -0.00  -0.00  -0.00
  31   1     0.00  -0.01   0.01     0.00  -0.00   0.00    -0.00   0.00  -0.00
  32   1     0.00  -0.00  -0.00     0.01  -0.00  -0.00     0.00  -0.00  -0.00
  33   1     0.00   0.00   0.00     0.03   0.03   0.02     0.00   0.00   0.00
  34   1     0.00  -0.00  -0.00    -0.06  -0.02   0.00    -0.00  -0.00  -0.00
  35   1     0.01   0.01   0.01     0.56   0.69   0.37     0.01   0.01   0.00
  36   1    -0.00   0.00  -0.00    -0.01  -0.04  -0.01    -0.00   0.00  -0.00
  37   1     0.01   0.00  -0.01     0.00   0.00  -0.00     0.00   0.00  -0.00
  38   1    -0.02   0.02  -0.06     0.00  -0.00   0.00    -0.00   0.00  -0.00
  39   1     0.13  -0.00  -0.07     0.00  -0.00  -0.00     0.00   0.00  -0.00
  40   1    -0.31   0.31  -0.83     0.01  -0.01   0.02    -0.00   0.00  -0.00
  41   1     0.05   0.03   0.06     0.00   0.00   0.00     0.00   0.00   0.00
                    112                    113                    114
                        a                      a                      a 
 Frequencies --  3050.6052              3052.1308              3054.8917
 Red. masses --     1.6024                 1.8249                 1.7235
 Frc consts  --     0.0000                 0.0000                 0.0000
 IR Inten    --    16.3635                13.2431                 9.9882
 Raman Activ --     0.0000                 0.0000                 0.0000
 Depolar     --     0.0000                 0.0000                 0.0000
 Atom AN      X      Y      Z        X      Y      Z        X      Y      Z
   1   6     0.07  -0.15  -0.16    -0.00   0.00   0.01    -0.00   0.01  -0.00
   2   6     0.01  -0.01  -0.01    -0.00   0.00   0.00    -0.00   0.00   0.00
   3   8     0.00   0.00  -0.00     0.00   0.00  -0.00    -0.00  -0.00  -0.00
   4  15    -0.00  -0.00   0.00    -0.00   0.00   0.00    -0.00   0.00   0.00
   5  16     0.00  -0.00  -0.00    -0.00   0.00   0.00    -0.00   0.00   0.00
   6   8    -0.00   0.00  -0.00    -0.00   0.00  -0.00    -0.00   0.00  -0.00
   7   6     0.00   0.00   0.00     0.01  -0.00   0.01     0.00  -0.00   0.00
   8   6     0.01   0.00   0.01     0.22   0.01   0.16     0.01   0.00   0.00
   9  16     0.00  -0.00  -0.00    -0.00  -0.00   0.00    -0.00   0.00  -0.00
  10   6    -0.00  -0.00   0.00    -0.00   0.00  -0.00    -0.00  -0.00   0.00
  11  16     0.00   0.00   0.00    -0.00  -0.00  -0.00    -0.00  -0.00   0.00
  12  15    -0.00  -0.00   0.00     0.00   0.00  -0.00     0.00   0.00  -0.00
  13  16     0.00   0.00  -0.00     0.00   0.00   0.00     0.00  -0.00   0.00
  14   8     0.00   0.00  -0.00    -0.00   0.00   0.00     0.00  -0.00  -0.00
  15   6    -0.00   0.00   0.00    -0.00  -0.00   0.00    -0.00   0.01   0.00
  16   6     0.00   0.00   0.00     0.00  -0.01   0.00    -0.09   0.23  -0.06
  17   8    -0.00  -0.00  -0.00    -0.00  -0.00   0.00     0.00   0.00  -0.00
  18   6     0.00   0.00  -0.00     0.00   0.00  -0.00     0.00  -0.00   0.00
  19   6     0.01  -0.00  -0.01     0.00   0.00  -0.00    -0.00  -0.00   0.00
  20   1     0.07   0.00  -0.05    -0.00   0.00   0.00     0.00   0.00  -0.00
  21   1     0.04  -0.16   0.07    -0.00   0.01  -0.01     0.00  -0.01   0.01
  22   1    -0.34   0.68   0.57     0.01  -0.02  -0.02     0.00  -0.01  -0.01
  23   1    -0.02   0.03   0.02     0.00  -0.00  -0.00     0.00  -0.00  -0.00
  24   1    -0.01  -0.00   0.00     0.00   0.00  -0.00    -0.00  -0.00   0.00
  25   1     0.00  -0.00  -0.00     0.00  -0.01  -0.01    -0.00  -0.00  -0.00
  26   1     0.00  -0.00   0.00    -0.00   0.02  -0.00    -0.00   0.00  -0.00
  27   1    -0.03   0.00  -0.01    -0.84   0.07  -0.41    -0.02   0.00  -0.01
  28   1     0.00  -0.01  -0.01     0.03  -0.11  -0.18     0.00  -0.00  -0.00
  29   1     0.00  -0.01   0.00     0.03  -0.00   0.02     0.00   0.00   0.00
  30   1     0.00   0.00   0.00     0.00   0.00  -0.00     0.00   0.00   0.00
  31   1    -0.00   0.00  -0.00     0.00  -0.00   0.00    -0.00   0.00  -0.00
  32   1     0.00  -0.00  -0.00     0.00  -0.00  -0.00     0.02  -0.00  -0.01
  33   1    -0.00  -0.00  -0.00     0.00   0.00   0.00    -0.01  -0.01  -0.00
  34   1     0.00  -0.00  -0.00     0.00  -0.00  -0.00    -0.02   0.03  -0.00
  35   1    -0.01  -0.01  -0.00     0.00   0.00   0.00    -0.02   0.02  -0.01
  36   1     0.00  -0.00   0.00    -0.01   0.02  -0.01     0.36  -0.86   0.23
  37   1    -0.00  -0.00   0.00     0.00  -0.00   0.00    -0.00  -0.00   0.00
  38   1     0.00  -0.00   0.00     0.00  -0.00   0.00    -0.00   0.00  -0.01
  39   1    -0.06  -0.00   0.04    -0.01  -0.00   0.01     0.00   0.00  -0.00
  40   1    -0.00   0.00  -0.01     0.00  -0.00   0.00    -0.00   0.00  -0.00
  41   1     0.02   0.02   0.01    -0.01  -0.01  -0.00     0.01   0.01   0.00
                    115                    116                    117
                        a                      a                      a 
 Frequencies --  3056.0305              3060.7217              3061.1924
 Red. masses --     1.5172                 1.7907                 1.8817
 Frc consts  --     0.0000                 0.0000                 0.0000
 IR Inten    --    14.2126                11.6198                16.6619
 Raman Activ --     0.0000                 0.0000                 0.0000
 Depolar     --     0.0000                 0.0000                 0.0000
 Atom AN      X      Y      Z        X      Y      Z        X      Y      Z
   1   6     0.00  -0.02  -0.01    -0.07   0.24  -0.10    -0.00  -0.00   0.00
   2   6     0.00  -0.00  -0.00     0.00   0.01  -0.00    -0.00   0.00   0.00
   3   8     0.00  -0.00   0.00    -0.00  -0.00  -0.00    -0.00  -0.00   0.00
   4  15    -0.00  -0.00  -0.00    -0.00   0.00   0.00     0.00  -0.00  -0.00
   5  16    -0.00   0.00   0.00     0.00  -0.00  -0.00    -0.00   0.00   0.00
   6   8     0.00  -0.00   0.00     0.00   0.00  -0.00    -0.00  -0.00   0.00
   7   6     0.00   0.00   0.00     0.00  -0.00   0.00     0.00   0.00   0.00
   8   6     0.00   0.00   0.00     0.00  -0.00   0.00     0.00   0.00   0.00
   9  16     0.00   0.00   0.00    -0.00   0.00   0.00     0.00   0.00  -0.00
  10   6     0.00  -0.00   0.00     0.00   0.00  -0.00     0.00  -0.00   0.00
  11  16    -0.00  -0.00   0.00    -0.00   0.00  -0.00    -0.00  -0.00   0.00
  12  15    -0.00  -0.00  -0.00    -0.00  -0.00  -0.00    -0.00   0.00   0.00
  13  16     0.00   0.00   0.00     0.00   0.00   0.00     0.00   0.00  -0.00
  14   8     0.00   0.00   0.00    -0.00  -0.00   0.00     0.00  -0.00  -0.00
  15   6    -0.00  -0.00  -0.00     0.00  -0.00  -0.00     0.00  -0.00  -0.00
  16   6     0.00   0.00  -0.00     0.00  -0.00   0.00     0.00  -0.00   0.00
  17   8    -0.00  -0.00   0.00     0.00   0.00   0.00     0.00  -0.00  -0.00
  18   6    -0.01   0.00   0.01    -0.00   0.00   0.00    -0.01  -0.00  -0.00
  19   6    -0.15   0.04   0.15    -0.00   0.00   0.00    -0.23  -0.15  -0.07
  20   1     0.03   0.01  -0.02     0.01   0.04  -0.02     0.01   0.00  -0.00
  21   1    -0.00   0.01  -0.01     0.17  -0.78   0.51    -0.00   0.00  -0.00
  22   1    -0.03   0.05   0.05     0.05  -0.09  -0.11     0.00  -0.01  -0.00
  23   1    -0.00   0.00   0.00     0.01  -0.01  -0.01     0.00  -0.00  -0.00
  24   1     0.00   0.00  -0.00    -0.01  -0.00   0.01    -0.00  -0.00   0.00
  25   1     0.00  -0.00  -0.00     0.00  -0.00  -0.00    -0.00  -0.00  -0.00
  26   1    -0.00  -0.00   0.00    -0.00   0.00  -0.00    -0.00  -0.00   0.00
  27   1    -0.01   0.00  -0.01    -0.01   0.00  -0.00    -0.01   0.00  -0.01
  28   1     0.00  -0.00  -0.01     0.00  -0.00  -0.01     0.00  -0.00  -0.01
  29   1     0.00  -0.00   0.00    -0.00   0.01  -0.00     0.00  -0.00   0.00
  30   1     0.00   0.00   0.00    -0.00  -0.00  -0.00     0.00   0.00  -0.00
  31   1    -0.00   0.00  -0.00     0.00  -0.00   0.00    -0.00   0.00  -0.00
  32   1    -0.00   0.00   0.00    -0.00   0.00   0.00    -0.00   0.00   0.00
  33   1     0.00   0.00   0.00     0.00  -0.00   0.00    -0.00  -0.00  -0.00
  34   1    -0.00   0.00   0.00    -0.00  -0.00   0.00    -0.00   0.00   0.00
  35   1    -0.00  -0.00  -0.00     0.00   0.00   0.00    -0.00  -0.01  -0.00
  36   1     0.00  -0.00   0.00    -0.01   0.02  -0.00    -0.00   0.01  -0.00
  37   1     0.03   0.00  -0.03     0.00   0.00  -0.00     0.01   0.00  -0.01
  38   1    -0.00   0.00  -0.00    -0.00   0.00  -0.00     0.01  -0.01   0.02
  39   1     0.71   0.05  -0.58     0.02   0.00  -0.02     0.18  -0.00  -0.18
  40   1     0.02  -0.04   0.13     0.00  -0.00   0.00     0.00  -0.05   0.09
  41   1    -0.22  -0.17  -0.08    -0.00  -0.00  -0.00     0.63   0.58   0.33
