41
 energy: -65.046732072307 gnorm: 0.050635540058 xtb: 6.7.1 (edcfbbe)
C            1.50021141339290        0.39408850311747       -2.66967890135641
C            2.51718543504498        0.68960606240964       -1.59468261059967
O            2.88686566341020       -0.53639448143517       -0.88538493999382
P            2.41811343250640       -0.79470526227267        0.63182497128075
S            2.60148385509504        0.68946573395252        1.88078867954769
O            3.27671763716061       -2.11174101448463        0.95131511503087
C            4.61901066611916       -2.00434852691736        1.54611432806528
C            5.63437234043090       -1.38687786288667        0.61071575564382
S            0.46482058480561       -1.59423544165124        0.36898310131360
C           -0.46331750854956       -0.79418798276429        1.76040723479090
S           -2.24518846491963       -0.65518317645391        1.39313519217066
P           -2.21323323679512        0.89354189191325       -0.08563315990923
S           -0.81081583996545        2.22163550125166        0.08084332994607
O           -3.74228068209116        1.35271262289505        0.12967067731069
C           -4.21793700478214        2.66216325135399       -0.34847132703767
C           -4.20427332785613        2.77753532327117       -1.85421677818514
O           -2.16192771159246        0.19321594015287       -1.52820613541971
C           -3.18018704843428       -0.78499607826468       -1.93903088094007
C           -2.54056264163504       -2.14392362767301       -2.09718023096649
H            0.56556398942482        0.02246639874577       -2.23716451106205
H            1.28379576912330        1.32666626565117       -3.19980088090340
H            1.88429590977153       -0.33528613379295       -3.38938014900902
H            2.13834782190244        1.42289612885571       -0.87626044402464
H            3.45283854285855        1.06617583215985       -2.01678666970086
H            4.53072944149367       -1.43199766196849        2.47523820728381
H            4.87257890670080       -3.03776109430757        1.78522786626715
H            6.61038979888738       -1.41631862022812        1.10923832222358
H            5.70706513445227       -1.94368895385231       -0.32796496479892
H            5.40165233908248       -0.34031317235739        0.39122321353249
H           -0.03646288304953        0.19767865188299        1.94721878026345
H           -0.39502378269098       -1.41412828347998        2.66175072554364
H           -5.23240236745224        2.71956899780772        0.04893658949771
H           -3.60191276036470        3.43551011118713        0.12379127021841
H           -3.18671419980716        2.73352445563558       -2.25569509959393
H           -4.81074036600645        1.99348457069347       -2.32010461375377
H           -4.63033060477145        3.75206148527449       -2.12391369971686
H           -4.00039432927871       -0.79975873969644       -1.21392184476353
H           -3.57380181847348       -0.40948734904266       -2.88794756443420
H           -1.68138216743363       -2.08836649719811       -2.77264598797395
H           -2.20973375163213       -2.53758201698106       -1.13114202748910
H           -3.27405792573077       -2.83596784883644       -2.52270581658421
41
 energy: -65.050123243634 gnorm: 0.024992466320 xtb: 6.7.1 (edcfbbe)
C            1.49706805763615        0.40249679055100       -2.66883453599555
C            2.51662332774384        0.69981515597103       -1.59356506763422
O            2.89018087708970       -0.51155583700630       -0.88669407373710
P            2.40192839314288       -0.79023164330006        0.61481651728553
S            2.58652822773091        0.70101566996919        1.87751885065592
O            3.26031353922474       -2.09775649895670        0.94343264479342
C            4.59059439057595       -2.00062567481772        1.54117388895312
C            5.61792308572919       -1.39125244858602        0.61456605573266
S            0.46566238298416       -1.60351790473145        0.37488007012407
C           -0.46074226465023       -0.78652395691164        1.74466479803564
S           -2.23225559610235       -0.66529628279379        1.36856478048755
P           -2.20037614491949        0.88121337613509       -0.08476494051674
S           -0.79574532388539        2.23086598851833        0.05962157405636
O           -3.72157585852222        1.35258001545287        0.12855761870347
C           -4.19915601962885        2.65110322919532       -0.33991145586389
C           -4.19777544542275        2.77435064566422       -1.84617137050356
O           -2.15381839179963        0.17841885156269       -1.52080459295994
C           -3.16735266622530       -0.78617474962369       -1.93453737566663
C           -2.53794784026977       -2.15056392419333       -2.09299037773461
H            0.57151490566422        0.02790575995221       -2.23272069295292
H            1.27716289916091        1.32526678102806       -3.20275380828088
H            1.88344651835289       -0.33430930975414       -3.37003386544467
H            2.13237756325934        1.42780141399204       -0.87214656464523
H            3.45063523238870        1.07350387138313       -2.01856461080566
H            4.50493718465721       -1.41953268238706        2.46412960790097
H            4.83506778330689       -3.03728377589671        1.77734113034467
H            6.59149998762465       -1.42308293849762        1.10414721952034
H            5.67381502444445       -1.94336807082448       -0.32148874993120
H            5.37505648906972       -0.35108190114703        0.39800975458437
H           -0.03789286202391        0.20624054987943        1.91953025079070
H           -0.39479081691458       -1.40675870507587        2.63797792530816
H           -5.21172491706811        2.70366418032561        0.06369977010414
H           -3.57732193425576        3.42401538105425        0.12064660554625
H           -3.18178903874790        2.71968343327832       -2.23843072477868
H           -4.79975863547340        1.98962468841835       -2.30150122825612
H           -4.62129952275583        3.74139918855195       -2.11763608031024
H           -3.97523210881336       -0.79450648746753       -1.19710883927254
H           -3.54794689309638       -0.40635690102849       -2.88600079520037
H           -1.68353909513961       -2.09292181696896       -2.76407757842271
H           -2.19943012873809       -2.53498093814275       -1.13199634375957
H           -3.27150610698264       -2.83653462110540       -2.51204126854054
41
 energy: -65.051617370757 gnorm: 0.009457750932 xtb: 6.7.1 (edcfbbe)
C            1.48999091695066        0.41087891156902       -2.66460471094923
C            2.51297537423977        0.71681210053893       -1.59006488839641
O            2.88767669341005       -0.47818294810345       -0.88112535842663
P            2.38220941254725       -0.77824063957488        0.60329580959110
S            2.55551470495025        0.71451846873726        1.87132211973574
O            3.23513549895651       -2.07709546003127        0.93999706512113
C            4.55212227101795       -1.99860328360152        1.53974688598010
C            5.58827417784682       -1.39724848570813        0.61421254101267
S            0.46113690870047       -1.60805621730019        0.35364688338467
C           -0.45255210509562       -0.78586231717783        1.72070143216175
S           -2.21861391602428       -0.66329945489163        1.36377739099641
P           -2.17792266091770        0.87105932580444       -0.09443160375224
S           -0.77049616731352        2.22005430095818        0.04434726201906
O           -3.68926416564919        1.35324132214473        0.12441281534893
C           -4.17309880839580        2.64013994316797       -0.32487431207619
C           -4.18642057731737        2.76569172239206       -1.83442277920957
O           -2.13691064202752        0.16639589656315       -1.52290767262049
C           -3.14769660222914       -0.78727379789856       -1.93172637913741
C           -2.52838972418624       -2.15931135663564       -2.08826813769604
H            0.56969303820585        0.03963442285326       -2.22116330718021
H            1.27041091879929        1.32388780642638       -3.20677071972016
H            1.87924040156777       -0.33659589080165       -3.34797944214556
H            2.12701796553479        1.45089895015112       -0.87484573719030
H            3.44252949926417        1.08858293636712       -2.02449673950742
H            4.47311106210269       -1.41030042747402        2.45832686125876
H            4.78485721212540       -3.03819067785333        1.77594422879304
H            6.55945319274107       -1.43611900215149        1.09686815504383
H            5.62866952257728       -1.94562682951792       -0.32163164238914
H            5.34296805561866       -0.35878127908025        0.40297922941314
H           -0.03046024274034        0.20820170992048        1.88085751271679
H           -0.38000142186093       -1.39803696012967        2.61426781068185
H           -5.18204697041567        2.68976260871413        0.08887798667989
H           -3.54642411012334        3.41600449445337        0.12179794069038
H           -3.17170899562836        2.70278492741892       -2.22284385942512
H           -4.78819533182733        1.97935537954349       -2.27915140383563
H           -4.60718560029404        3.72815184542054       -2.10465661468871
H           -3.94981577464095       -0.79369652080087       -1.18875872204081
H           -3.52234638875419       -0.41079590580223       -2.88526881443677
H           -1.67943078775506       -2.10435425547767       -2.76115994445290
H           -2.18362686074962       -2.53437540069969       -1.12892268603288
H           -3.26702071485944       -2.83926206076630       -2.49680033360588
41
 energy: -65.052063026097 gnorm: 0.005795433137 xtb: 6.7.1 (edcfbbe)
C            1.48316293707952        0.41751019140746       -2.66243152926172
C            2.51062773751887        0.73390957330593       -1.59247229174425
O            2.88741456514231       -0.45266579497388       -0.87919080420450
P            2.36963369372151       -0.76537881774998        0.59443654561386
S            2.52532824248004        0.72275423429076        1.87107296106115
O            3.21314929665625       -2.06253699009208        0.93704636074761
C            4.52357061566101       -1.99803992245137        1.54063847036793
C            5.56448279688129       -1.40253514218513        0.61377067888439
S            0.45328436266587       -1.60510456653828        0.33420244310015
C           -0.45321581774833       -0.79033069838389        1.70773709618540
S           -2.21845323920025       -0.66879384572122        1.36194454556537
P           -2.15741683399920        0.86625060306534       -0.09910436107587
S           -0.74437713350128        2.21003224650975        0.03395622324814
O           -3.66337798927995        1.35289967571805        0.12441342346811
C           -4.15169082550399        2.63504659065149       -0.31391580008752
C           -4.17650311572900        2.76004344801237       -1.82574864252196
O           -2.11866152681868        0.15849614559335       -1.52269559634032
C           -3.13114885976966       -0.79005333339162       -1.92947018783683
C           -2.51713754922998       -2.16690363827707       -2.08363330000967
H            0.56352919157324        0.05244855244030       -2.21123587074819
H            1.26405096914752        1.32429175906900       -3.21485567215807
H            1.87177820455524       -0.33950076328516       -3.33628423004131
H            2.12534815541496        1.47612814688987       -0.88434966629261
H            3.43634599989545        1.10621267273436       -2.03526459758839
H            4.45104305747215       -1.40820943383806        2.45924517265557
H            4.74905479195589       -3.03870702644178        1.77865753804674
H            6.53662028617982       -1.44965895007161        1.09290621714286
H            5.59525534943896       -1.94915045754612       -0.32400662130094
H            5.32375690855186       -0.36164711329182        0.40677373915402
H           -0.02977048458630        0.20517165098437        1.86057276133513
H           -0.36694255851424       -1.39863070353605        2.60335840912173
H           -5.15733797075405        2.68630604777105        0.10774222464792
H           -3.52336279575317        3.41493327890446        0.12457046575469
H           -3.16292907082177        2.69249841714936       -2.21765253973267
H           -4.78210156475166        1.97184596133005       -2.26316739996016
H           -4.59598894191002        3.72280420198554       -2.09588177547054
H           -3.93564095933789       -0.79610790002605       -1.18896145852007
H           -3.50574105491158       -0.41781025352814       -2.88451445452362
H           -1.67162508702767       -2.11826209795497       -2.76224346181571
H           -2.16858017419331       -2.53786954490259       -1.12359387504397
H           -3.26207535029862       -2.84493850195961       -2.48386701810857
41
 energy: -65.052224929711 gnorm: 0.004452612725 xtb: 6.7.1 (edcfbbe)
C            1.47625389758191        0.42327069852462       -2.66154620359844
C            2.50718418350430        0.74811754878926       -1.59693097755285
O            2.88646804659296       -0.43379434909903       -0.87704586099285
P            2.36010488087914       -0.75303919047164        0.59007658396714
S            2.50919453302233        0.72955645464809        1.87280394346686
O            3.19476554651760       -2.05164984357067        0.93642522997087
C            4.50383442657771       -1.99700058012185        1.54195001215173
C            5.54789847431540       -1.40679641696837        0.61430649171882
S            0.44706529310456       -1.59865067556710        0.31509325662425
C           -0.44990961773840       -0.79940372407196        1.70402385866099
S           -2.21418319531043       -0.67016138199934        1.36387187159165
P           -2.14791889188024        0.86167413411652       -0.10143564028412
S           -0.72707042833859        2.19485068152189        0.03449013383858
O           -3.65009743174387        1.35415659634011        0.12363989947660
C           -4.13708640682902        2.63693123870227       -0.30882419428910
C           -4.16912006543120        2.75934223992137       -1.82128369172877
O           -2.10657898558646        0.15251424789660       -1.52285790613558
C           -3.11969814192693       -0.79545788083021       -1.93020513295390
C           -2.50726992507614       -2.17401581988958       -2.08086433591664
H            0.55561895796153        0.06591380932535       -2.20427298230474
H            1.25820598109023        1.32515396793333       -3.22413224419380
H            1.86144067377268       -0.34199499619079       -3.32939405460308
H            2.12414520965632        1.49691897207196       -0.89408844172309
H            3.43092958163228        1.11925750768329       -2.04581182832471
H            4.43558446728504       -1.40808395017116        2.46199235371012
H            4.72364367513375       -3.03849919637811        1.78123286727923
H            6.52183423359344       -1.46259215652474        1.09096810939198
H            5.57210971001695       -1.95178597516337       -0.32554336046480
H            5.31487152373946       -0.36266403386890        0.41062216496914
H           -0.02679321807057        0.19640665169493        1.86091993033434
H           -0.35489294634817       -1.41148623147450        2.59746290615895
H           -5.13996289071820        2.69231495642338        0.11876018834466
H           -3.50552646134707        3.41709809185274        0.12612970692650
H           -3.15706236627332        2.68743295507165       -2.21870190339563
H           -4.78004174081220        1.97117084162269       -2.25377936172787
H           -4.58668014149135        3.72386272107414       -2.09205253080770
H           -3.92716946027892       -0.80037941643256       -1.19247813550573
H           -3.49477683951301       -0.42509050880890       -2.88617178917813
H           -1.66450143666532       -2.13144201407129       -2.76483458031079
H           -2.15511843690569       -2.54194476308668       -1.11998778877861
H           -3.25633600934121       -2.85326330878703       -2.47402244209833
41
 energy: -65.052290107322 gnorm: 0.003160649140 xtb: 6.7.1 (edcfbbe)
C            1.47113802189228        0.42764284983528       -2.66223428838062
C            2.50495186922751        0.75790456925630       -1.60289730879203
O            2.88819929152459       -0.42171254330157       -0.87805079219076
P            2.35652625737993       -0.74452052135735        0.58557141812942
S            2.50149852787543        0.73296063123726        1.87391211968139
O            3.18484640187723       -2.04543587918115        0.93483144822422
C            4.49394465239414       -1.99601780774116        1.54271205849976
C            5.53971996907247       -1.40938718573605        0.61548805413855
S            0.44252580467397       -1.58513077170713        0.30381654435455
C           -0.45679809660344       -0.80533716031116        1.70238648868216
S           -2.22264089909366       -0.67377361594842        1.36930893273002
P           -2.14146171447300        0.85703646732454       -0.09904729499501
S           -0.71785912046742        2.18717001951136        0.03533013366918
O           -3.64170102526839        1.35409850970268        0.12496379464014
C           -4.12601141638061        2.63934458501154       -0.30684180816533
C           -4.16352140204926        2.76056041720421       -1.81883272906852
O           -2.09820667005359        0.14742591785003       -1.52018558878232
C           -3.11190807578063       -0.80116476867917       -1.93009007528547
C           -2.49984297580581       -2.17959113501350       -2.07892997101850
H            0.54937741369583        0.07713172675427       -2.20097871699611
H            1.25437480639649        1.32618043581484       -3.23182694463338
H            1.85201943349995       -0.34339484046130       -3.32655602252341
H            2.12420085070103        1.50962804349653       -0.90205493043051
H            3.42770508894162        1.12726051652740       -2.05559496524337
H            4.42600460339947       -1.40820776821984        2.46372875724871
H            4.70935179167677       -3.03829115076746        1.78245104966541
H            6.51443398459754       -1.47207609904698        1.09119768239543
H            5.56044980302103       -1.95269913609583       -0.32584253001191
H            5.31357237273463       -0.36282841655092        0.41412039078862
H           -0.03294347510189        0.18864975212217        1.87166306314865
H           -0.35635963044294       -1.42756275849903        2.58892831778155
H           -5.12688489652097        2.69906670173820        0.12484586256837
H           -3.49079207491438        3.41795146426230        0.12646398852902
H           -3.15335393179278        2.68564607691342       -2.22167320235870
H           -4.77926398305601        1.97400217076309       -2.24871055052727
H           -4.57935726419469        3.72676180352308       -2.08949839600595
H           -3.92196987653352       -0.80517800588683       -1.19487250848410
H           -3.48600441985243       -0.43050535504880       -2.88671294354952
H           -1.65914415980351       -2.14061319749735       -2.76638616032561
H           -2.14478560072466       -2.54561080400960       -1.11788450633693
H           -3.25067197731700       -2.86063583612148       -2.46751374905678
41
 energy: -65.052327501631 gnorm: 0.002060052004 xtb: 6.7.1 (edcfbbe)
C            1.46733553137038        0.43136837376132       -2.66314773546453
C            2.50261969836478        0.76394195810613       -1.60720528863286
O            2.88799863560040       -0.41459171936065       -0.87856202226196
P            2.35304158043677       -0.73820396873801        0.58347672836987
S            2.49896197430158        0.73598840931775        1.87576836399500
O            3.17799203371097       -2.04130326442223        0.93367837345661
C            4.48820532241694       -1.99463482852521        1.54238517850415
C            5.53589591154917       -1.41094691740480        0.61666889531087
S            0.43888287431547       -1.57728176138904        0.29476531193965
C           -0.45630550514299       -0.81335617308374        1.70514533184609
S           -2.22141689714730       -0.67635489457312        1.37003712295850
P           -2.14161451251630        0.85493946799069       -0.09659438220743
S           -0.71610655326615        2.18300217021585        0.03985289957885
O           -3.64096948475538        1.35544961769293        0.12488821511165
C           -4.12066900068668        2.64365550146689       -0.30787688965865
C           -4.16032232447025        2.76352248315307       -1.81897501167766
O           -2.09570078360085        0.14448818250536       -1.51766100568560
C           -3.10809777233985       -0.80629742955124       -1.92994760697745
C           -2.49471923767240       -2.18345326990279       -2.07748360703093
H            0.54442158175678        0.08649551144494       -2.20017816125556
H            1.25292004091088        1.32785210052179       -3.23703057032751
H            1.84468306819204       -0.34370395973583       -3.32474050489062
H            2.12402764645219        1.51679977644718       -0.90681270575245
H            3.42548045882964        1.13029364175513       -2.06187727668525
H            4.41967620391105       -1.40751889997965        2.46378396273248
H            4.70020971581868       -3.03770134595156        1.78176858969633
H            6.51043666196810       -1.47895487008014        1.09234132555442
H            5.55485076329860       -1.95262498817075       -0.32557787510564
H            5.31520843463084       -0.36292518484556        0.41692396711322
H           -0.03183616142879        0.17845362469603        1.88730915617439
H           -0.35813233201973       -1.44722959694812        2.58369174685557
H           -5.12019924432241        2.70744586443423        0.12624229655546
H           -3.48067389598718        3.41868282578957        0.12489685685552
H           -3.15153316557085        2.68567713484965       -2.22471118178946
H           -4.77956205885133        1.97898948336184       -2.24749967153160
H           -4.57394414469757        3.73097481300106       -2.08938408747617
H           -3.91955735936713       -0.80983179702633       -1.19621900310701
H           -3.48014558525511       -0.43479314976710       -2.88714059992184
H           -1.65543260888247       -2.14539849129200       -2.76656285345251
H           -2.13727481075563       -2.54763652090353       -1.11660855634490
H           -3.24527644074744       -2.86653000719356       -2.46332360365810
41
 energy: -65.052342397311 gnorm: 0.001380998948 xtb: 6.7.1 (edcfbbe)
C            1.46575376665623        0.43393003317651       -2.66402401123144
C            2.50172859968319        0.76623213353642       -1.60927445922835
O            2.88772439941166       -0.41223715563343       -0.87974012489249
P            2.35143467511037       -0.73603046584205        0.58182930765112
S            2.49874080612264        0.73699726176172        1.87578515143671
O            3.17624392743509       -2.04002484770036        0.93169910933971
C            4.48660589861839       -1.99365622718901        1.54142270712643
C            5.53571720864849       -1.41106198810650        0.61738741767442
S            0.43728090944976       -1.57312792280941        0.29194273692560
C           -0.45842967058953       -0.81861786327947        1.70650233509806
S           -2.22379773215816       -0.67648642102774        1.37203519267606
P           -2.14270633630955        0.85380754523617       -0.09460447784563
S           -0.71825373009002        2.18316568151333        0.04390659975328
O           -3.64211249973650        1.35540450600516        0.12458979711570
C           -4.11813477804900        2.64573881310558       -0.30902113434984
C           -4.15855290149724        2.76545555449203       -1.81961453934370
O           -2.09591770348320        0.14338116064729       -1.51603693858571
C           -3.10697019169991       -0.80884059287920       -1.92946508503514
C           -2.49207247735387       -2.18495984860063       -2.07646854301982
H            0.54218587408417        0.09224010335220       -2.20075382344991
H            1.25361284759276        1.32960545029078       -3.23950391790781
H            1.84116870260306       -0.34330703753867       -3.32370209174776
H            2.12435844145125        1.51892462364782       -0.90832950164926
H            3.42482820053866        1.13044634987633       -2.06469613937434
H            4.41676008831441       -1.40648229894916        2.46250641359642
H            4.69701962993000       -3.03715465946107        1.78025573006894
H            6.50942549270350       -1.48165328968016        1.09368574011117
H            5.55432100719052       -1.95153098756454       -0.32526675821557
H            5.31728783832693       -0.36269690430490        0.41853076405351
H           -0.03196485022157        0.17050809585319        1.89760484371566
H           -0.36351820180496       -1.46071019578284        2.57904655406175
H           -5.11704389223584        2.71222000223162        0.12598234592018
H           -3.47458391228404        3.41783537814017        0.12321244595348
H           -3.15052504557311        2.68572008644471       -2.22607730344645
H           -4.77953439683190        1.98254640719194       -2.24779584621718
H           -4.57051282401023        3.73351611436366       -2.08932695788940
H           -3.91839544236189       -0.81254796742463       -1.19586797558593
H           -3.47733933108027       -0.43678219793106       -2.88692310093449
H           -1.65347136070307       -2.14603800480174       -2.76582800440779
H           -2.13324453392372       -2.54783468325625       -1.11589223377727
H           -3.24175824352203       -2.86914583943739       -2.46120810243007
41
 energy: -65.052347823576 gnorm: 0.000925512725 xtb: 6.7.1 (edcfbbe)
C            1.46490021440728        0.43660853076764       -2.66446604965200
C            2.50142163480250        0.76748755469216       -1.60959132282240
O            2.88627383276433       -0.41141890747774       -0.88062794136961
P            2.34919929402700       -0.73564877107277        0.58063195818521
S            2.49663704641387        0.73700299432265        1.87535152656891
O            3.17574217188558       -2.03969286175236        0.92900260619331
C            4.48536420213237       -1.99290688069456        1.54005424294374
C            5.53587720921201       -1.41039692828536        0.61751311370350
S            0.43536224958091       -1.57260770821295        0.28919990276455
C           -0.45980243769177       -0.82402281859059        1.70633745528399
S           -2.22557106201012       -0.67753460275166        1.37238906065903
P           -2.14342707577313        0.85364288640994       -0.09269384208372
S           -0.72097748674306        2.18544784676234        0.04662662520446
O           -3.64353727693904        1.35458833866713        0.12403562350215
C           -4.11620223639183        2.64647900348207       -0.30951469790101
C           -4.15709258156895        2.76644840407239       -1.82015849904704
O           -2.09637842813716        0.14345110387512       -1.51441279185415
C           -3.10627361308002       -0.80951814827283       -1.92829354796205
C           -2.48995246006212       -2.18513782734117       -2.07525978737545
H            0.54046181484639        0.09789771218150       -2.20118854674050
H            1.25573865470613        1.33182569536616       -3.24127152045503
H            1.83888621022833       -0.34278145106250       -3.32206189352519
H            2.12507651916983        1.52020630216748       -0.90817933462202
H            3.42477201575062        1.13013123007975       -2.06540972068575
H            4.41440427404179       -1.40534088767472        2.46062304985947
H            4.69530541521432       -3.03650725423757        1.77862255146566
H            6.50870635807470       -1.48273822853857        1.09462308272193
H            5.55454569378507       -1.94977254931972       -0.32558135335485
H            5.31853625331610       -0.36185810260279        0.41955478809327
H           -0.03139794336768        0.16262158079272        1.90387780895121
H           -0.36866711414423       -1.47201540284687        2.57446737526652
H           -5.11463310380686        2.71561272199361        0.12597553105906
H           -3.46956008886183        3.41612391720337        0.12180474094961
H           -3.14946107631131        2.68479854273726       -2.22656668397821
H           -4.77948328339355        1.98480700256229       -2.24800908392089
H           -4.56735622987739        3.73506534795461       -2.08919624072246
H           -3.91754198649587       -0.81405047418298       -1.19473886641261
H           -3.47570598271047       -0.43772728716526       -2.88595946330172
H           -1.65176745438561       -2.14493633975757       -2.76476148817123
H           -2.13012316503703       -2.54689686877345       -1.11489727001192
H           -3.23894071921866       -2.86998851380988       -2.45934697569305
41
 energy: -65.052349681879 gnorm: 0.000442387047 xtb: 6.7.1 (edcfbbe)
C            1.46500223725825        0.43777449133888       -2.66450002500766
C            2.50178846421993        0.76785177030283       -1.60922778669224
O            2.88580483405319       -0.41137779989979       -0.88114126562888
P            2.34862989229904       -0.73623693904365        0.57992608860447
S            2.49431149523614        0.73591294677515        1.87518189327178
O            3.17593384603893       -2.04007402997271        0.92754674308696