19
 energy: -26.296874300499 gnorm: 0.024904204341 xtb: 6.7.1 (edcfbbe)
C           -2.59586936321023        0.57769758168169       -0.00046267324696
C           -1.23666898263137       -0.06828957578566        0.00000894234244
C           -1.13961929570627       -1.46435386905450        0.00008800297880
C            0.10069145191167       -2.09550209717918        0.00026644513786
C            1.26679495972043       -1.34171533707557        0.00004439265039
C            1.17163220143296        0.04737159730010       -0.00017440663737
C           -0.06473522638186        0.71062228419352        0.00028310523326
C           -0.08586440664867        2.21389493920597        0.00051223932842
O            2.36405171985597        0.74605059675174       -0.00082865260142
H           -2.74023740754039        1.21350491789633       -0.88085840162611
H           -3.37895460734147       -0.18387295234484       -0.00194784064354
H           -2.74184275541648        1.21160089220454        0.88104911806419
H           -2.04909368700604       -2.05757061915818       -0.00003655689008
H            0.16081756001923       -3.17948167683307        0.00042488079879
H            2.24572065007908       -1.81001850092728       -0.00009900025403
H            0.41567221753538        2.62153345868888       -0.88709758979517
H           -1.10197463867166        2.60597693423030        0.00773505431598
H            0.42772117203265        2.62132506917998        0.88128204326254
H            2.18347143317188        1.69594286064934       -0.00209444364578
19
 energy: -26.297805309850 gnorm: 0.011247468919 xtb: 6.7.1 (edcfbbe)
C           -2.58836238237530        0.57634605471813       -0.00047581978570
C           -1.23047644629023       -0.06303106892842       -0.00000914739380
C           -1.13562104355687       -1.45119742666113        0.00008322777646
C            0.09460688103172       -2.08394922588952        0.00028602520036
C            1.25566385398250       -1.33520873498642        0.00007752388495
C            1.17080234966171        0.05072934006399       -0.00015246537318
C           -0.06366331649989        0.70936924419572        0.00022861293551
C           -0.08933210738911        2.21140670189414        0.00056782838340
O            2.35987068615653        0.73993695995857       -0.00085833194897
H           -2.72577191386776        1.20263249363014       -0.88295734720686
H           -3.36442482202411       -0.18608592927529       -0.00195971522431
H           -2.72738360609514        1.20066473191900        0.88316688867361
H           -2.04081902571547       -2.04210606232190       -0.00002830924598
H            0.15125780097504       -3.16344800418253        0.00043100237250
H            2.22963519139703       -1.80097244813131       -0.00007434573519
H            0.40592034186526        2.60819914072641       -0.88962177710224
H           -1.10534912762815        2.59125338618270        0.00759450693096
H            0.41785027657080        2.60803505003249        0.88408156634074
H            2.18730940500627        1.69214230067934       -0.00228526471003
19
 energy: -26.297904482399 gnorm: 0.003985290309 xtb: 6.7.1 (edcfbbe)
C           -2.58629507358297        0.57719168646549       -0.00047537501026
C           -1.22830563628916       -0.06173953225276       -0.00000210874798
C           -1.13505083810969       -1.44787727397843        0.00007838053143
C            0.09240328155956       -2.08189142437885        0.00029313733193
C            1.25165502894336       -1.33336698263813        0.00007144262015
C            1.17244860335815        0.05276865940247       -0.00016188786284
C           -0.06314776374165        0.70787127869730        0.00022550368770
C           -0.09105864094829        2.21183444444952        0.00058646798046
O            2.35829317902986        0.73692980295060       -0.00086164048023
H           -2.72117381361852        1.19996656545352       -0.88327016558913
H           -3.35890467415981       -0.18651305940908       -0.00199979927522
H           -2.72281060765689        1.19790764165753        0.88354359703279
H           -2.03912498536118       -2.03807186752084       -0.00002517308753
H            0.14814860814901       -3.15972623719616        0.00045653974468
H            2.22520774727121       -1.79649664222226       -0.00005350387530
H            0.40169828483407        2.60478664771611       -0.88967663940097
H           -1.10763235744652        2.58569329447918        0.00747350562854
H            0.41342785977878        2.60461933212850        0.88431568390758
H            2.19193479319548        1.69083016982040       -0.00242330636355
19
 energy: -26.297915438241 gnorm: 0.001391126026 xtb: 6.7.1 (edcfbbe)
C           -2.58669075843806        0.57767101462341       -0.00046648298658
C           -1.22824164150838       -0.06178305149667       -0.00000605418024
C           -1.13553545080973       -1.44811222935490        0.00008067970830
C            0.09215839019553       -2.08236270691960        0.00030121603181
C            1.25103597011370       -1.33319214537411        0.00007196450069
C            1.17358153488185        0.05361902215210       -0.00016868936861
C           -0.06311324899305        0.70731294602994        0.00021883589137
C           -0.09129567005408        2.21253741696084        0.00058627425376
O            2.35803428573290        0.73612490382244       -0.00085810589112
H           -2.72111797076783        1.20009792611564       -0.88328386422993
H           -3.35871017112274       -0.18659017896251       -0.00203297533918
H           -2.72277292275314        1.19796026547160        0.88362921778947
H           -2.03966595884472       -2.03843205314534       -0.00002150041554
H            0.14819589940475       -3.16006018728729        0.00046792663686
H            2.22537892740662       -1.79526694098368       -0.00005227237733
H            0.40119240001555        2.60481088161015       -0.88964446614626
H           -1.10826389862485        2.58502681293065        0.00737213191348
H            0.41273531215013        2.60462416438899        0.88439740453184
H            2.19480796722040        1.69073064304247       -0.00249658155054
19
 energy: -26.297917362960 gnorm: 0.000687314669 xtb: 6.7.1 (edcfbbe)
C           -2.58748258247438        0.57780308929328       -0.00044687407552
C           -1.22860761851453       -0.06211070915091       -0.00000703424015
C           -1.13615624348453       -1.44887442880445        0.00008799943521
C            0.09227278057960       -2.08290445787815        0.00030242342412
C            1.25083705828823       -1.33315341467698        0.00006235830286
C            1.17434169335811        0.05430612625260       -0.00018347475499
C           -0.06336827571948        0.70693658562060        0.00020589470213
C           -0.09126070452443        2.21302563191912        0.00057593570191
O            2.35778024149022        0.73573391177835       -0.00085315261385
H           -2.72196132472301        1.20056846369806       -0.88321229169771
H           -3.35960765388586       -0.18666108495846       -0.00208470873295
H           -2.72363957169213        1.19829604957324        0.88368848683037
H           -2.04042089539844       -2.03950689619259       -0.00000438863123
H            0.14894802974340       -3.16075813985991        0.00048198228022
H            2.22611120218875       -1.79453369903460       -0.00005771585095
H            0.40167707579737        2.60512958856365       -0.88957128731190
H           -1.10834643704132        2.58559529236139        0.00718096469916
H            0.41288804379760        2.60490694414283        0.88450022017274
H            2.19770817741964        1.69091765097705       -0.00257067886723
19
 energy: -26.297917750430 gnorm: 0.000066277761 xtb: 6.7.1 (edcfbbe)
C           -2.58734332413534        0.57762769878367       -0.00043952187231
C           -1.22863814866846       -0.06210675050383       -0.00000759387017
C           -1.13604574065422       -1.44876154808910        0.00009103443128
C            0.09229665446105       -2.08267043829585        0.00030259860455
C            1.25089792556096       -1.33312034262448        0.00005805952386
C            1.17399826096219        0.05416163300047       -0.00018789893395
C           -0.06345191601585        0.70706394106051        0.00019927688956
C           -0.09124755136520        2.21277225739266        0.00057083692421
O            2.35775010311564        0.73589634214386       -0.00085616745590
H           -2.72193034103042        1.20047510607408       -0.88318012064846
H           -3.35959708976588       -0.18667154019118       -0.00209080004237
H           -2.72360849121373        1.19817440008902        0.88369097922624
H           -2.04023495436119       -2.03936633884499        0.00000413484552
H            0.14892685420388       -3.16053857304875        0.00047946655644
H            2.22594444267087       -1.79472244067645       -0.00006489902642
H            0.40186664684585        2.60497997822771       -0.88952963015643
H           -1.10816484959091        2.58580819423325        0.00711569916567
H            0.41297701460086        2.60475279224104        0.88450681419715
H            2.19731749958471        1.69096213265247       -0.00256760958625
19
 energy: -26.297917761849 gnorm: 0.000025132121 xtb: 6.7.1 (edcfbbe)
C           -2.58733076434869        0.57761049774437       -0.00042618649754
C           -1.22865286185529       -0.06210971704217       -0.00000668529099
C           -1.13604952138025       -1.44874411172656        0.00009505508158
C            0.09228611114568       -2.08263115407058        0.00029958132133
C            1.25087926372213       -1.33309073680208        0.00004847515680
C            1.17395967307168        0.05418604466037       -0.00019651948643
C           -0.06348594959107        0.70707118330450        0.00019055842446
C           -0.09126899164076        2.21273851349890        0.00056175928342
O            2.35770026391245        0.73587150385103       -0.00085951419034
H           -2.72191650915800        1.20047193425565       -0.88314152392889
H           -3.35957608375610       -0.18667828952809       -0.00210346304982
H           -2.72359660510133        1.19811616588435        0.88371770616426
H           -2.04020864883609       -2.03935376420518        0.00001722197041
H            0.14891822302750       -3.16048946479057        0.00048051022813
H            2.22590131325528       -1.79467265626375       -0.00007473463623
H            0.40195074631900        2.60492844465541       -0.88947357209774
H           -1.10815936118564        2.58582928075615        0.00699552254919
H            0.41286751630209        2.60469243486587        0.88454503603645
H            2.19749518130226        1.69097039457649       -0.00257456826582
