
                                 *****************
                                 * O   R   C   A *
                                 *****************

                                            #,                                       
                                            ###                                      
                                            ####                                     
                                            #####                                    
                                            ######                                   
                                           ########,                                 
                                     ,,################,,,,,                         
                               ,,#################################,,                 
                          ,,##########################################,,             
                       ,#########################################, ''#####,          
                    ,#############################################,,   '####,        
                  ,##################################################,,,,####,       
                ,###########''''           ''''###############################       
              ,#####''   ,,,,##########,,,,          '''####'''          '####       
            ,##' ,,,,###########################,,,                        '##       
           ' ,,###''''                  '''############,,,                           
         ,,##''                                '''############,,,,        ,,,,,,###''
      ,#''                                            '''#######################'''  
     '                                                          ''''####''''         
             ,#######,   #######,   ,#######,      ##                                
            ,#'     '#,  ##    ##  ,#'     '#,    #''#        ,####,   ,####,        
            ##       ##  ##   ,#'  ##            #'  '#       #'       #'  '#        
            ##       ##  #######   ##           ,######,      #####,   #    #        
            '#,     ,#'  ##    ##  '#,     ,#' ,#      #,     #,   #   #,  ,#        
             '#######'   ##     ##  '#######'  #'      '#     '####' # '####'        



                #########################################################
                #                        -***-                          #
                #          Department of theory and spectroscopy        #
                #                                                       #
                #                      Frank Neese                      #
                #                                                       #
                #     Directorship, Architecture, Infrastructure        #
                #                    SHARK, DRIVERS                     #
                #        Core code/Algorithms in most modules           #
                #                                                       #
                #        Max Planck Institute fuer Kohlenforschung      #
                #                Kaiser Wilhelm Platz 1                 #
                #                 D-45470 Muelheim/Ruhr                 #
                #                      Germany                          #
                #                                                       #
                #                  All rights reserved                  #
                #                        -***-                          #
                #########################################################


                         Program Version 6.0.1  -  RELEASE   -


 With contributions from (in alphabetic order):
[Max-Planck-Institut fuer Kohlenforschung]                               
  Daniel Aravena         : Magnetic Suceptibility                        
  Michael Atanasov       : Ab Initio Ligand Field Theory (pilot matlab implementation)
  Alexander A. Auer      : GIAO ZORA, VPT2 properties, NMR spectrum      
  Ute Becker             : All parallelization in ORCA, NUMFREQ, NUMCALC 
  Giovanni Bistoni       : ED, misc. LED, open-shell LED, HFLD           
  Martin Brehm           : Molecular dynamics                            
  Dmytro Bykov           : pre 5.0 version of the SCF Hessian            
  Marcos Casanova-Páez   : Triplet and SCS-CIS(D). UHF-(DLPNO)-IP/EA/STEOM-CCSD. UHF-CVS-IP/STEOM-CCSD   
  Vijay G. Chilkuri      : MRCI spin determinant printing, contributions to CSF-ICE 
  Pauline Colinet        : FMM embedding                                 
  Dipayan Datta          : RHF DLPNO-CCSD density                        
  Achintya Kumar Dutta   : EOM-CC, STEOM-CC                              
  Nicolas Foglia         : Exact transition moments, OPA infrastructure, MCD improvements    
  Dmitry Ganyushin       : Spin-Orbit,Spin-Spin,Magnetic field MRCI      
  Miquel Garcia-Rates    : C-PCM and meta-GGA Hessian, CCSD/C-PCM, Gaussian charge scheme 
  Tiago L. C. Gouveia    : GS-ROHF, GS-ROCIS                             
  Yang Guo               : DLPNO-NEVPT2, F12-NEVPT2, CIM, IAO-localization        
  Andreas Hansen         : Spin unrestricted coupled pair/coupled cluster methods 
  Ingolf Harden          : AUTO-CI MPn and infrastructure                
  Benjamin Helmich-Paris : MC-RPA, TRAH-(SCF,CASSCF), AVAS, COSX integrals, SCF dyn. polar. 
  Lee Huntington         : MR-EOM, pCC                                   
  Robert Izsak           : Overlap fitted RIJCOSX, COSX-SCS-MP3, EOM     
  Riya Kayal             : Wick's Theorem for AUTO-CI, AUTO-CI UHF-CCSDT 
  Emily Kempfer          : AUTO-CI, RHF CISDT and CCSDT                  
  Christian Kollmar      : KDIIS, OOCD, Brueckner-CCSD(T), CCSD density, CASPT2, CASPT2-K, improved NEVPT2 
  Axel Koslowski         : Symmetry handling                             
  Simone Kossmann        : meta-GGA functionals, TD-DFT gradient, OOMP2, (MP2 Hessian; deprecated post 5.0) 
  Lucas Lang             : DCDCAS                                        
  Marvin Lechner         : AUTO-CI (C++ implementation), FIC-MRCC        
  Spencer Leger          : CASSCF response                               
  Dagmar Lenk            : GEPOL surface, SMD, ORCA-2-JSON               
  Dimitrios Liakos       : Extrapolation schemes; Compound Job, initial MDCI parallelization 
  Dimitrios Manganas     : Further ROCIS development; embedding schemes. LFT, Crystal Embedding 
  Dimitrios Pantazis     : SARC Basis sets                               
  Anastasios Papadopoulos: AUTO-CI, single reference methods and gradients 
  Taras Petrenko         : pre 6.0 DFT Hessian and TD-DFT gradient, (ASA, deprecated), ECA, 1-Electron XAS/XES, NRVS 
  Peter Pinski           : DLPNO-MP2, DLPNO-MP2 Gradient                 
  Christoph Reimann      : Effective Core Potentials                     
  Marius Retegan         : Local ZFS, SOC                                
  Christoph Riplinger    : Optimizer, TS searches, QM/MM, DLPNO-CCSD(T), (RO)-DLPNO pert. Triples 
  Michael Roemelt        : Original ROCIS implementation                 
  Masaaki Saitow         : Open-shell DLPNO-CCSD energy and density      
  Barbara Sandhoefer     : DKH picture change effects                    
  Kantharuban Sivalingam : CASSCF convergence/infrastructure, NEVPT2 and variants, FIC-MRCI 
  Bernardo de Souza      : ESD, SOC TD-DFT                               
  Georgi L. Stoychev     : AutoAux, RI-MP2 NMR, DLPNO-MP2 response, X2C  
  Van Anh Tran           : RI-MP2 g-tensors                              
  Willem Van den Heuvel  : Paramagnetic NMR                              
  Zikuan Wang            : NOTCH, Electric field optimization            
  Frank Wennmohs         : Technical directorship and infrastructure     
  Hang Xu                : AUTO-CI-Response properties                   
                                                                         
[FACCTs GmbH]                                                            
  Markus Bursch, Miquel Garcia-Rates, Christoph Riplinger, Bernardo de Souza, Georgi L. Stoychev 
                                                                 
  APM, Basis sets (HGBS, AHGBS, def-TZVP (Ac-Lr), def2-XVPD (La-Lu)), CI-OPT, improved COSX, DLPNO-Multilevel,           
  DOCKER, DRACO, updates on ESD, GOAT, IRC, LR-CPCM, MBIS, meta-GGA TD-DFT gradient, ML-optimized integration grids, 
  MM, NACMEs, nearIR, NEB, NEB-TS, NL-DFT gradient (VV10), 2- and 3-layer-ONIOM, interface openCOSMO-RS, QMMM,   
  Crystal-QMMM, SF, symmetry and pop. for TD-DFT, r2SCAN hybrids, SOLVATOR                                   
                                                                         
[Other institutions]                                                     
  V. Asgeirsson          : NEB                                           
  Christoph Bannwarth    : sTDA-DFT, sTD-DFT, PBEh-3c, B97-3c, D3        
  Sebastian Ehlert       : rSCAN, r2SCAN, r2SCAN-3c, D4, dhf basis sets  
  Marvin Friede          : D4 for Fr, Ra, Ac-Lr                          
  Lars Goerigk           : TD-DFT with DH, B97 family of functionals     
  Stefan Grimme          : VdW corrections, initial TS optimization, DFT functionals, gCP, sTDA/sTD-DF 
  Waldemar Hujo          : DFT-NL                                        
  H. Jonsson             : NEB                                           
  Holger Kruse           : gCP                                           
  Marcel Mueller         : wB97X-3c, vDZP basis set                      
  Hagen Neugebauer       : wr2SCAN                                       
  Tobias Risthaus        : range-separated hybrid DFT                    
  Lukas Wittmann         : regularized MP2, r2SCAN double-hybrids, wr2SCAN        
                                                                         
We gratefully acknowledge several colleagues who have allowed us to      
interface, adapt or use parts of their codes:                            
  Ed Valeev, F. Pavosevic, A. Kumar             : LibInt (2-el integral package), F12 methods 
  Garnet Chan, S. Sharma, J. Yang, R. Olivares  : DMRG                   
  Ulf Ekstrom                                   : XCFun DFT Library      
  Mihaly Kallay                                 : mrcc  (arbitrary order and MRCC methods)
  Frank Weinhold                                : gennbo (NPA and NBO analysis)           
  Simon Mueller                                 : openCOSMO-RS                            
  Christopher J. Cramer and Donald G. Truhlar   : smd solvation model                     
  S Lehtola, MJT Oliveira, MAL Marques          : LibXC Library                           
  Liviu Ungur et al                             : ANISO software                          


 Your calculation uses the libint2 library for the computation of 2-el integrals
 For citations please refer to: http://libint.valeyev.net

 Your ORCA version has been built with support for libXC version: 6.2.2
 For citations please refer to: https://libxc.gitlab.io

 This ORCA versions uses:
   CBLAS   interface :  Fast vector & matrix operations
   LAPACKE interface :  Fast linear algebra routines
   SCALAPACK package :  Parallel linear algebra routines
   Shared memory     :  Shared parallel matrices
   BLAS/LAPACK       :  OpenBLAS 0.3.27  USE64BITINT DYNAMIC_ARCH NO_AFFINITY Zen SINGLE_THREADED
        Core in use  :  Zen
   Copyright (c) 2011-2014, The OpenBLAS Project


Your calculation utilizes the geometrical counterpoise correction gCP
Please cite in your paper:
H.Kruse, S. Grimme J.Chem.Phys., 136, (2012), 154101 
   

Your calculation utilizes the atom-pairwise dispersion correction
based on EEQ partial charges (D4)


================================================================================

----- Orbital basis set information -----
Your calculation utilizes the basis: def2-SV(P)
   F. Weigend and R. Ahlrichs, Phys. Chem. Chem. Phys. 7, 3297 (2005).

----- AuxJ basis set information -----
Your calculation utilizes the auxiliary basis: def2/J
   F. Weigend, Phys. Chem. Chem. Phys. 8, 1057 (2006).

================================================================================
                                        WARNINGS
                       Please study these warnings very carefully!
================================================================================

WARNING: Old DensityContainer found on disk!
         Will remove this file - 
         If you want to keep old densities, please start your calculation with a different basename. 


================================================================================
                                       INPUT FILE
================================================================================
NAME = sp.inp
|  1> ! pbe def2-sv(p) def2/J RI DEFGRID1 loosescf d4 GCP(DFT/SV(P)) printgap
|  2> %output
|  3>     printlevel normal
|  4> end
|  5> * xyz 0 1
|  6> C 4.9340195457 -3.395986259 -1.4981024
|  7> C 3.8193894802 -2.8571655174 -0.6231286009
|  8> O 3.0796105958 -1.8861664756 -1.3914708288
|  9> C 2.278395443 -1.0656086766 -0.7587879334
| 10> O 2.1033243519 -1.0645499762 0.4453945379
| 11> C 1.5977254872 -0.089022817 -1.6939859629
| 12> C 0.3590385949 0.4736835197 -1.013214426
| 13> H -0.0489295012 1.3240833777 -1.5674143169
| 14> C 0.6590635296 0.9323067363 0.4017830429
| 15> O -0.0646420617 0.6612433158 1.3423099608
| 16> O 1.6941815325 1.7243914193 0.459195013
| 17> C 2.0470479693 2.26350667 1.7506317909
| 18> C 3.1363373747 3.2963703312 1.5443477598
| 19> S -0.9456142165 -0.7988872009 -0.9033907673
| 20> P -2.3595727375 0.2625177238 0.2697862897
| 21> S -2.3823269963 2.2134310559 0.1113430904
| 22> O -3.7110452446 -0.3903438174 -0.322966835
| 23> C -4.1588500509 -0.1075578655 -1.6508491022
| 24> O -2.4903209112 -0.3004866818 1.7418635041
| 25> C -2.2626663681 -1.6828899404 2.0665982469
| 26> H 5.605545191 -2.5932912152 -1.7874191426
| 27> H 5.4905770497 -4.1467661546 -0.9472527806
| 28> H 4.516511911 -3.8444007491 -2.3942191879
| 29> H 4.2019262328 -2.3691611376 0.2786344642
| 30> H 3.1255044398 -3.6473518494 -0.3214824849
| 31> H 1.3431978093 -0.5891649785 -2.6274183736
| 32> H 2.2961902755 0.7236320807 -1.9048081457
| 33> H 1.1463660916 2.6969046234 2.1973352984
| 34> H 2.3801665664 1.4309343579 2.378186753
| 35> H 4.0081174351 2.8339881707 1.0919822936
| 36> H 2.7779015806 4.0892332426 0.8947510439
| 37> H 3.4117890476 3.7181725372 2.5050660702
| 38> H -4.1336539343 0.9687020095 -1.8309414986
| 39> H -5.1797237614 -0.4772147359 -1.7008287327
| 40> H -3.5251753687 -0.6220521793 -2.3732423483
| 41> H -1.1950329464 -1.8967539328 2.002242009
| 42> H -2.8231282887 -2.3283086706 1.3914311917
| 43> H -2.6116106511 -1.7943252163 3.0898641028
| 44> *
| 45> 
| 46>                          ****END OF INPUT****
================================================================================

                       ****************************
                       * Single Point Calculation *
                       ****************************

---------------------------------
CARTESIAN COORDINATES (ANGSTROEM)
---------------------------------
  C      4.934020   -3.395986   -1.498102
  C      3.819389   -2.857166   -0.623129
  O      3.079611   -1.886166   -1.391471
  C      2.278395   -1.065609   -0.758788
  O      2.103324   -1.064550    0.445395
  C      1.597725   -0.089023   -1.693986
  C      0.359039    0.473684   -1.013214
  H     -0.048930    1.324083   -1.567414
  C      0.659064    0.932307    0.401783
  O     -0.064642    0.661243    1.342310
  O      1.694182    1.724391    0.459195
  C      2.047048    2.263507    1.750632
  C      3.136337    3.296370    1.544348
  S     -0.945614   -0.798887   -0.903391
  P     -2.359573    0.262518    0.269786
  S     -2.382327    2.213431    0.111343
  O     -3.711045   -0.390344   -0.322967
  C     -4.158850   -0.107558   -1.650849
  O     -2.490321   -0.300487    1.741864
  C     -2.262666   -1.682890    2.066598
  H      5.605545   -2.593291   -1.787419
  H      5.490577   -4.146766   -0.947253
  H      4.516512   -3.844401   -2.394219
  H      4.201926   -2.369161    0.278634
  H      3.125504   -3.647352   -0.321482
  H      1.343198   -0.589165   -2.627418
  H      2.296190    0.723632   -1.904808
  H      1.146366    2.696905    2.197335
  H      2.380167    1.430934    2.378187
  H      4.008117    2.833988    1.091982
  H      2.777902    4.089233    0.894751
  H      3.411789    3.718173    2.505066
  H     -4.133654    0.968702   -1.830941
  H     -5.179724   -0.477215   -1.700829
  H     -3.525175   -0.622052   -2.373242
  H     -1.195033   -1.896754    2.002242
  H     -2.823128   -2.328309    1.391431
  H     -2.611611   -1.794325    3.089864

----------------------------
CARTESIAN COORDINATES (A.U.)
----------------------------
  NO LB      ZA    FRAG     MASS         X           Y           Z
   0 C     6.0000    0    12.011    9.323946   -6.417484   -2.831003
   1 C     6.0000    0    12.011    7.217600   -5.399260   -1.177542
   2 O     8.0000    0    15.999    5.819621   -3.564338   -2.629499
   3 C     6.0000    0    12.011    4.305543   -2.013709   -1.433901
   4 O     8.0000    0    15.999    3.974707   -2.011708    0.841674
   5 C     6.0000    0    12.011    3.019264   -0.168229   -3.201170
   6 C     6.0000    0    12.011    0.678485    0.895132   -1.914698
   7 H     1.0000    0     1.008   -0.092463    2.502155   -2.961984
   8 C     6.0000    0    12.011    1.245450    1.761804    0.759260
   9 O     8.0000    0    15.999   -0.122156    1.249569    2.536598
  10 O     8.0000    0    15.999    3.201539    3.258628    0.867753
  11 C     6.0000    0    12.011    3.868360    4.277408    3.308215
  12 C     6.0000    0    12.011    5.926819    6.229237    2.918394
  13 S    16.0000    0    32.060   -1.786952   -1.509678   -1.707161
  14 P    15.0000    0    30.974   -4.458946    0.496087    0.509822
  15 S    16.0000    0    32.060   -4.501946    4.182779    0.210408
  16 O     8.0000    0    15.999   -7.012859   -0.737643   -0.610319
  17 C     6.0000    0    12.011   -7.859088   -0.203255   -3.119653
  18 O     8.0000    0    15.999   -4.706025   -0.567838    3.291645
  19 C     6.0000    0    12.011   -4.275820   -3.180201    3.905305
  20 H     1.0000    0     1.008   10.592945   -4.900610   -3.377733
  21 H     1.0000    0     1.008   10.375687   -7.836252   -1.790048
  22 H     1.0000    0     1.008    8.534971   -7.264865   -4.524419
  23 H     1.0000    0     1.008    7.940490   -4.477066    0.526543
  24 H     1.0000    0     1.008    5.906347   -6.892496   -0.607514
  25 H     1.0000    0     1.008    2.538276   -1.113360   -4.965101
  26 H     1.0000    0     1.008    4.339171    1.367466   -3.599566
  27 H     1.0000    0     1.008    2.166318    5.096411    4.152362
  28 H     1.0000    0     1.008    4.497863    2.704074    4.494122
  29 H     1.0000    0     1.008    7.574244    5.355462    2.063547
  30 H     1.0000    0     1.008    5.249473    7.727531    1.690834
  31 H     1.0000    0     1.008    6.447347    7.026328    4.733889
  32 H     1.0000    0     1.008   -7.811474    1.830582   -3.459978
  33 H     1.0000    0     1.008   -9.788259   -0.901805   -3.214101
  34 H     1.0000    0     1.008   -6.661616   -1.175508   -4.484778
  35 H     1.0000    0     1.008   -2.258285   -3.584345    3.783689
  36 H     1.0000    0     1.008   -5.334939   -4.399866    2.629424
  37 H     1.0000    0     1.008   -4.935229   -3.390783    5.838997

--------------------------------
INTERNAL COORDINATES (ANGSTROEM)
--------------------------------
 C      0   0   0     0.000000000000     0.00000000     0.00000000
 C      1   0   0     1.516016861254     0.00000000     0.00000000
 O      2   1   0     1.442380572580   107.99382024     0.00000000
 C      3   2   1     1.309789474957   118.56595050   195.86529745
 O      4   3   2     1.216842813173   124.51139661   359.62359978
 C      4   3   2     1.513812037302   112.38273531   178.73905175
 C      6   4   3     1.521326238507   109.16394594   160.03709845
 H      7   6   4     1.093963164369   111.37527795   168.67666298
 C      7   6   4     1.517421514689   111.59760353    47.72205864
 O      9   7   6     1.217298666764   122.38685868   225.50433270
 O      9   7   6     1.304669904337   112.42032905    50.89496092
 C     11   9   7     1.443249433421   117.39614738   177.85014288
 C     12  11   9     1.515226667146   107.97326942   188.03286350
 S      7   6   4     1.825819386805   110.54356737   288.50278491
 P     14   7   6     2.121839654723    99.25183708   173.67695941
 S     15  14   7     1.957468986488   117.48690089    29.05085511
 O     15  14   7     1.613710753595    98.77870459   148.73649643
 C     17  15  14     1.429604265061   121.56686825   289.83910043
 O     15  14   7     1.581480436429   113.05840425   250.69543149
 C     19  15  14     1.438164807511   122.63505696   330.24679078
 H      1   2   3     1.085803943254   110.22760149    61.25288536
 H      1   2   3     1.084832710647   109.27565404   181.32034055
 H      1   2   3     1.085547547333   109.90598710   301.26288099
 H      2   1   3     1.094376200112   112.15174485   240.44516606
 H      2   1   3     1.094011548325   111.63862831   118.49129591
 H      6   4   3     1.089138460377   109.77293949    37.80145407
 H      6   4   3     1.092111274556   108.16336540   278.97094048
 H     12  11   9     1.094808501265   108.16968256   309.61701520
 H     12  11   9     1.094518106322   107.65705218    66.69665743
 H     13  12  11     1.085556194340   110.10317029   299.63594889
 H     13  12  11     1.085856209668   109.99067674    59.86597731
 H     13  12  11     1.084790485314   109.08822257   179.67804096
 H     18  17  15     1.091514284867   109.94179192   312.02454204
 H     18  17  15     1.086888815882   105.64335078   192.83943427
 H     18  17  15     1.090000001745   109.88420543    73.27892808
 H     20  19  15     1.090743166714   109.27413793    72.12046002
 H     20  19  15     1.089281163962   110.37370149   310.35921318
 H     20  19  15     1.086854610886   105.08904131   190.67391643

---------------------------
INTERNAL COORDINATES (A.U.)
---------------------------
 C      0   0   0     0.000000000000     0.00000000     0.00000000
 C      1   0   0     2.864856682177     0.00000000     0.00000000
 O      2   1   0     2.725704263064   107.99382024     0.00000000
 C      3   2   1     2.475143400761   118.56595050   195.86529745
 O      4   3   2     2.299499664928   124.51139661   359.62359978
 C      4   3   2     2.860690168734   112.38273531   178.73905175
 C      6   4   3     2.874889951128   109.16394594   160.03709845
 H      7   6   4     2.067290781255   111.37527795   168.67666298
 C      7   6   4     2.867511092481   111.59760353    47.72205864
 O      9   7   6     2.300361103372   122.38685868   225.50433270
 O      9   7   6     2.465468814365   112.42032905    50.89496092
 C     11   9   7     2.727346172103   117.39614738   177.85014288
 C     12  11   9     2.863363431721   107.97326942   188.03286350
 S      7   6   4     3.450298611065   110.54356737   288.50278491
 P     14   7   6     4.009695847521    99.25183708   173.67695941
 S     15  14   7     3.699080300107   117.48690089    29.05085511
 O     15  14   7     3.049471383657    98.77870459   148.73649643
 C     17  15  14     2.701560540852   121.56686825   289.83910043
 O     15  14   7     2.988564911004   113.05840425   250.69543149
 C     19  15  14     2.717737621639   122.63505696   330.24679078
 H      1   2   3     2.051872087881   110.22760149    61.25288536
 H      1   2   3     2.050036724242   109.27565404   181.32034055
 H      1   2   3     2.051387569809   109.90598710   301.26288099
 H      2   1   3     2.068071305694   112.15174485   240.44516606
 H      2   1   3     2.067382213681   111.63862831   118.49129591
 H      6   4   3     2.058173412033   109.77293949    37.80145407
 H      6   4   3     2.063791216678   108.16336540   278.97094048
 H     12  11   9     2.068888236479   108.16968256   309.61701520
 H     12  11   9     2.068339469566   107.65705218    66.69665743
 H     13  12  11     2.051403910284   110.10317029   299.63594889
 H     13  12  11     2.051970857090   109.99067674    59.86597731
 H     13  12  11     2.049956929927   109.08822257   179.67804096
 H     18  17  15     2.062663069661   109.94179192   312.02454204
 H     18  17  15     2.053922200039   105.64335078   192.83943427
 H     18  17  15     2.059801489272   109.88420543    73.27892808
 H     20  19  15     2.061205867535   109.27413793    72.12046002
 H     20  19  15     2.058443082728   110.37370149   310.35921318
 H     20  19  15     2.053857561964   105.08904131   190.67391643

---------------------
BASIS SET INFORMATION
---------------------
There are 5 groups of distinct atoms

 Group   1 Type C   : 7s4p1d contracted to 3s2p1d pattern {511/31/1}
 Group   2 Type O   : 7s4p1d contracted to 3s2p1d pattern {511/31/1}
 Group   3 Type H   : 4s contracted to 2s pattern {31}
 Group   4 Type S   : 10s7p1d contracted to 4s3p1d pattern {5311/511/1}
 Group   5 Type P   : 10s7p1d contracted to 4s3p1d pattern {5311/511/1}

Atom   0C    basis set group =>   1
Atom   1C    basis set group =>   1
Atom   2O    basis set group =>   2
Atom   3C    basis set group =>   1
Atom   4O    basis set group =>   2
Atom   5C    basis set group =>   1
Atom   6C    basis set group =>   1
Atom   7H    basis set group =>   3
Atom   8C    basis set group =>   1
Atom   9O    basis set group =>   2
Atom  10O    basis set group =>   2
Atom  11C    basis set group =>   1
Atom  12C    basis set group =>   1
Atom  13S    basis set group =>   4
Atom  14P    basis set group =>   5
Atom  15S    basis set group =>   4
Atom  16O    basis set group =>   2
Atom  17C    basis set group =>   1
Atom  18O    basis set group =>   2
Atom  19C    basis set group =>   1
Atom  20H    basis set group =>   3
Atom  21H    basis set group =>   3
Atom  22H    basis set group =>   3
Atom  23H    basis set group =>   3
Atom  24H    basis set group =>   3
Atom  25H    basis set group =>   3
Atom  26H    basis set group =>   3
Atom  27H    basis set group =>   3
Atom  28H    basis set group =>   3
Atom  29H    basis set group =>   3
Atom  30H    basis set group =>   3
Atom  31H    basis set group =>   3
Atom  32H    basis set group =>   3
Atom  33H    basis set group =>   3
Atom  34H    basis set group =>   3
Atom  35H    basis set group =>   3
Atom  36H    basis set group =>   3
Atom  37H    basis set group =>   3
---------------------------------
AUXILIARY/J BASIS SET INFORMATION
---------------------------------
There are 5 groups of distinct atoms

 Group   1 Type C   : 12s5p4d2f1g contracted to 6s4p3d1f1g pattern {711111/2111/211/2/1}
 Group   2 Type O   : 12s5p4d2f1g contracted to 6s4p3d1f1g pattern {711111/2111/211/2/1}
 Group   3 Type H   : 5s2p1d contracted to 3s1p1d pattern {311/2/1}
 Group   4 Type S   : 14s5p5d2f1g contracted to 8s4p3d1f1g pattern {71111111/2111/311/2/1}
 Group   5 Type P   : 14s5p5d2f1g contracted to 8s4p3d1f1g pattern {71111111/2111/311/2/1}

Atom   0C    basis set group =>   1
Atom   1C    basis set group =>   1
Atom   2O    basis set group =>   2
Atom   3C    basis set group =>   1
Atom   4O    basis set group =>   2
Atom   5C    basis set group =>   1
Atom   6C    basis set group =>   1
Atom   7H    basis set group =>   3
Atom   8C    basis set group =>   1
Atom   9O    basis set group =>   2
Atom  10O    basis set group =>   2
Atom  11C    basis set group =>   1
Atom  12C    basis set group =>   1
Atom  13S    basis set group =>   4
Atom  14P    basis set group =>   5
Atom  15S    basis set group =>   4
Atom  16O    basis set group =>   2
Atom  17C    basis set group =>   1
Atom  18O    basis set group =>   2
Atom  19C    basis set group =>   1
Atom  20H    basis set group =>   3
Atom  21H    basis set group =>   3
Atom  22H    basis set group =>   3
Atom  23H    basis set group =>   3
Atom  24H    basis set group =>   3
Atom  25H    basis set group =>   3
Atom  26H    basis set group =>   3
Atom  27H    basis set group =>   3
Atom  28H    basis set group =>   3
Atom  29H    basis set group =>   3
Atom  30H    basis set group =>   3
Atom  31H    basis set group =>   3
Atom  32H    basis set group =>   3
Atom  33H    basis set group =>   3
Atom  34H    basis set group =>   3
Atom  35H    basis set group =>   3
Atom  36H    basis set group =>   3
Atom  37H    basis set group =>   3

Checking for AutoStart:
The File: sp.gbw exists
Trying to determine its content:
     ... Fine, the file contains calculation information
     ... Fine, the calculation information was read
     ... Fine, the file contains a basis set
     ... Fine, the basis set was read
     ... Fine, the file contains a geometry
     ... Fine, the geometry was read
     ... Fine, the file contains a set of orbitals
     ... Fine, the orbitals can be read
     => possible old guess file was deleted
     => GBW file was renamed to GES file
     => GES file is set as startup file
     => Guess is set to MORead
     ... now leaving AutoStart

------------------------------------------------------------------------------
                             ORCA STARTUP CALCULATIONS
                           -- RI-GTO INTEGRALS CHOSEN --
------------------------------------------------------------------------------
------------------------------------------------------------------------------
                   ___                                                        
                  /   \      - P O W E R E D   B Y -                         
                 /     \                                                     
                 |  |  |   _    _      __       _____    __    __             
                 |  |  |  | |  | |    /  \     |  _  \  |  |  /  |          
                  \  \/   | |  | |   /    \    | | | |  |  | /  /          
                 / \  \   | |__| |  /  /\  \   | |_| |  |  |/  /          
                |  |  |   |  __  | /  /__\  \  |    /   |      \           
                |  |  |   | |  | | |   __   |  |    \   |  |\   \          
                \     /   | |  | | |  |  |  |  | |\  \  |  | \   \       
                 \___/    |_|  |_| |__|  |__|  |_| \__\ |__|  \__/        
                                                                              
                      - O R C A' S   B I G   F R I E N D -                    
                                      &                                       
                       - I N T E G R A L  F E E D E R -                       
                                                                              
 v1 FN, 2020, v2 2021, v3 2022-2024                                           
------------------------------------------------------------------------------


----------------------
SHARK INTEGRAL PACKAGE
----------------------

Number of atoms                             ...     38
Number of basis functions                   ...    316
Number of shells                            ...    158
Maximum angular momentum                    ...      2
Integral batch strategy                     ... SHARK/LIBINT Hybrid
RI-J (if used) integral strategy            ... SPLIT-RIJ (Revised 2003 algorithm where possible)
Printlevel                                  ...      1
Contraction scheme used                     ... SEGMENTED contraction
Prescreening option                         ... SCHWARTZ
   Thresh                                   ... 1.000e-09
   Tcut                                     ... 1.000e-10
   Tpresel                                  ... 1.000e-10 
Coulomb Range Separation                    ... NOT USED
Exchange Range Separation                   ... NOT USED
Multipole approximations                    ... NOT USED
Finite Nucleus Model                        ... NOT USED
CABS basis                                  ... NOT available
Auxiliary Coulomb fitting basis             ... AVAILABLE
   # of basis functions in Aux-J            ...   1146
   # of shells in Aux-J                     ...    386
   Maximum angular momentum in Aux-J        ...      4
Auxiliary J/K fitting basis                 ... NOT available
Auxiliary Correlation fitting basis         ... NOT available
Auxiliary 'external' fitting basis          ... NOT available

Checking pre-screening integrals            ... done (  0.0 sec) Dimension = 158
Check shell pair data                       ... done (  0.0 sec)
Shell pair information
Shell pair cut-off parameter TPreSel        ...   1.0e-10
Total number of shell pairs                 ...     12561
Shell pairs after pre-screening             ...      8946
Total number of primitive shell pairs       ...     52337
Primitive shell pairs kept                  ...     21972
          la=0 lb=0:   3339 shell pairs
          la=1 lb=0:   3029 shell pairs
          la=1 lb=1:    714 shell pairs
          la=2 lb=0:   1189 shell pairs
          la=2 lb=1:    564 shell pairs
          la=2 lb=2:    111 shell pairs

Calculating one electron integrals          ... done (  0.1 sec)
Calculating RI/J V-Matrix + Cholesky decomp.... done (  0.1 sec)
Calculating Nuclear repulsion               ... done (  0.0 sec) ENN=   2144.710691878832 Eh

Diagonalization of the overlap matrix:
Smallest eigenvalue                        ... 1.234e-03
Time for diagonalization                   ...    0.010 sec
Threshold for overlap eigenvalues          ... 1.000e-07
Number of eigenvalues below threshold      ... 0
Time for construction of square roots      ...    0.007 sec
Total time needed                          ...    0.018 sec

-------------------
DFT GRID GENERATION
-------------------

General Integration Accuracy     IntAcc      ... 4.159
Radial Grid Type                 RadialGrid  ... OptM3 with GC (2021)
Angular Grid (max. ang.)         AngularGrid ... 3 (Lebedev-194)
Angular grid pruning method      GridPruning ... 4 (adaptive)
Weight generation scheme         WeightScheme... mBecke (2022)
Basis function cutoff            BFCut       ... 1.0000e-10
Integration weight cutoff        WCut        ... 1.0000e-14
Partially contracted basis set               ... off
Rotationally invariant grid construction     ... off
Angular grids for H and He will be reduced by one unit

Total number of grid points                  ...    91080
Total number of batches                      ...     1443
Average number of points per batch           ...       63
Average number of grid points per atom       ...     2397
Initializing property integral containers    ... done (  0.0 sec)

SHARK setup successfully completed in   1.1 seconds

Maximum memory used throughout the entire STARTUP-calculation: 49.1 MB
-------------------------------------------------------------------------------
                                 ORCA GUESS
                   Start orbitals & Density for SCF / CASSCF
-------------------------------------------------------------------------------

------------
SCF SETTINGS
------------
Hamiltonian:
 Density Functional     Method          .... DFT(GTOs)
 Exchange Functional    Exchange        .... PBE
   PBE kappa parameter   XKappa         ....  0.804000
   PBE mue parameter    XMuePBE         ....  0.219520
 Correlation Functional Correlation     .... PBE
   PBE beta parameter  CBetaPBE         ....  0.066725
 LDA part of GGA corr.  LDAOpt          .... PW91-LDA
 Gradients option       PostSCFGGA      .... off
   NL short-range parameter             ....  6.400000
 RI-approximation to the Coulomb term is turned on
   Number of AuxJ basis functions       .... 1146


General Settings:
 Integral files         IntName         .... sp
 Hartree-Fock type      HFTyp           .... RHF
 Total Charge           Charge          ....    0
 Multiplicity           Mult            ....    1
 Number of Electrons    NEL             ....  174
 Basis Dimension        Dim             ....  316
 Nuclear Repulsion      ENuc            ....   2144.7106918788 Eh

Convergence Acceleration:
 AO-DIIS                CNVDIIS         .... on
   Start iteration      DIISMaxIt       ....    12
   Startup error        DIISStart       ....  0.200000
   # of expansion vecs  DIISMaxEq       ....     5
   Bias factor          DIISBfac        ....   1.050
   Max. coefficient     DIISMaxC        ....  10.000
 MO-DIIS                CNVKDIIS        .... off
 Trust-Rad. Augm. Hess. CNVTRAH         .... auto
   Auto Start mean grad. ratio tolernc. ....  1.125000
   Auto Start start iteration           ....     1
   Auto Start num. interpolation iter.  ....    10
   Max. Number of Micro iterations      ....    24
   Max. Number of Macro iterations      .... Maxiter - #DIIS iter
   Number of Davidson start vectors     ....     2
   Converg. threshold    (grad. norm)   ....   1.000e-04
   Grad. Scal. Fac. for Micro threshold ....   0.100
   Minimum threshold for Micro iter.    ....   1.000e-02
   NR start threshold (gradient norm)   ....   1.000e-04
   Initial trust radius                 ....   0.400
   Minimum AH scaling param. (alpha)    ....   1.000
   Maximum AH scaling param. (alpha)    .... 1000.000
   Quad. conv. algorithm                .... NR
   White noise on init. David. guess    .... on
   Maximum white noise                  ....   0.010
   Pseudo random numbers                .... off
   Inactive MOs                         .... canonical
   Orbital update algorithm             .... Taylor
   Preconditioner                       .... Diag
   Full preconditioner red. dimension   ....   250
 SOSCF                  CNVSOSCF        .... on
   Start iteration      SOSCFMaxIt      ....   150
   Startup grad/error   SOSCFStart      ....  0.003300
   Hessian update       SOSCFHessUp     .... L-BFGS
 Level Shifting         CNVShift        .... on
   Level shift para.    LevelShift      ....    0.2500
   Turn off err/grad.   ShiftErr        ....    0.0010
 Zerner damping         CNVZerner       .... off
 Static damping         CNVDamp         .... on
   Fraction old density DampFac         ....    0.7000
   Max. Damping (<1)    DampMax         ....    0.9800
   Min. Damping (>=0)   DampMin         ....    0.0000
   Turn off err/grad.   DampErr         ....    0.1000

SCF Procedure:
 Maximum # iterations   MaxIter         ....   125
 SCF integral mode      SCFMode         .... Direct
   Integral package                     .... SHARK and LIBINT hybrid scheme
 Reset frequency        DirectResetFreq ....    20
 Integral Threshold     Thresh          ....  1.000e-09 Eh
 Primitive CutOff       TCut            ....  1.000e-10 Eh

Convergence Tolerance:
 Convergence Check Mode ConvCheckMode   .... Total+1el-Energy
 Convergence forced     ConvForced      .... 0
 Energy Change          TolE            ....  1.000e-05 Eh
 1-El. energy change                    ....  1.000e-02 Eh
 Orbital Gradient       TolG            ....  1.000e-04
 Orbital Rotation angle TolX            ....  1.000e-04
 DIIS Error             TolErr          ....  5.000e-04

---------------------
INITIAL GUESS: MOREAD
---------------------
Guess MOs are being read from file: sp.ges
Input Geometry matches current geometry (good)
Input basis set matches current basis set (good)
Occupation numbers will be reassigned to an Aufbau configuration
MOs were renormalized
MOs were reorthogonalized (Cholesky)
                      ------------------
                      INITIAL GUESS DONE (   0.0 sec)
                      ------------------
             **** ENERGY FILE WAS UPDATED (sp.en.tmp) ****
Finished Guess after   0.1 sec
Maximum memory used throughout the entire GUESS-calculation: 24.4 MB

-------------------------------------------------------------------------------------------
                                      ORCA LEAN-SCF
                              memory conserving SCF solver
-------------------------------------------------------------------------------------------

----------------------------------------D-I-I-S--------------------------------------------
Iteration    Energy (Eh)           Delta-E    RMSDP     MaxDP     DIISErr   Damp  Time(sec)
-------------------------------------------------------------------------------------------
               ***  Starting incremental Fock matrix formation  ***
                              *** Initializing SOSCF ***
---------------------------------------S-O-S-C-F--------------------------------------
Iteration    Energy (Eh)           Delta-E    RMSDP     MaxDP     MaxGrad    Time(sec)
--------------------------------------------------------------------------------------
    1    -1979.1437726875574299     0.00e+00  9.75e-06  4.27e-04  4.35e-05     1.8
               *** Restarting incremental Fock matrix formation ***
    2    -1979.1437727140591960    -2.65e-08  1.58e-05  7.85e-04  1.07e-04     1.8
    3    -1979.1437707154727832     2.00e-06  1.17e-05  6.25e-04  3.64e-04     1.3
                 **** Energy Check signals convergence ****

               *****************************************************
               *                     SUCCESS                       *
               *           SCF CONVERGED AFTER   3 CYCLES          *
               *****************************************************

             **** ENERGY FILE WAS UPDATED (sp.en.tmp) ****

----------------
TOTAL SCF ENERGY
----------------

Total Energy       :      -1979.14377071547278 Eh          -53855.23995 eV

Components:
Nuclear Repulsion  :       2144.71069187883222 Eh           58360.54492 eV
Electronic Energy  :      -4123.85446259430501 Eh         -112215.78487 eV
One Electron Energy:      -6994.07153012524850 Eh         -190318.36193 eV
Two Electron Energy:       2870.21706753094350 Eh           78102.57707 eV

Virial components:
Potential Energy   :      -3949.30326445168066 Eh         -107466.00529 eV
Kinetic Energy     :       1970.15949373620765 Eh           53610.76534 eV
Virial Ratio       :          2.00456017749214

DFT components:
N(Alpha)           :       87.000131679792 electrons
N(Beta)            :       87.000131679792 electrons
N(Total)           :      174.000263359585 electrons
E(X)               :     -180.020035506440 Eh       
E(C)               :       -6.127450240557 Eh       
E(XC)              :     -186.147485746997 Eh       

---------------
SCF CONVERGENCE
---------------

  Last Energy change         ...   -1.9986e-06  Tolerance :   1.0000e-05
  Last MAX-Density change    ...    6.2452e-04  Tolerance :   1.0000e-03
  Last RMS-Density change    ...    1.1694e-05  Tolerance :   1.0000e-04
  Last DIIS Error            ...    1.9318e-04  Tolerance :   5.0000e-04
  Last Orbital Gradient      ...    3.6407e-04  Tolerance :   1.0000e-04
  Last Orbital Rotation      ...    3.7966e-04  Tolerance :   1.0000e-04


----------------
ORBITAL ENERGIES
----------------

  NO   OCC          E(Eh)            E(eV) 
   0   2.0000     -88.031670     -2395.4635 
   1   2.0000     -87.963564     -2393.6103 
   2   2.0000     -76.412265     -2079.2834 
   3   2.0000     -18.818273      -512.0712 
   4   2.0000     -18.806154      -511.7415 
   5   2.0000     -18.772840      -510.8349 
   6   2.0000     -18.770047      -510.7589 
   7   2.0000     -18.754132      -510.3259 
   8   2.0000     -18.733124      -509.7542 
   9   2.0000     -10.024257      -272.7739 
  10   2.0000     -10.012451      -272.4526 
  11   2.0000      -9.960646      -271.0429 
  12   2.0000      -9.946051      -270.6458 
  13   2.0000      -9.944483      -270.6031 
  14   2.0000      -9.934217      -270.3238 
  15   2.0000      -9.927637      -270.1447 
  16   2.0000      -9.923788      -270.0400 
  17   2.0000      -9.899467      -269.3782 
  18   2.0000      -9.888807      -269.0881 
  19   2.0000      -7.676447      -208.8867 
  20   2.0000      -7.609015      -207.0518 
  21   2.0000      -6.407938      -174.3689 
  22   2.0000      -5.704265      -155.2210 
  23   2.0000      -5.701104      -155.1349 
  24   2.0000      -5.693385      -154.9249 
  25   2.0000      -5.638252      -153.4246 
  26   2.0000      -5.629732      -153.1928 
  27   2.0000      -5.628672      -153.1640 
  28   2.0000      -4.630566      -126.0041 
  29   2.0000      -4.630195      -125.9940 
  30   2.0000      -4.628285      -125.9420 
  31   2.0000      -1.027566       -27.9615 
  32   2.0000      -1.014506       -27.6061 
  33   2.0000      -0.966559       -26.3014 
  34   2.0000      -0.930630       -25.3237 
  35   2.0000      -0.921807       -25.0836 
  36   2.0000      -0.914034       -24.8721 
  37   2.0000      -0.765640       -20.8341 
  38   2.0000      -0.724114       -19.7041 
  39   2.0000      -0.707247       -19.2452 
  40   2.0000      -0.687350       -18.7038 
  41   2.0000      -0.657707       -17.8971 
  42   2.0000      -0.621189       -16.9034 
  43   2.0000      -0.615842       -16.7579 
  44   2.0000      -0.604147       -16.4397 
  45   2.0000      -0.593897       -16.1608 
  46   2.0000      -0.557782       -15.1780 
  47   2.0000      -0.522574       -14.2200 
  48   2.0000      -0.510595       -13.8940 
  49   2.0000      -0.497040       -13.5251 
  50   2.0000      -0.484238       -13.1768 
  51   2.0000      -0.469488       -12.7754 
  52   2.0000      -0.456446       -12.4205 
  53   2.0000      -0.452246       -12.3062 
  54   2.0000      -0.445228       -12.1153 
  55   2.0000      -0.429164       -11.6782 
  56   2.0000      -0.417763       -11.3679 
  57   2.0000      -0.415441       -11.3047 
  58   2.0000      -0.410846       -11.1797 
  59   2.0000      -0.405457       -11.0330 
  60   2.0000      -0.400329       -10.8935 
  61   2.0000      -0.397862       -10.8264 
  62   2.0000      -0.385719       -10.4959 
  63   2.0000      -0.379639       -10.3305 
  64   2.0000      -0.370235       -10.0746 
  65   2.0000      -0.366184        -9.9644 
  66   2.0000      -0.361055        -9.8248 
  67   2.0000      -0.360441        -9.8081 
  68   2.0000      -0.353730        -9.6255 
  69   2.0000      -0.350661        -9.5420 
  70   2.0000      -0.332820        -9.0565 
  71   2.0000      -0.325957        -8.8697 
  72   2.0000      -0.317085        -8.6283 
  73   2.0000      -0.313720        -8.5368 
  74   2.0000      -0.308516        -8.3951 
  75   2.0000      -0.302108        -8.2208 
  76   2.0000      -0.282385        -7.6841 
  77   2.0000      -0.280170        -7.6238 
  78   2.0000      -0.276507        -7.5241 
  79   2.0000      -0.261578        -7.1179 
  80   2.0000      -0.254340        -6.9210 
  81   2.0000      -0.242599        -6.6015 
  82   2.0000      -0.238020        -6.4769 
  83   2.0000      -0.224554        -6.1104 
  84   2.0000      -0.212998        -5.7960 
  85   2.0000      -0.186411        -5.0725 
  86   2.0000      -0.177460        -4.8289 
  87   0.0000      -0.040989        -1.1154 
  88   0.0000      -0.027248        -0.7414 
  89   0.0000      -0.017098        -0.4653 
  90   0.0000       0.012392         0.3372 
  91   0.0000       0.030820         0.8387 
  92   0.0000       0.040005         1.0886 
  93   0.0000       0.044781         1.2186 
  94   0.0000       0.054017         1.4699 
  95   0.0000       0.060262         1.6398 
  96   0.0000       0.067581         1.8390 
  97   0.0000       0.068407         1.8614 
*Only the first 10 virtual orbitals were printed.

                    ********************************
                    * MULLIKEN POPULATION ANALYSIS *
                    ********************************

-----------------------
MULLIKEN ATOMIC CHARGES
-----------------------
   0 C :   -0.276249
   1 C :   -0.031756
   2 O :   -0.221804
   3 C :    0.113543
   4 O :   -0.197439
   5 C :   -0.096458
   6 C :   -0.281183
   7 H :    0.146577
   8 C :    0.231749
   9 O :   -0.197740
  10 O :   -0.235561
  11 C :   -0.025893
  12 C :   -0.275323
  13 S :   -0.107589
  14 P :    0.617094
  15 S :   -0.341375
  16 O :   -0.392587
  17 C :   -0.096376
  18 O :   -0.353091
  19 C :   -0.098117
  20 H :    0.117185
  21 H :    0.115973
  22 H :    0.118887
  23 H :    0.113311
  24 H :    0.112949
  25 H :    0.128520
  26 H :    0.139988
  27 H :    0.121652
  28 H :    0.110495
  29 H :    0.110037
  30 H :    0.118298
  31 H :    0.113240
  32 H :    0.111093
  33 H :    0.117603
  34 H :    0.104018
  35 H :    0.130235
  36 H :    0.110528
  37 H :    0.125569
Sum of atomic charges:    0.0000000

--------------------------------
MULLIKEN REDUCED ORBITAL CHARGES
--------------------------------
  0 C s       :     3.086572  s :     3.086572
      pz      :     1.051492  p :     3.161918
      px      :     1.041463
      py      :     1.068963
      dz2     :     0.004014  d :     0.027760
      dxz     :     0.006542
      dyz     :     0.006916
      dx2y2   :     0.002284
      dxy     :     0.008004

  1 C s       :     3.088921  s :     3.088921
      pz      :     0.979219  p :     2.884363
      px      :     0.987813
      py      :     0.917330
      dz2     :     0.009060  d :     0.058472
      dxz     :     0.011621
      dyz     :     0.013541
      dx2y2   :     0.007999
      dxy     :     0.016251

  2 O s       :     3.727145  s :     3.727145
      pz      :     1.605481  p :     4.478117
      px      :     1.475094
      py      :     1.397543
      dz2     :     0.002521  d :     0.016541
      dxz     :     0.004064
      dyz     :     0.004617
      dx2y2   :     0.002659
      dxy     :     0.002681

  3 C s       :     3.060954  s :     3.060954
      pz      :     0.934025  p :     2.692641
      px      :     0.863727
      py      :     0.894890
      dz2     :     0.028819  d :     0.132861
      dxz     :     0.036345
      dyz     :     0.041428
      dx2y2   :     0.014029
      dxy     :     0.012241

  4 O s       :     3.765197  s :     3.765197
      pz      :     1.305229  p :     4.414688
      px      :     1.522138
      py      :     1.587321
      dz2     :     0.007673  d :     0.017554
      dxz     :     0.004962
      dyz     :     0.004503
      dx2y2   :     0.000191
      dxy     :     0.000225

  5 C s       :     2.969165  s :     2.969165
      pz      :     1.053398  p :     3.094726
      px      :     0.989554
      py      :     1.051774
      dz2     :     0.006231  d :     0.032567
      dxz     :     0.005809
      dyz     :     0.007373
      dx2y2   :     0.003768
      dxy     :     0.009386

  6 C s       :     3.151319  s :     3.151319
      pz      :     1.071248  p :     3.088186
      px      :     1.001509
      py      :     1.015428
      dz2     :     0.008081  d :     0.041678
      dxz     :     0.007152
      dyz     :     0.009025
      dx2y2   :     0.007222
      dxy     :     0.010198

  7 H s       :     0.853423  s :     0.853423

  8 C s       :     3.017395  s :     3.017395
      pz      :     0.963359  p :     2.618383
      px      :     0.828017
      py      :     0.827007
      dz2     :     0.036598  d :     0.132474
      dxz     :     0.025277
      dyz     :     0.020335
      dx2y2   :     0.024292
      dxy     :     0.025972

  9 O s       :     3.766928  s :     3.766928
      pz      :     1.466673  p :     4.413196
      px      :     1.442859
      py      :     1.503663
      dz2     :     0.004308  d :     0.017616
      dxz     :     0.005655
      dyz     :     0.003620
      dx2y2   :     0.002125
      dxy     :     0.001909

 10 O s       :     3.731224  s :     3.731224
      pz      :     1.478168  p :     4.487619
      px      :     1.480771
      py      :     1.528680
      dz2     :     0.004548  d :     0.016718
      dxz     :     0.002641
      dyz     :     0.002474
      dx2y2   :     0.003129
      dxy     :     0.003926

 11 C s       :     3.089917  s :     3.089917
      pz      :     0.792549  p :     2.877477
      px      :     1.057038
      py      :     1.027889
      dz2     :     0.012554  d :     0.058500
      dxz     :     0.012413
      dyz     :     0.016628
      dx2y2   :     0.007792
      dxy     :     0.009112

 12 C s       :     3.081735  s :     3.081735
      pz      :     1.063966  p :     3.165762
      px      :     1.048550
      py      :     1.053245
      dz2     :     0.004323  d :     0.027826
      dxz     :     0.004514
      dyz     :     0.007025
      dx2y2   :     0.005351
      dxy     :     0.006612

 13 S s       :     5.882582  s :     5.882582
      pz      :     3.642854  p :    10.153607
      px      :     3.161347
      py      :     3.349406
      dz2     :     0.010270  d :     0.071400
      dxz     :     0.012337
      dyz     :     0.010444
      dx2y2   :     0.011076
      dxy     :     0.027273

 14 P s       :     5.221414  s :     5.221414
      pz      :     2.829025  p :     8.580222
      px      :     2.835639
      py      :     2.915558
      dz2     :     0.116535  d :     0.581270
      dxz     :     0.117205
      dyz     :     0.125199
      dx2y2   :     0.104623
      dxy     :     0.117708

 15 S s       :     5.915408  s :     5.915408
      pz      :     3.681087  p :    10.384099
      px      :     3.699040
      py      :     3.003971
      dz2     :     0.005755  d :     0.041869
      dxz     :     0.000498
      dyz     :     0.009127
      dx2y2   :     0.017623
      dxy     :     0.008866

 16 O s       :     3.763596  s :     3.763596
      pz      :     1.392374  p :     4.616032
      px      :     1.501112
      py      :     1.722546
      dz2     :     0.003768  d :     0.012959
      dxz     :     0.002141
      dyz     :     0.002432
      dx2y2   :     0.002206
      dxy     :     0.002413

 17 C s       :     3.115939  s :     3.115939
      pz      :     0.773711  p :     2.927896
      px      :     1.052954
      py      :     1.101231
      dz2     :     0.016903  d :     0.052541
      dxz     :     0.011910
      dyz     :     0.011024
      dx2y2   :     0.008465
      dxy     :     0.004240

 18 O s       :     3.755523  s :     3.755523
      pz      :     1.447970  p :     4.584020
      px      :     1.773960
      py      :     1.362091
      dz2     :     0.004447  d :     0.013548
      dxz     :     0.001983
      dyz     :     0.002746
      dx2y2   :     0.002549
      dxy     :     0.001823

 19 C s       :     3.124765  s :     3.124765
      pz      :     1.075569  p :     2.921161
      px      :     1.102106
      py      :     0.743486
      dz2     :     0.010112  d :     0.052190
      dxz     :     0.004064
      dyz     :     0.011009
      dx2y2   :     0.015169
      dxy     :     0.011837

 20 H s       :     0.882815  s :     0.882815

 21 H s       :     0.884027  s :     0.884027

 22 H s       :     0.881113  s :     0.881113

 23 H s       :     0.886689  s :     0.886689

 24 H s       :     0.887051  s :     0.887051

 25 H s       :     0.871480  s :     0.871480

 26 H s       :     0.860012  s :     0.860012

 27 H s       :     0.878348  s :     0.878348

 28 H s       :     0.889505  s :     0.889505

 29 H s       :     0.889963  s :     0.889963

 30 H s       :     0.881702  s :     0.881702

 31 H s       :     0.886760  s :     0.886760

 32 H s       :     0.888907  s :     0.888907

 33 H s       :     0.882397  s :     0.882397

 34 H s       :     0.895982  s :     0.895982

 35 H s       :     0.869765  s :     0.869765

 36 H s       :     0.889472  s :     0.889472

 37 H s       :     0.874431  s :     0.874431


------------------------
MULLIKEN OVERLAP CHARGES
------------------------
B(  0-C ,  1-C ) :   0.8651 B(  0-C ,  2-O ) :  -0.1063 B(  0-C , 20-H ) :   0.7475 
B(  0-C , 21-H ) :   0.7218 B(  0-C , 22-H ) :   0.7339 B(  0-C , 23-H ) :  -0.0503 
B(  0-C , 24-H ) :  -0.0511 B(  1-C ,  2-O ) :   0.5314 B(  1-C ,  3-C ) :  -0.0747 
B(  1-C , 23-H ) :   0.7285 B(  1-C , 24-H ) :   0.7517 B(  2-O ,  3-C ) :   0.7781 
B(  2-O ,  4-O ) :  -0.1477 B(  2-O ,  5-C ) :  -0.2439 B(  2-O , 23-H ) :  -0.0656 
B(  2-O , 24-H ) :  -0.0581 B(  3-C ,  4-O ) :   1.3264 B(  3-C ,  5-C ) :   0.4641 
B(  3-C ,  6-C ) :  -0.0719 B(  4-O ,  5-C ) :  -0.2605 B(  4-O ,  8-C ) :   0.1098 
B(  5-C ,  6-C ) :   0.3132 B(  5-C , 13-S ) :  -0.1142 B(  5-C , 25-H ) :   0.6318 
B(  5-C , 26-H ) :   0.5746 B(  6-C ,  7-H ) :   0.5591 B(  6-C ,  8-C ) :   0.0886 
B(  6-C ,  9-O ) :  -0.2507 B(  6-C , 10-O ) :  -0.2590 B(  6-C , 13-S ) :   0.4815 
B(  6-C , 14-P ) :  -0.0603 B(  7-H , 15-S ) :   0.0564 B(  8-C ,  9-O ) :   1.3126 
B(  8-C , 10-O ) :   0.7542 B(  8-C , 11-C ) :  -0.0839 B(  8-C , 13-S ) :  -0.1349 
B(  9-O , 10-O ) :  -0.1377 B(  9-O , 14-P ) :   0.0746 B( 10-O , 11-C ) :   0.5496 
B( 10-O , 12-C ) :  -0.1049 B( 10-O , 27-H ) :  -0.0616 B( 10-O , 28-H ) :  -0.0640 
B( 11-C , 12-C ) :   0.8484 B( 11-C , 27-H ) :   0.7378 B( 11-C , 28-H ) :   0.7402 
B( 12-C , 28-H ) :  -0.0586 B( 12-C , 29-H ) :   0.7318 B( 12-C , 30-H ) :   0.7400 
B( 12-C , 31-H ) :   0.7185 B( 13-S , 14-P ) :   0.5119 B( 13-S , 15-S ) :  -0.0860 
B( 13-S , 16-O ) :  -0.0791 B( 13-S , 18-O ) :  -0.0523 B( 14-P , 15-S ) :   0.9232 
B( 14-P , 16-O ) :   0.6173 B( 14-P , 17-C ) :  -0.0888 B( 14-P , 18-O ) :   0.6529 
B( 14-P , 19-C ) :  -0.0647 B( 15-S , 16-O ) :  -0.0694 B( 15-S , 32-H ) :   0.0758 
B( 16-O , 17-C ) :   0.5951 B( 16-O , 18-O ) :  -0.0771 B( 16-O , 32-H ) :  -0.0727 
B( 16-O , 33-H ) :  -0.0564 B( 16-O , 34-H ) :  -0.0683 B( 17-C , 32-H ) :   0.7167 
B( 17-C , 33-H ) :   0.7551 B( 17-C , 34-H ) :   0.7424 B( 18-O , 19-C ) :   0.5584 
B( 18-O , 35-H ) :  -0.0629 B( 18-O , 36-H ) :  -0.0625 B( 18-O , 37-H ) :  -0.0530 
B( 19-C , 35-H ) :   0.7473 B( 19-C , 36-H ) :   0.7420 B( 19-C , 37-H ) :   0.7649 
B( 20-H , 22-H ) :  -0.0513 B( 23-H , 24-H ) :  -0.0777 B( 27-H , 28-H ) :  -0.0752 
B( 29-H , 30-H ) :  -0.0537 B( 32-H , 34-H ) :  -0.0603 B( 33-H , 34-H ) :  -0.0542 
B( 35-H , 36-H ) :  -0.0670 B( 36-H , 37-H ) :  -0.0504 


                     *******************************
                     * LOEWDIN POPULATION ANALYSIS *
                     *******************************

----------------------
LOEWDIN ATOMIC CHARGES
----------------------
   0 C :   -0.350249
   1 C :   -0.105189
   2 O :   -0.052719
   3 C :    0.034813
   4 O :   -0.147591
   5 C :   -0.251545
   6 C :   -0.262951
   7 H :    0.143443
   8 C :    0.012333
   9 O :   -0.159835
  10 O :   -0.050396
  11 C :   -0.102189
  12 C :   -0.350910
  13 S :    0.087908
  14 P :    0.591506
  15 S :   -0.336083
  16 O :   -0.271832
  17 C :   -0.221956
  18 O :   -0.232198
  19 C :   -0.207780
  20 H :    0.127720
  21 H :    0.132916
  22 H :    0.128651
  23 H :    0.119598
  24 H :    0.120756
  25 H :    0.142678
  26 H :    0.155973
  27 H :    0.124557
  28 H :    0.120325
  29 H :    0.124002
  30 H :    0.128106
  31 H :    0.132056
  32 H :    0.106980
  33 H :    0.118340
  34 H :    0.101850
  35 H :    0.116896
  36 H :    0.108116
  37 H :    0.123898

-------------------------------
LOEWDIN REDUCED ORBITAL CHARGES
-------------------------------
  0 C s       :     2.948500  s :     2.948500
      pz      :     1.111862  p :     3.332832
      px      :     1.097657
      py      :     1.123312
      dz2     :     0.009467  d :     0.068917
      dxz     :     0.017570
      dyz     :     0.016699
      dx2y2   :     0.004978
      dxy     :     0.020203

  1 C s       :     2.926009  s :     2.926009
      pz      :     1.040787  p :     3.049290
      px      :     1.032591
      py      :     0.975913
      dz2     :     0.018538  d :     0.129890
      dxz     :     0.028815
      dyz     :     0.030936
      dx2y2   :     0.016104
      dxy     :     0.035498

  2 O s       :     3.443012  s :     3.443012
      pz      :     1.642231  p :     4.576176
      px      :     1.497624
      py      :     1.436322
      dz2     :     0.004239  d :     0.033531
      dxz     :     0.007696
      dyz     :     0.009071
      dx2y2   :     0.004803
      dxy     :     0.007723

  3 C s       :     2.842146  s :     2.842146
      pz      :     1.030403  p :     2.821543
      px      :     0.882054
      py      :     0.909085
      dz2     :     0.070061  d :     0.301497
      dxz     :     0.082517
      dyz     :     0.094549
      dx2y2   :     0.026918
      dxy     :     0.027452

  4 O s       :     3.550827  s :     3.550827
      pz      :     1.452231  p :     4.565673
      px      :     1.527977
      py      :     1.585465
      dz2     :     0.016832  d :     0.031090
      dxz     :     0.007272
      dyz     :     0.006412
      dx2y2   :     0.000265
      dxy     :     0.000309

  5 C s       :     2.916107  s :     2.916107
      pz      :     1.090042  p :     3.250032
      px      :     1.065067
      py      :     1.094924
      dz2     :     0.014909  d :     0.085405
      dxz     :     0.017206
      dyz     :     0.020369
      dx2y2   :     0.009455
      dxy     :     0.023465

  6 C s       :     2.949476  s :     2.949476
      pz      :     1.099633  p :     3.213006
      px      :     1.045989
      py      :     1.067384
      dz2     :     0.022167  d :     0.100469
      dxz     :     0.017461
      dyz     :     0.021339
      dx2y2   :     0.015181
      dxy     :     0.024320

  7 H s       :     0.856557  s :     0.856557

  8 C s       :     2.848144  s :     2.848144
      pz      :     1.039080  p :     2.834437
      px      :     0.918154
      py      :     0.877203
      dz2     :     0.088304  d :     0.305085
      dxz     :     0.061298
      dyz     :     0.043934
      dx2y2   :     0.051004
      dxy     :     0.060545

  9 O s       :     3.551316  s :     3.551316
      pz      :     1.560631  p :     4.576970
      px      :     1.504208
      py      :     1.512131
      dz2     :     0.007506  d :     0.031549
      dxz     :     0.012049
      dyz     :     0.005284
      dx2y2   :     0.003459
      dxy     :     0.003251

 10 O s       :     3.435761  s :     3.435761
      pz      :     1.512007  p :     4.580739
      px      :     1.524317
      py      :     1.544415
      dz2     :     0.009097  d :     0.033896
      dxz     :     0.005295
      dyz     :     0.005069
      dx2y2   :     0.005113
      dxy     :     0.009322

 11 C s       :     2.926644  s :     2.926644
      pz      :     0.871040  p :     3.045948
      px      :     1.100806
      py      :     1.074102
      dz2     :     0.028709  d :     0.129597
      dxz     :     0.026472
      dyz     :     0.036406
      dx2y2   :     0.014641
      dxy     :     0.023370

 12 C s       :     2.948157  s :     2.948157
      pz      :     1.126036  p :     3.333723
      px      :     1.102006
      py      :     1.105681
      dz2     :     0.011033  d :     0.069030
      dxz     :     0.011093
      dyz     :     0.017266
      dx2y2   :     0.011226
      dxy     :     0.018411

 13 S s       :     5.631564  s :     5.631564
      pz      :     3.620794  p :    10.189262
      px      :     3.167404
      py      :     3.401063
      dz2     :     0.013833  d :     0.091266
      dxz     :     0.016182
      dyz     :     0.012055
      dx2y2   :     0.012735
      dxy     :     0.036460

 14 P s       :     5.069390  s :     5.069390
      pz      :     2.799874  p :     8.536131
      px      :     2.818908
      py      :     2.917349
      dz2     :     0.168101  d :     0.802972
      dxz     :     0.159028
      dyz     :     0.169851
      dx2y2   :     0.144671
      dxy     :     0.161322

 15 S s       :     5.763633  s :     5.763633
      pz      :     3.688524  p :    10.515681
      px      :     3.696817
      py      :     3.130340
      dz2     :     0.009008  d :     0.056769
      dxz     :     0.000491
      dyz     :     0.010039
      dx2y2   :     0.027550
      dxy     :     0.009681

 16 O s       :     3.507228  s :     3.507228
      pz      :     1.446535  p :     4.740741
      px      :     1.552911
      py      :     1.741295
      dz2     :     0.007444  d :     0.023864
      dxz     :     0.004397
      dyz     :     0.004206
      dx2y2   :     0.003500
      dxy     :     0.004317

 17 C s       :     2.971274  s :     2.971274
      pz      :     0.866753  p :     3.134444
      px      :     1.113524
      py      :     1.154168
      dz2     :     0.037332  d :     0.116238
      dxz     :     0.025779
      dyz     :     0.023378
      dx2y2   :     0.020532
      dxy     :     0.009217

 18 O s       :     3.497735  s :     3.497735
      pz      :     1.520598  p :     4.710215
      px      :     1.769327
      py      :     1.420291
      dz2     :     0.008734  d :     0.024249
      dxz     :     0.002571
      dyz     :     0.005163
      dx2y2   :     0.004688
      dxy     :     0.003093

 19 C s       :     2.971763  s :     2.971763
      pz      :     1.133358  p :     3.121829
      px      :     1.151904
      py      :     0.836567
      dz2     :     0.023592  d :     0.114188
      dxz     :     0.008951
      dyz     :     0.022972
      dx2y2   :     0.033571
      dxy     :     0.025101

 20 H s       :     0.872280  s :     0.872280

 21 H s       :     0.867084  s :     0.867084

 22 H s       :     0.871349  s :     0.871349

 23 H s       :     0.880402  s :     0.880402

 24 H s       :     0.879244  s :     0.879244

 25 H s       :     0.857322  s :     0.857322

 26 H s       :     0.844027  s :     0.844027

 27 H s       :     0.875443  s :     0.875443

 28 H s       :     0.879675  s :     0.879675

 29 H s       :     0.875998  s :     0.875998

 30 H s       :     0.871894  s :     0.871894

 31 H s       :     0.867944  s :     0.867944

 32 H s       :     0.893020  s :     0.893020

 33 H s       :     0.881660  s :     0.881660

 34 H s       :     0.898150  s :     0.898150

 35 H s       :     0.883104  s :     0.883104

 36 H s       :     0.891884  s :     0.891884

 37 H s       :     0.876102  s :     0.876102


---------------------------------
LOEWDIN BOND ORDERS (THRESH 0.050000)
---------------------------------
B(  0-C ,  1-C ) :   1.1582 B(  0-C ,  2-O ) :   0.0553 B(  0-C , 20-H ) :   0.9375 
B(  0-C , 21-H ) :   0.9294 B(  0-C , 22-H ) :   0.9363 B(  1-C ,  2-O ) :   1.0506 
B(  1-C ,  3-C ) :   0.0778 B(  1-C , 23-H ) :   0.9101 B(  1-C , 24-H ) :   0.9156 
B(  2-O ,  3-C ) :   1.4498 B(  2-O ,  4-O ) :   0.2037 B(  2-O ,  5-C ) :   0.0727 
B(  3-C ,  4-O ) :   2.1545 B(  3-C ,  5-C ) :   1.0435 B(  3-C ,  6-C ) :   0.0613 
B(  4-O ,  5-C ) :   0.0940 B(  4-O ,  8-C ) :   0.0772 B(  5-C ,  6-C ) :   1.0664 
B(  5-C ,  8-C ) :   0.0576 B(  5-C , 13-S ) :   0.0512 B(  5-C , 25-H ) :   0.8867 
B(  5-C , 26-H ) :   0.8706 B(  6-C ,  7-H ) :   0.8574 B(  6-C ,  8-C ) :   1.0136 
B(  6-C ,  9-O ) :   0.0929 B(  6-C , 10-O ) :   0.0672 B(  6-C , 13-S ) :   1.1087 
B(  8-C ,  9-O ) :   2.1219 B(  8-C , 10-O ) :   1.4383 B(  8-C , 11-C ) :   0.0784 
B(  8-C , 13-S ) :   0.0723 B(  9-O , 10-O ) :   0.1845 B(  9-O , 14-P ) :   0.1018 
B( 10-O , 11-C ) :   1.0453 B( 10-O , 12-C ) :   0.0548 B( 11-C , 12-C ) :   1.1585 
B( 11-C , 27-H ) :   0.9098 B( 11-C , 28-H ) :   0.9132 B( 12-C , 29-H ) :   0.9376 
B( 12-C , 30-H ) :   0.9370 B( 12-C , 31-H ) :   0.9297 B( 13-S , 14-P ) :   1.0256 
B( 13-S , 15-S ) :   0.1244 B( 13-S , 16-O ) :   0.0654 B( 13-S , 18-O ) :   0.0624 
B( 14-P , 15-S ) :   1.7197 B( 14-P , 16-O ) :   1.2102 B( 14-P , 17-C ) :   0.0636 
B( 14-P , 18-O ) :   1.2902 B( 14-P , 19-C ) :   0.0665 B( 15-S , 16-O ) :   0.0848 
B( 15-S , 18-O ) :   0.0638 B( 16-O , 17-C ) :   1.1412 B( 16-O , 18-O ) :   0.0542 
B( 17-C , 32-H ) :   0.9379 B( 17-C , 33-H ) :   0.9506 B( 17-C , 34-H ) :   0.9470 
B( 18-O , 19-C ) :   1.1181 B( 19-C , 35-H ) :   0.9456 B( 19-C , 36-H ) :   0.9494 
B( 19-C , 37-H ) :   0.9501 

------------------------------------------
LOEWDIN REDUCED ORBITAL POPULATIONS PER MO
-------------------------------------------
THRESHOLD FOR PRINTING IS 0.1%%
                      0         1         2         3         4         5   
                 -88.03167 -87.96356 -76.41227 -18.81827 -18.80615 -18.77284
                   2.00000   2.00000   2.00000   2.00000   2.00000   2.00000
                  --------  --------  --------  --------  --------  --------
 2 O  s               0.0       0.0       0.0      99.9       0.0       0.0
10 O  s               0.0       0.0       0.0       0.0      99.9       0.0
13 S  s             100.0       0.0       0.0       0.0       0.0       0.0
14 P  s               0.0       0.0     100.0       0.0       0.0       0.0
15 S  s               0.0     100.0       0.0       0.0       0.0       0.0
18 O  s               0.0       0.0       0.0       0.0       0.0      99.9

                      6         7         8         9        10        11   
                 -18.77005 -18.75413 -18.73312 -10.02426 -10.01245  -9.96065
                   2.00000   2.00000   2.00000   2.00000   2.00000   2.00000
                  --------  --------  --------  --------  --------  --------
 1 C  s               0.0       0.0       0.0       0.0       0.0      99.7
 3 C  s               0.0       0.0       0.0      99.3       0.0       0.0
 4 O  s               0.0      99.9       0.0       0.0       0.0       0.0
 4 O  pz              0.0       0.0       0.0       0.3       0.0       0.0
 8 C  s               0.0       0.0       0.0       0.0      99.3       0.0
 9 O  s               0.0       0.0      99.9       0.0       0.0       0.0
 9 O  pz              0.0       0.0       0.0       0.0       0.2       0.0
10 O  px              0.0       0.0       0.0       0.0       0.1       0.0
16 O  s              99.9       0.0       0.0       0.0       0.0       0.0

                     12        13        14        15        16        17   
                  -9.94605  -9.94448  -9.93422  -9.92764  -9.92379  -9.89947
                   2.00000   2.00000   2.00000   2.00000   2.00000   2.00000
                  --------  --------  --------  --------  --------  --------
 0 C  s               0.0       0.0       0.0       0.0       0.0      99.7
 5 C  s               0.0       0.0       0.0       0.0      99.6       0.0
 6 C  s               0.0      99.6       0.0       0.0       0.0       0.0
 8 C  pz              0.0       0.1       0.0       0.0       0.0       0.0
11 C  s              99.7       0.0       0.0       0.0       0.0       0.0
17 C  s               0.0       0.0       0.0      99.7       0.0       0.0
19 C  s               0.0       0.0      99.7       0.0       0.0       0.0

                     18        19        20        21        22        23   
                  -9.88881  -7.67645  -7.60902  -6.40794  -5.70427  -5.70110
                   2.00000   2.00000   2.00000   2.00000   2.00000   2.00000
                  --------  --------  --------  --------  --------  --------
12 C  s              99.7       0.0       0.0       0.0       0.0       0.0
13 S  s               0.0      99.8       0.0       0.0       0.0       0.0
13 S  pz              0.0       0.0       0.0       0.0      15.3      18.7
13 S  px              0.0       0.0       0.0       0.0      79.5       0.2
13 S  py              0.0       0.0       0.0       0.0       5.2      81.1
14 P  s               0.0       0.0       0.0      99.4       0.0       0.0
14 P  py              0.0       0.0       0.1       0.0       0.0       0.0
15 S  s               0.0       0.0      99.9       0.0       0.0       0.0
15 S  py              0.0       0.0       0.0       0.1       0.0       0.0
16 O  px              0.0       0.0       0.0       0.1       0.0       0.0
18 O  pz              0.0       0.0       0.0       0.2       0.0       0.0

                     24        25        26        27        28        29   
                  -5.69339  -5.63825  -5.62973  -5.62867  -4.63057  -4.63020
                   2.00000   2.00000   2.00000   2.00000   2.00000   2.00000
                  --------  --------  --------  --------  --------  --------
13 S  pz             66.0       0.0       0.0       0.0       0.0       0.0
13 S  px             20.3       0.0       0.0       0.0       0.0       0.0
13 S  py             13.7       0.0       0.0       0.0       0.0       0.0
14 P  pz              0.0       0.0       0.0       0.0      94.8       3.3
14 P  px              0.0       0.0       0.0       0.0       2.5      94.6
14 P  py              0.0       0.0       0.0       0.0       2.6       2.1
15 S  pz              0.0       0.5      66.7      32.9       0.0       0.0
15 S  px              0.0       1.1      33.3      65.6       0.0       0.0
15 S  py              0.0      98.4       0.0       1.6       0.0       0.0

                     30        31        32        33        34        35   
                  -4.62828  -1.02757  -1.01451  -0.96656  -0.93063  -0.92181
                   2.00000   2.00000   2.00000   2.00000   2.00000   2.00000
                  --------  --------  --------  --------  --------  --------
 0 C  s               0.0       0.2       0.0       0.0       0.2       0.0
 0 C  px              0.0       0.3       0.0       0.0       0.2       0.0
 0 C  py              0.0       0.1       0.0       0.0       0.1       0.0
 1 C  s               0.0       4.2       0.2       0.0       2.0       0.0
 1 C  pz              0.0       1.0       0.1       0.0       0.8       0.0
 1 C  px              0.0       1.6       0.1       0.0       0.3       0.0
 1 C  py              0.0       2.6       0.1       0.0       0.5       0.0
 1 C  dyz             0.0       0.1       0.0       0.0       0.1       0.0
 1 C  dxy             0.0       0.2       0.0       0.0       0.1       0.0
 2 O  s               0.0      39.9       2.2       0.0      14.3       0.0
 2 O  pz              0.0       2.5       0.1       0.0       0.2       0.0
 2 O  px              0.0       0.4       0.0       0.0       0.2       0.0
 2 O  py              0.0       0.3       0.0       0.0       0.2       0.0
 3 C  s               0.0      18.4       0.5       0.0       5.0       0.0
 3 C  pz              0.0       0.1       0.0       0.0      19.3       0.0
 3 C  px              0.0       2.0       0.2       0.0       3.2       0.0
 3 C  py              0.0       2.8       0.3       0.0       1.7       0.0
 3 C  dz2             0.0       0.1       0.0       0.0       1.7       0.0
 3 C  dxz             0.0       0.3       0.0       0.0       0.0       0.0
 3 C  dyz             0.0       0.2       0.0       0.0       0.1       0.0
 3 C  dxy             0.0       0.5       0.0       0.0       0.1       0.0
 4 O  s               0.0      10.5       0.1       0.0      41.4       0.1
 4 O  pz              0.0       2.4       0.0       0.0       4.4       0.0
 4 O  px              0.0       0.1       0.0       0.0       0.0       0.0
 4 O  dz2             0.0       0.1       0.0       0.0       0.2       0.0
 5 C  s               0.0       1.1       0.0       0.0       0.3       0.0
 5 C  pz              0.0       0.6       0.1       0.0       0.6       0.0
 5 C  px              0.0       0.4       0.1       0.0       0.0       0.0
 5 C  py              0.0       0.8       0.2       0.0       0.0       0.0
 6 C  s               0.0       0.2       1.0       0.0       0.1       0.0
 6 C  pz              0.0       0.1       1.4       0.0       0.0       0.0
 6 C  px              0.0       0.1       0.1       0.0       0.1       0.0
 6 C  py              0.0       0.0       0.2       0.0       0.1       0.0
 7 H  s               0.0       0.0       0.2       0.0       0.0       0.0
 8 C  s               0.0       0.9      17.8       0.0       0.0       0.4
 8 C  pz              0.0       0.0       1.4       0.0       0.0       0.5
 8 C  px              0.0       0.2       1.9       0.1       0.1       1.2
 8 C  py              0.0       0.0       1.9       0.0       0.5       0.3
 8 C  dx2y2           0.0       0.0       0.1       0.0       0.0       0.0
 8 C  dxy             0.0       0.0       0.9       0.0       0.0       0.0
 9 O  s               0.0       0.3       9.1       0.2       0.1       3.5
 9 O  pz              0.0       0.0       1.1       0.0       0.0       0.2
 9 O  px              0.0       0.0       1.0       0.0       0.0       0.1
 9 O  py              0.0       0.0       0.2       0.0       0.0       0.0
10 O  s               0.0       1.4      41.1       0.2       0.7       1.1
10 O  pz              0.0       0.0       0.8       0.0       0.0       0.0
10 O  px              0.0       0.1       1.8       0.0       0.0       0.0
10 O  py              0.0       0.0       0.6       0.0       0.0       0.0
11 C  s               0.0       0.1       4.3       0.0       0.1       0.1
11 C  pz              0.0       0.1       3.8       0.0       0.1       0.1
11 C  px              0.0       0.0       0.6       0.0       0.0       0.0
11 C  py              0.0       0.0       0.9       0.0       0.0       0.0
11 C  dz2             0.0       0.0       0.2       0.0       0.0       0.0
11 C  dyz             0.0       0.0       0.2       0.0       0.0       0.0
12 C  s               0.0       0.0       0.2       0.0       0.0       0.0
12 C  px              0.0       0.0       0.2       0.0       0.0       0.0
12 C  py              0.0       0.0       0.3       0.0       0.0       0.0
13 S  s               0.0       0.0       0.1       0.3       0.0       0.0
13 S  pz              0.0       0.0       0.0       0.1       0.0       0.0
13 S  px              0.0       0.0       0.0       0.2       0.0       0.0
14 P  s               0.0       0.0       0.1      13.8       0.0       0.0
14 P  pz              1.8       0.0       0.0       1.3       0.0       6.7
14 P  px              2.9       0.0       0.1       1.9       0.0       3.1
14 P  py             95.3       0.0       0.0       2.1       0.0       0.0
14 P  dz2             0.0       0.0       0.0       0.3       0.0       1.0
14 P  dxz             0.0       0.0       0.0       0.1       0.0       0.5
14 P  dyz             0.0       0.0       0.0       0.2       0.0       0.8
14 P  dx2y2           0.0       0.0       0.0       0.0       0.0       0.4
14 P  dxy             0.0       0.0       0.0       0.3       0.0       0.3
15 S  s               0.0       0.0       0.0       0.3       0.0       0.0
15 S  py              0.0       0.0       0.0       0.4       0.0       0.0
16 O  s               0.0       0.0       0.0      23.8       0.0      33.8
16 O  pz              0.0       0.0       0.0       0.1       0.0       1.1
16 O  px              0.0       0.0       0.0       0.9       0.0       0.1
16 O  py              0.0       0.0       0.0       0.4       0.0       0.4
17 C  s               0.0       0.0       0.0       2.8       0.0       5.5
17 C  pz              0.0       0.0       0.0       2.6       0.0       4.0
17 C  px              0.0       0.0       0.0       0.5       0.0       0.6
17 C  py              0.0       0.0       0.0       0.1       0.0       0.2
17 C  dz2             0.0       0.0       0.0       0.2       0.0       0.3
17 C  dxz             0.0       0.0       0.0       0.1       0.0       0.1
18 O  s               0.0       0.0       0.0      33.0       0.0      22.3
18 O  pz              0.0       0.0       0.0       1.7       0.0       0.2
18 O  px              0.0       0.0       0.0       0.0       0.0       0.1
18 O  py              0.0       0.0       0.0       0.3       0.0       0.5
19 C  s               0.0       0.0       0.0       4.0       0.0       3.4
19 C  pz              0.0       0.0       0.0       0.5       0.0       0.2
19 C  px              0.0       0.0       0.0       0.1       0.0       0.0
19 C  py              0.0       0.0       0.0       3.9       0.0       2.7
[...]
                   0.00000   0.00000   0.00000   0.00000
                  --------  --------  --------  --------
 0 C  dxy             0.1       0.0       0.0       0.0
 1 C  s               0.2       0.0       0.0       0.0
 1 C  px              0.2       0.0       0.0       0.0
 1 C  py              0.2       0.0       0.0       0.0
 1 C  dz2             0.5       0.1       0.4       0.0
 1 C  dxz             0.2       0.0       0.2       0.0
 1 C  dyz             0.1       0.0       0.4       0.0
 1 C  dxy             0.5       0.0       0.0       0.0
 2 O  s               0.9       0.1       0.6       0.0
 2 O  pz              0.2       0.0       0.2       0.0
 2 O  px              1.5       0.1       0.1       0.0
 2 O  py              2.0       0.2       0.1       0.0
 2 O  dz2             1.9       0.6       6.4       0.4
 2 O  dxz            10.5       0.6       0.0       0.0
 2 O  dyz            14.5       1.0       0.0       0.0
 2 O  dx2y2           0.0       0.0       0.2       0.0
 2 O  dxy             6.0       1.0       8.9       0.4
 3 C  s               0.1       0.1       5.8       0.4
 3 C  pz              3.3       0.0       2.8       0.2
 3 C  px              0.9       0.1       0.0       0.0
 3 C  py              0.6       0.1       0.1       0.0
 3 C  dz2             3.3       0.0       5.7       0.4
 3 C  dxz             3.9       0.8       4.8       0.3
 3 C  dyz             7.1       1.1       3.2       0.2
 3 C  dxy             1.9       0.1       0.0       0.0
 4 O  s               1.4       0.0       3.3       0.1
 4 O  pz              1.0       0.0       2.8       0.2
 4 O  px              0.4       0.1       0.0       0.0
 4 O  py              0.5       0.1       0.1       0.0
 4 O  dz2             8.7       0.0      40.5       3.2
 4 O  dxz             9.3       0.9       0.0       0.0
 4 O  dyz             7.6       1.4       3.1       0.3
 4 O  dx2y2           0.2       0.2       0.0       0.0
 4 O  dxy             0.0       0.0       0.1       0.2
 5 C  s               0.1       0.0       0.0       0.0
 5 C  py              0.1       0.0       0.1       0.0
 5 C  dz2             0.6       0.2       0.1       0.0
 5 C  dxz             0.2       0.0       0.2       0.1
 5 C  dyz             0.0       0.1       0.3       0.0
 5 C  dxy             0.5       0.1       0.0       0.0
 6 C  pz              0.0       0.1       0.0       0.1
 6 C  px              0.0       0.1       0.0       0.0
 6 C  dz2             0.1       0.0       0.1       0.3
 6 C  dxz             0.0       0.8       0.1       0.0
 6 C  dyz             0.0       0.4       0.0       0.0
 8 C  s               0.2       0.3       0.3       7.2
 8 C  pz              0.0       0.9       0.3       2.2
 8 C  px              0.3       3.1       0.2       0.5
 8 C  py              0.1       1.2       0.1       0.0
 8 C  dz2             0.9       9.0       0.0       0.7
 8 C  dxz             0.0       0.9       0.7       5.2
 8 C  dyz             0.0       0.0       0.2       2.5
 8 C  dx2y2           0.0       0.3       0.0       1.4
 8 C  dxy             0.3       4.5       0.0       3.9
 9 O  s               0.2       1.5       0.3       3.9
 9 O  pz              0.0       0.2       0.2       2.3
 9 O  px              0.1       1.2       0.1       0.6
 9 O  py              0.0       0.4       0.0       0.0
 9 O  dz2             0.2       1.5       1.2      18.4
 9 O  dxz             0.8      11.2       3.1      22.5
 9 O  dyz             0.2       5.4       0.2       0.8
 9 O  dx2y2           0.3       2.1       0.2       1.5
 9 O  dxy             0.3       5.1       0.0       0.0
10 O  s               0.0       1.1       0.0       0.9
10 O  pz              0.1       0.7       0.0       0.4
10 O  px              0.1       1.8       0.0       0.2
10 O  py              0.1       1.4       0.0       0.3
10 O  dz2             1.6      16.5       0.1       1.9
10 O  dxz             0.0       0.0       0.6       4.9
10 O  dyz             0.0       0.3       0.6       2.9
10 O  dx2y2           0.2       0.9       0.1       0.0
10 O  dxy             1.0      14.9       0.0       6.3
11 C  s               0.0       0.3       0.0       0.0
11 C  pz              0.0       0.2       0.0       0.0
11 C  px              0.0       0.1       0.0       0.0
11 C  py              0.0       0.2       0.0       0.0
11 C  dz2             0.0       0.1       0.1       0.5
11 C  dxz             0.1       0.7       0.0       0.2
11 C  dyz             0.0       0.6       0.0       0.0


                      *****************************
                      * MAYER POPULATION ANALYSIS *
                      *****************************

  NA   - Mulliken gross atomic population
  ZA   - Total nuclear charge
  QA   - Mulliken gross atomic charge
  VA   - Mayer's total valence
  BVA  - Mayer's bonded valence
  FA   - Mayer's free valence

  ATOM       NA         ZA         QA         VA         BVA        FA
  0 C      6.2762     6.0000    -0.2762     4.0008     4.0008     0.0000
  1 C      6.0318     6.0000    -0.0318     4.0060     4.0060     0.0000
  2 O      8.2218     8.0000    -0.2218     2.2802     2.2802    -0.0000
  3 C      5.8865     6.0000     0.1135     4.3728     4.3728    -0.0000
  4 O      8.1974     8.0000    -0.1974     2.3127     2.3127     0.0000
  5 C      6.0965     6.0000    -0.0965     3.8661     3.8661     0.0000
  6 C      6.2812     6.0000    -0.2812     3.8796     3.8796     0.0000
  7 H      0.8534     1.0000     0.1466     0.9821     0.9821    -0.0000
  8 C      5.7683     6.0000     0.2317     4.2931     4.2931    -0.0000
  9 O      8.1977     8.0000    -0.1977     2.3096     2.3096    -0.0000
 10 O      8.2356     8.0000    -0.2356     2.2774     2.2774     0.0000
 11 C      6.0259     6.0000    -0.0259     4.0022     4.0022     0.0000
 12 C      6.2753     6.0000    -0.2753     3.9992     3.9992     0.0000
 13 S     16.1076    16.0000    -0.1076     2.2565     2.2565    -0.0000
 14 P     14.3829    15.0000     0.6171     4.9797     4.9797    -0.0000
 15 S     16.3414    16.0000    -0.3414     1.9923     1.9923    -0.0000
 16 O      8.3926     8.0000    -0.3926     2.1488     2.1488    -0.0000
 17 C      6.0964     6.0000    -0.0964     3.8173     3.8173     0.0000
 18 O      8.3531     8.0000    -0.3531     2.1831     2.1831     0.0000
 19 C      6.0981     6.0000    -0.0981     3.8300     3.8300    -0.0000
 20 H      0.8828     1.0000     0.1172     0.9585     0.9585     0.0000
 21 H      0.8840     1.0000     0.1160     0.9549     0.9549     0.0000
 22 H      0.8811     1.0000     0.1189     0.9573     0.9573     0.0000
 23 H      0.8867     1.0000     0.1133     0.9686     0.9686    -0.0000
 24 H      0.8871     1.0000     0.1129     0.9512     0.9512    -0.0000
 25 H      0.8715     1.0000     0.1285     0.9689     0.9689     0.0000
 26 H      0.8600     1.0000     0.1400     0.9661     0.9661     0.0000
 27 H      0.8783     1.0000     0.1217     0.9685     0.9685     0.0000
 28 H      0.8895     1.0000     0.1105     0.9594     0.9594     0.0000
 29 H      0.8900     1.0000     0.1100     0.9575     0.9575     0.0000
 30 H      0.8817     1.0000     0.1183     0.9584     0.9584    -0.0000
 31 H      0.8868     1.0000     0.1132     0.9556     0.9556     0.0000
 32 H      0.8889     1.0000     0.1111     1.0016     1.0016     0.0000
 33 H      0.8824     1.0000     0.1176     0.9556     0.9556     0.0000
 34 H      0.8960     1.0000     0.1040     0.9731     0.9731     0.0000
 35 H      0.8698     1.0000     0.1302     0.9709     0.9709     0.0000
 36 H      0.8895     1.0000     0.1105     0.9676     0.9676    -0.0000
 37 H      0.8744     1.0000     0.1256     0.9555     0.9555     0.0000

  Mayer bond orders larger than 0.100000
B(  0-C ,  1-C ) :   1.1559 B(  0-C , 20-H ) :   0.9513 B(  0-C , 21-H ) :   0.9434 
B(  0-C , 22-H ) :   0.9482 B(  1-C ,  2-O ) :   0.8978 B(  1-C , 23-H ) :   0.9253 
B(  1-C , 24-H ) :   0.9350 B(  2-O ,  3-C ) :   1.2583 B(  3-C ,  4-O ) :   1.9924 
B(  3-C ,  5-C ) :   0.9956 B(  4-O ,  8-C ) :   0.1035 B(  5-C ,  6-C ) :   1.0585 
B(  5-C , 25-H ) :   0.9026 B(  5-C , 26-H ) :   0.8740 B(  6-C ,  7-H ) :   0.8562 
B(  6-C ,  8-C ) :   0.8831 B(  6-C , 13-S ) :   1.0348 B(  8-C ,  9-O ) :   1.9641 
B(  8-C , 10-O ) :   1.2486 B(  9-O , 14-P ) :   0.1114 B( 10-O , 11-C ) :   0.8989 
B( 11-C , 12-C ) :   1.1528 B( 11-C , 27-H ) :   0.9276 B( 11-C , 28-H ) :   0.9314 
B( 12-C , 29-H ) :   0.9499 B( 12-C , 30-H ) :   0.9503 B( 12-C , 31-H ) :   0.9435 
B( 13-S , 14-P ) :   0.9346 B( 13-S , 15-S ) :   0.1093 B( 14-P , 15-S ) :   1.6106 
B( 14-P , 16-O ) :   1.0496 B( 14-P , 18-O ) :   1.1317 B( 16-O , 17-C ) :   0.9447 
B( 17-C , 32-H ) :   0.9319 B( 17-C , 33-H ) :   0.9592 B( 17-C , 34-H ) :   0.9456 
B( 18-O , 19-C ) :   0.9240 B( 19-C , 35-H ) :   0.9431 B( 19-C , 36-H ) :   0.9452 
B( 19-C , 37-H ) :   0.9595 

-------
TIMINGS
-------

Total SCF time: 0 days 0 hours 0 min 14 sec 

Total time                  ....      14.639 sec
Sum of individual times     ....      14.608 sec  ( 99.8%)

SCF preparation             ....       2.857 sec  ( 19.5%)
Fock matrix formation       ....       4.763 sec  ( 32.5%)
  Startup                   ....       0.009 sec  (  0.2% of F)
  Split-RI-J                ....       2.982 sec  ( 62.6% of F)
  XC integration            ....       1.731 sec  ( 36.3% of F)
    Basis function eval.    ....       0.700 sec  ( 40.5% of XC)
    Density eval.           ....       0.429 sec  ( 24.8% of XC)
    XC-Functional eval.     ....       0.099 sec  (  5.7% of XC)
    XC-Potential eval.      ....       0.417 sec  ( 24.1% of XC)
Diagonalization             ....       0.000 sec  (  0.0%)
Density matrix formation    ....       0.015 sec  (  0.1%)
Total Energy calculation    ....       0.001 sec  (  0.0%)
Population analysis         ....       6.879 sec  ( 47.0%)
Orbital Transformation      ....       0.019 sec  (  0.1%)
Orbital Orthonormalization  ....       0.000 sec  (  0.0%)
DIIS solution               ....       0.025 sec  (  0.2%)
  MO trafo                  ....       0.000 sec  (  0.0 % of DIIS)
  Orb grad                  ....       0.000 sec  (  0.0 % of DIIS)
  Energy W gradient         ....       0.000 sec  (  0.0 % of DIIS)
  DIIS error                ....       0.004 sec  ( 16.2 % of DIIS)
  DIIS work                 ....       0.021 sec  ( 82.7 % of DIIS)
  Form Q                    ....       0.000 sec  (  0.0 % of DIIS)
  Form QpQm                 ....       0.000 sec  (  0.0 % of DIIS)
  Exp/Cayley                ....       0.000 sec  (  0.0 % of DIIS)
  Orb update                ....       0.000 sec  (  0.0 % of DIIS)
  Wake-sleep                ....       0.000 sec  (  1.1 % of DIIS)
SOSCF solution              ....       0.048 sec  (  0.3%)
  MO trafo                  ....       0.030 sec  ( 62.8 % of SOSCF)
  Orb grad                  ....       0.000 sec  (  0.7 % of SOSCF)
  Rot update                ....       0.002 sec  (  5.0 % of SOSCF)
  Step                      ....       0.015 sec  ( 30.8 % of SOSCF)
Finished LeanSCF after  21.0 sec

Maximum memory used throughout the entire LEANSCF-calculation: 32.9 MB


-------------------------------------------------------------------------------
                          DFT DISPERSION CORRECTION                            
                                                                               
                                DFTD4 V3.4.0                                   
-------------------------------------------------------------------------------
The PBE functional is recognized
Active option DFTDOPT                   ...         5   

-------------------------   ----------------
Dispersion correction           -0.050666918
-------------------------   ----------------

------------------   -----------------
gCP correction             0.181663765
------------------   -----------------

-------------------------   --------------------
FINAL SINGLE POINT ENERGY     -1979.012773868276
-------------------------   --------------------


------------------------------------------------------------------------------
                              ORCA PROPERTY CALCULATIONS
------------------------------------------------------------------------------

GBWName                                 ... sp.gbw
Number of atoms                         ...     38
Number of basis functions               ...    316
Max core memory                         ...   1024 MB

Electric properties:
Dipole moment                           ... YES
Quadrupole moment                       ...  NO
Static polarizability (Dipole/Dipole)   ...  NO
Static polarizability (Dipole/Quad.)    ...  NO
Static polarizability (Quad./Quad.)     ...  NO
Static polarizability (Velocity)        ...  NO

Atomic electric properties:
Dipole moment                           ...  NO
Quadrupole moment                       ...  NO
Static polarizability                   ...  NO

Choice of electric origin               ... Center of mass
Position of electric origin             ...     0.000007    -0.000000    -0.000006

General magnetic properties:
Magnetizability                         ...  NO

EPR properties:
g-Tensor (aka g-matrix)                 ...  NO
Zero-Field splitting spin-orbit         ...  NO
Zero-field splitting spin-spin          ...  NO
Hyperfine couplings                     ...  NO (   0 nuclei)
Quadrupole couplings                    ...  NO (   0 nuclei)
Contact density                         ...  NO (   0 nuclei)

NMR properties:
Chemical shifts                         ...  NO (   0 nuclei)
Spin-rotation constants                 ...  NO (   0 nuclei)
Spin-spin couplings                     ...  NO (   0 nuclei,    0 pairs)

Choice of magnetic origin               ... GIAO
Position of magnetic origin             ...     0.000000     0.000000     0.000000

Properties with geometric perturbations:
SCF Hessian                             ...  NO
IR spectrum                             ...  NO
VCD spectrum                            ...  NO
X-ray spectroscopy properties:
SCF XES/XAS/RIXS spectra                ...  NO


-------------
DIPOLE MOMENT
-------------

Method             : SCF
Type of density    : Electron Density
Multiplicity       :   1
Irrep              :   0
Energy             : -1979.1437707154727832 Eh
Relativity type    : 
Basis              : AO
                                X                 Y                 Z
Electronic contribution:    -19.713348314       5.175972713       0.943528005
Nuclear contribution   :     21.715018787      -6.413934074      -1.709473247
                        -----------------------------------------
Total Dipole Moment    :      2.001670473      -1.237961361      -0.765945241
                        -----------------------------------------
Magnitude (a.u.)       :      2.475056591
Magnitude (Debye)      :      6.291093892



--------------------
Rotational spectrum 
--------------------
 
Rotational constants in cm-1:             0.013336             0.006374             0.005163 
Rotational constants in MHz :           399.810679           191.093855           154.768683 

Dipole components along the rotational axes: 
x,y,z [a.u.] :     2.329547    -0.813827    -0.191835 
x,y,z [Debye]:     5.921238    -2.068584    -0.487605 

 

Dipole moment calculation done in   2.1 sec 

Maximum memory used throughout the entire PROP-calculation: 22.9 MB

--------------------------------
SUGGESTED CITATIONS FOR THIS RUN
--------------------------------

Below you find a list of papers that are relevant to this ORCA run
We neither can nor want to force you to cite these papers, but we appreciate if you do
You receive ORCA, which is the product of decades of hard work by many enthusiastic individuals, for free
The only thing we kindly ask in return is that you cite our papers,
We deeply appreciate it, if you show your appreciation for ORCA by not just citing the generic ORCA reference.

Please note that relegating all ORCA citations to the supporting information does *not* help us.
SI sections are not indexed - citations you put there will not count into any citation statistics
But we need these citations in order to attract the funding resources that allow us to do what we are doing

Therefore, if you are a happy ORCA user, please consider citing a few of the papers listed below in the main body of your paper

In addition to the list printed below, the program has created the file sp.bibtex that contains the list in bibtex format
You can import this file easily into all common literature databanks and citation aid programs


List of essential papers. We consider these as the minimum necessary citations

  1. Neese,F.
     Software update: the ORCA program system, version 5.0
     WIRES Comput. Molec. Sci., 2022 12(1)e1606
     doi.org/10.1002/wcms.1606

List of papers to cite with high priority. The work reported in these papers was absolutely
necessary for this run to complete.
Our perspective: the developers of density functionals and basis sets usually get cited in chemistry papers
Good! But without the algorithms to do something with them, the functionals or basis sets would not do anything.
Hence, in our opinion, the algorithm design and method developments papers are equally worthy of getting cited

  1. Neese,F.
     An improvement of the resolution of the identity approximation for the formation of the Coulomb matrix
     J. Comp. Chem., 2003 24(14)1740-1747
     doi.org/10.1002/jcc.10318
  2. Neese,F.
     The SHARK Integral Generation and Digestion System
     J. Comp. Chem., 2022  1-16
     doi.org/10.1002/jcc.26942
  3. Caldeweyher,E.; Bannwarth,C.; Grimme,S.
     Extension of the D3 dispersion coefficient model
     J. Chem. Phys., 2017 147 034112
     doi.org/10.1063/1.4993215
  4. Caldeweyher,E.; Ehlert,S.; Hansen,A.; Neugebauer,H.; Spicher,S.; Bannwarth,C.; Grimme,S.
     A generally applicable atomic-charge dependent London dispersion correction
     J. Chem. Phys., 2019 150 154122
     doi.org/10.1063/1.5090222
  5. Caldeweyher,E.; Mewes,J.; Ehlert,S.; Grimme,S.
     Extension and evaluation of the D4 London-dispersion model for periodic systems
     Phys. Chem. Chem. Phys., 2020 22(16)8499-8512
     doi.org/10.1039/D0CP00502A
  6. Wittmann,L.; Gordiy,I.; Friede,M.; Helmich-Paris,B.; Grimme,S.; Hansen,A.; Bursch,M.
     Extension of the D3 and D4 London Dispersion Corrections to the full Actinides Series
     Phys. Chem. Chem. Phys., 2024 26(32)21379-21394
     doi.org/https://doi.org/10.1039/D4CP01514B 

List of suggested additional citations. These are papers that are important in the 'surrounding' of 
of this run, or papers that preceded the highly important papers. If you like your results we are grateful for a citation.

  1. Neese,F.
     The ORCA program system
     WIRES Comput. Molec. Sci., 2012 2(1)73-78
     doi.org/10.1002/wcms.81
  2. Neese,F.
     Software update: the ORCA program system, version 4.0
     WIRES Comput. Molec. Sci., 2018 8(1)1-6
     doi.org/10.1002/wcms.1327
  3. Neese,F.; Wennmohs,F.; Becker,U.; Riplinger,C.
     The ORCA quantum chemistry program package
     J. Chem. Phys., 2020 152 Art. No. L224108
     doi.org/10.1063/5.0004608

List of optional additional citations

  1. Neese,F.
     Approximate second-order SCF convergence for spin unrestricted wavefunctions
     Chem. Phys. Lett., 2000 325(1-3)93-98
     doi.org/10.1016/s0009-2614(00)00662-x

Timings for individual modules:

Sum of individual times          ...       24.441 sec (=   0.407 min)
Startup calculation              ...        1.171 sec (=   0.020 min)   4.8 %
SCF iterations                   ...       21.153 sec (=   0.353 min)  86.5 %
Property calculations            ...        2.118 sec (=   0.035 min)   8.7 %
                             ****ORCA TERMINATED NORMALLY****
TOTAL RUN TIME: 0 days 0 hours 0 minutes 37 seconds 241 msec
