      -----------------------------------------------------------      
     |                   =====================                   |     
     |                           x T B                           |     
     |                   =====================                   |     
     |                         S. Grimme                         |     
     |          Mulliken Center for Theoretical Chemistry        |     
     |                    University of Bonn                     |     
      -----------------------------------------------------------      

   * xtb version 6.7.1 (edcfbbe) compiled by 'albert@albert-system' on 2024-07-22

   xtb is free software: you can redistribute it and/or modify it under
   the terms of the GNU Lesser General Public License as published by
   the Free Software Foundation, either version 3 of the License, or
   (at your option) any later version.
   
   xtb is distributed in the hope that it will be useful,
   but WITHOUT ANY WARRANTY; without even the implied warranty of
   MERCHANTABILITY or FITNESS FOR A PARTICULAR PURPOSE.  See the
   GNU Lesser General Public License for more details.
   
   Cite this work as:
   * C. Bannwarth, E. Caldeweyher, S. Ehlert, A. Hansen, P. Pracht,
     J. Seibert, S. Spicher, S. Grimme, WIREs Comput. Mol. Sci., 2020, 11,
     e01493. DOI: 10.1002/wcms.1493
   
   for GFN2-xTB:
   * C. Bannwarth, S. Ehlert and S. Grimme., J. Chem. Theory Comput., 2019,
     15, 1652-1671. DOI: 10.1021/acs.jctc.8b01176
   for GFN1-xTB:
   * S. Grimme, C. Bannwarth, P. Shushkov, J. Chem. Theory Comput., 2017,
     13, 1989-2009. DOI: 10.1021/acs.jctc.7b00118
   for GFN0-xTB:
   * P. Pracht, E. Caldeweyher, S. Ehlert, S. Grimme, ChemRxiv, 2019, preprint.
     DOI: 10.26434/chemrxiv.8326202.v1
   for GFN-FF:
   * S. Spicher and S. Grimme, Angew. Chem. Int. Ed., 2020, 59, 15665-15673.
     DOI: 10.1002/anie.202004239
   
   for ALPB and GBSA implicit solvation:
   * S. Ehlert, M. Stahn, S. Spicher, S. Grimme, J. Chem. Theory Comput.,
     2021, 17, 4250-4261. DOI: 10.1021/acs.jctc.1c00471
   
   for ddCOSMO and CPCM-X implicit solvation:
   * M. Stahn, S. Ehlert, S. Grimme, J. Phys. Chem. A,
     2023, XX, XXXX-XXXX. DOI: 10.1021/acs.jpca.3c04382
   
   for DFT-D4:
   * E. Caldeweyher, C. Bannwarth and S. Grimme, J. Chem. Phys., 2017,
     147, 034112. DOI: 10.1063/1.4993215
   * E. Caldeweyher, S. Ehlert, A. Hansen, H. Neugebauer, S. Spicher,
     C. Bannwarth and S. Grimme, J. Chem. Phys., 2019, 150, 154122.
     DOI: 10.1063/1.5090222
   * E. Caldeweyher, J.-M. Mewes, S. Ehlert and S. Grimme, Phys. Chem. Chem. Phys.
     2020, 22, 8499-8512. DOI: 10.1039/D0CP00502A
   
   for sTDA-xTB:
   * S. Grimme and C. Bannwarth, J. Chem. Phys., 2016, 145, 054103.
     DOI: 10.1063/1.4959605
   
   in the mass-spec context:
   * V. Asgeirsson, C. Bauer and S. Grimme, Chem. Sci., 2017, 8, 4879.
     DOI: 10.1039/c7sc00601b
   * J. Koopman and S. Grimme, ACS Omega 2019, 4, 12, 15120-15133.
     DOI: 10.1021/acsomega.9b02011
   
   for metadynamics refer to:
   * S. Grimme, J. Chem. Theory Comput., 2019, 155, 2847-2862
     DOI: 10.1021/acs.jctc.9b00143
   
   for SPH calculations refer to:
   * S. Spicher and S. Grimme, J. Chem. Theory Comput., 2021, 17, 1701-1714
     DOI: 10.1021/acs.jctc.0c01306
   
   for ONIOM refer to:
   * C. Plett, A. Katbashev, S. Ehlert, S. Grimme, M. Bursch,
     Phys. Chem. Chem. Phys., 2023, 25, 17860-17868. DOI: 10.1039/D3CP02178E
   
   for DIPRO refer to:
   * J. Kohn, N. Gildemeister, S. Grimme, D. Fazzi, A. Hansen,
     J. Chem. Phys., 2023, just accepted.
   
   for PTB refer to:
   * S. Grimme, M. Mueller, A. Hansen, J. Chem. Phys., 2023, 158, 124111.
     DOI: 10.1063/5.0137838
   
   with help from (in alphabetical order)
   P. Atkinson, C. Bannwarth, F. Bohle, G. Brandenburg, E. Caldeweyher
   M. Checinski, S. Dohm, S. Ehlert, S. Ehrlich, I. Gerasimov, C. Hölzer
   A. Katbashev, J. Kohn, J. Koopman, C. Lavigne, S. Lehtola, F. März, M. Müller,
   F. Musil, H. Neugebauer, J. Pisarek, C. Plett, P. Pracht, F. Pultar,
   J. Seibert, P. Shushkov, S. Spicher, M. Stahn, M. Steiner, T. Strunk,
   J. Stückrath, T. Rose, and J. Unsleber
   
 * started run on 2025/04/09 at 05:21:26.891     
   ID    Z sym.   atoms
    1    6 C      1, 2, 7, 8, 10, 15, 16, 18, 19
    2    8 O      3, 6, 14, 17
    3   15 P      4, 12
    4   16 S      5, 9, 11, 13
    5    1 H      20-41

           -------------------------------------------------
          |                Calculation Setup                |
           -------------------------------------------------

          program call               : /srv/scratch/z5358697/.xtb/bin/xtb solv.coord --gfn2 --sp --chrg 0 --norestart --parallel 1 --alpb water reference -I xtb_sp-xcontrol-inp
          hostname                   : k163
          coordinate file            : solv.coord
          omp threads                :                     1


           -------------------------------------------------
          |                 G F N 2 - x T B                 |
           -------------------------------------------------

        Reference                      10.1021/acs.jctc.8b01176
      * Hamiltonian:
        H0-scaling (s, p, d)           1.850000    2.230000    2.230000
        zeta-weighting                 0.500000
      * Dispersion:
        s8                             2.700000
        a1                             0.520000
        a2                             5.000000
        s9                             5.000000
      * Repulsion:
        kExp                           1.500000    1.000000
        rExp                           1.000000
      * Coulomb:
        alpha                          2.000000
        third order                    shell-resolved
        anisotropic                    true
        a3                             3.000000
        a5                             4.000000
        cn-shift                       1.200000
        cn-exp                         4.000000
        max-rad                        5.000000

      * Solvation model:               ALPB
        Solvent                        water
        Parameter file                 internal GFN2-xTB/ALPB
        Dielectric constant                8.0200E+01
        Reference state                gsolv=reference [X=1]
        Free energy shift                  2.8945E-03 Eh       1.8164E+00 kcal/mol
        Temperature                        2.9815E+02 K
        Density                            1.0000E+00 kg/L
        Solvent mass                       1.8000E+01 g/mol
        Interaction kernel             P16
        Born radius scaling (c1)           1.4744E+00
        Born radii integrator          GBOBC
        Born offset                        0.0000E+00 a0       0.0000E+00 AA
        H-bond correction              true
        Ion screening                  false
        Surface tension                    1.0000E-05 Eh       1.5569E+01 dyn/cm
        Grid points                               974 per atom

          ...................................................
          :                      SETUP                      :
          :.................................................:
          :  # basis functions                 134          :
          :  # atomic orbitals                 128          :
          :  # shells                           66          :
          :  # electrons                       116          :
          :  max. iterations                   250          :
          :  Hamiltonian                  GFN2-xTB          :
          :  restarted?                      false          :
          :  GBSA solvation                   true          :
          :  PC potential                    false          :
          :  electronic temp.          300.0000000     K    :
          :  accuracy                    1.0000000          :
          :  -> integral cutoff          0.2500000E+02      :
          :  -> integral neglect         0.1000000E-07      :
          :  -> SCF convergence          0.1000000E-05 Eh   :
          :  -> wf. convergence          0.1000000E-03 e    :
          :  Broyden damping             0.4000000          :
          :  net charge                          0          :
          :  unpaired electrons                  0          :
          ...................................................

 iter      E             dE          RMSdq      gap      omega  full diag
   1    -65.4394840 -0.654395E+02  0.642E+00    4.16       0.0  T
   2    -65.5606555 -0.121172E+00  0.372E+00    3.63       1.0  T
   3    -65.5799456 -0.192901E-01  0.113E+00    3.20       1.0  T
   4    -65.5825842 -0.263857E-02  0.531E-01    3.15       1.0  T
   5    -65.5833271 -0.742942E-03  0.281E-01    3.20       1.0  T
   6    -65.5835076 -0.180478E-03  0.128E-01    3.20       1.0  T
   7    -65.5835643 -0.566530E-04  0.436E-02    3.21       1.0  T
   8    -65.5835678 -0.349816E-05  0.177E-02    3.21       1.0  T
   9    -65.5835686 -0.848608E-06  0.506E-03    3.21       3.1  T
  10    -65.5835686 -0.125195E-07  0.230E-03    3.21       6.8  T
  11    -65.5835687 -0.290427E-07  0.678E-04    3.21      23.0  T
  12    -65.5835687 -0.924899E-09  0.430E-04    3.21      36.3  T

   *** convergence criteria satisfied after 12 iterations ***

         #    Occupation            Energy/Eh            Energy/eV
      -------------------------------------------------------------
         1        2.0000           -0.7661292             -20.8474
       ...           ...                  ...                  ...
        52        2.0000           -0.4413851             -12.0107
        53        2.0000           -0.4169449             -11.3456
        54        2.0000           -0.4090845             -11.1318
        55        2.0000           -0.3962446             -10.7824
        56        2.0000           -0.3945313             -10.7357
        57        2.0000           -0.3930895             -10.6965
        58        2.0000           -0.3911732             -10.6444 (HOMO)
        59                         -0.2731145              -7.4318 (LUMO)
        60                         -0.2571057              -6.9962
        61                         -0.2177219              -5.9245
        62                         -0.1859754              -5.0606
        63                         -0.1818135              -4.9474
       ...                                ...                  ...
       128                          1.2788037              34.7980
      -------------------------------------------------------------
                  HL-Gap            0.1180587 Eh            3.2125 eV
             Fermi-level           -0.3321438 Eh           -9.0381 eV

 SCC (total)                   0 d,  0 h,  0 min,  0.059 sec
 SCC setup                      ...        0 min,  0.003 sec (  4.295%)
 Dispersion                     ...        0 min,  0.000 sec (  0.509%)
 classical contributions        ...        0 min,  0.000 sec (  0.104%)
 integral evaluation            ...        0 min,  0.009 sec ( 14.989%)
 iterations                     ...        0 min,  0.025 sec ( 42.482%)
 molecular gradient             ...        0 min,  0.022 sec ( 37.246%)
 printout                       ...        0 min,  0.000 sec (  0.349%)

         :::::::::::::::::::::::::::::::::::::::::::::::::::::
         ::                     SUMMARY                     ::
         :::::::::::::::::::::::::::::::::::::::::::::::::::::
         :: total energy             -65.022923000459 Eh    ::
         :: total w/o Gsasa/hb       -65.027106334055 Eh    ::
         :: gradient norm              0.000201214849 Eh/a0 ::
         :: HOMO-LUMO gap              3.212539682104 eV    ::
         ::.................................................::
         :: SCC energy               -65.582619277899 Eh    ::
         :: -> isotropic ES            0.123013002252 Eh    ::
         :: -> anisotropic ES         -0.014575215413 Eh    ::
         :: -> anisotropic XC          0.030660472944 Eh    ::
         :: -> dispersion             -0.052193128661 Eh    ::
         :: -> Gsolv                  -0.019701082040 Eh    ::
         ::    -> Gelec               -0.023884415635 Eh    ::
         ::    -> Gsasa                0.005200415552 Eh    ::
         ::    -> Ghb                 -0.003911631116 Eh    ::
         ::    -> Gshift               0.002894549160 Eh    ::
         :: repulsion energy           0.559696277439 Eh    ::
         :: add. restraining           0.000000000000 Eh    ::
         :: total charge              -0.000000000000 e     ::
         :::::::::::::::::::::::::::::::::::::::::::::::::::::

           -------------------------------------------------
          |                Property Printout                |
           -------------------------------------------------

    * Orbital Energies and Occupations

         #    Occupation            Energy/Eh            Energy/eV
      -------------------------------------------------------------
         1        2.0000           -0.7661292             -20.8474
       ...           ...                  ...                  ...
        46        2.0000           -0.4689927             -12.7619
        47        2.0000           -0.4609143             -12.5421
        48        2.0000           -0.4568851             -12.4325
        49        2.0000           -0.4554735             -12.3941
        50        2.0000           -0.4504805             -12.2582
        51        2.0000           -0.4469101             -12.1610
        52        2.0000           -0.4413851             -12.0107
        53        2.0000           -0.4169449             -11.3456
        54        2.0000           -0.4090845             -11.1318
        55        2.0000           -0.3962446             -10.7824
        56        2.0000           -0.3945313             -10.7357
        57        2.0000           -0.3930895             -10.6965
        58        2.0000           -0.3911732             -10.6444 (HOMO)
        59                         -0.2731145              -7.4318 (LUMO)
        60                         -0.2571057              -6.9962
        61                         -0.2177219              -5.9245
        62                         -0.1859754              -5.0606
        63                         -0.1818135              -4.9474
        64                         -0.1716997              -4.6722
        65                         -0.1637336              -4.4554
        66                         -0.1599877              -4.3535
        67                         -0.1343593              -3.6561
        68                         -0.1217354              -3.3126
        69                         -0.0503704              -1.3706
       ...                                ...                  ...
       128                          1.2788037              34.7980
      -------------------------------------------------------------
                  HL-Gap            0.1180587 Eh            3.2125 eV
             Fermi-level           -0.3321438 Eh           -9.0381 eV

     #   Z          covCN         q      C6AA      α(0)
     1   6 C        3.751    -0.126    22.982     6.837
     2   6 C        3.874     0.085    19.127     6.218
     3   8 O        1.655    -0.257    18.274     5.771
     4  15 P        3.885     0.373   144.710    21.609
     5  16 S        0.926    -0.465   159.701    21.375
     6   8 O        1.655    -0.253    18.202     5.759
     7   6 C        3.885     0.075    19.281     6.243
     8   6 C        3.751    -0.126    22.983     6.837
     9  16 S        2.016    -0.153   147.488    20.440
    10   6 C        3.808     0.039    19.916     6.353
    11  16 S        2.012    -0.151   147.427    20.436
    12  15 P        3.848     0.377   144.578    21.599
    13  16 S        0.927    -0.464   159.669    21.373
    14   8 O        1.653    -0.259    18.305     5.775
    15   6 C        3.826     0.071    19.382     6.265
    16   6 C        3.751    -0.132    23.106     6.855
    17   8 O        1.655    -0.252    18.196     5.758
    18   6 C        3.885     0.081    19.194     6.229
    19   6 C        3.752    -0.134    23.141     6.860
    20   1 H        0.925     0.084     1.933     2.174
    21   1 H        0.925     0.074     2.039     2.233
    22   1 H        0.925     0.055     2.257     2.349
    23   1 H        0.924     0.050     2.315     2.379
    24   1 H        0.924     0.086     1.920     2.167
    25   1 H        0.924     0.093     1.846     2.125
    26   1 H        0.924     0.066     2.130     2.282
    27   1 H        0.925     0.053     2.286     2.364
    28   1 H        0.925     0.069     2.093     2.262
    29   1 H        0.925     0.087     1.910     2.161
    30   1 H        0.925     0.102     1.769     2.080
    31   1 H        0.925     0.097     1.813     2.106
    32   1 H        0.924     0.096     1.826     2.113
    33   1 H        0.924     0.078     1.995     2.209
    34   1 H        0.925     0.090     1.876     2.142
    35   1 H        0.925     0.067     2.122     2.278
    36   1 H        0.925     0.066     2.130     2.283
    37   1 H        0.924     0.059     2.212     2.326
    38   1 H        0.924     0.068     2.113     2.273
    39   1 H        0.925     0.070     2.090     2.261
    40   1 H        0.925     0.083     1.944     2.181
    41   1 H        0.925     0.078     2.003     2.213

 Mol. C6AA /au·bohr⁶  :      26391.361358
 Mol. C8AA /au·bohr⁸  :     862650.181627
 Mol. α(0) /au        :        257.553875


Wiberg/Mayer (AO) data.
largest (>0.10) Wiberg bond orders for each atom

 ---------------------------------------------------------------------------
     #   Z sym  total        # sym  WBO       # sym  WBO       # sym  WBO
 ---------------------------------------------------------------------------
     1   6 C    3.985 --     2 C    1.019    21 H    0.982    22 H    0.982
                            20 H    0.975
     2   6 C    3.890 --     1 C    1.019    24 H    0.968    23 H    0.965
                             3 O    0.885
     3   8 O    2.406 --     4 P    1.322     2 C    0.885
     4  15 P    5.260 --     5 S    1.505     6 O    1.332     3 O    1.322
                             9 S    0.954
     5  16 S    1.852 --     4 P    1.505     9 S    0.149
     6   8 O    2.412 --     4 P    1.332     7 C    0.887
     7   6 C    3.886 --     8 C    1.022    26 H    0.967    25 H    0.965
                             6 O    0.887
     8   6 C    3.987 --     7 C    1.022    28 H    0.982    29 H    0.976
                            27 H    0.975
     9  16 S    2.285 --    10 C    0.990     4 P    0.954     5 S    0.149
    10   6 C    3.950 --     9 S    0.990    11 S    0.989    31 H    0.955
                            30 H    0.942
    11  16 S    2.266 --    10 C    0.989    12 P    0.945    13 S    0.139
    12  15 P    5.291 --    13 S    1.530    14 O    1.356    17 O    1.324
                            11 S    0.945
    13  16 S    1.852 --    12 P    1.530    11 S    0.139
    14   8 O    2.405 --    12 P    1.356    15 C    0.858
    15   6 C    3.878 --    16 C    1.024    33 H    0.970    32 H    0.964
                            14 O    0.858
    16   6 C    3.985 --    15 C    1.024    36 H    0.979    34 H    0.973
                            35 H    0.973
    17   8 O    2.408 --    12 P    1.324    18 C    0.886
    18   6 C    3.892 --    19 C    1.018    38 H    0.971    37 H    0.967
                            17 O    0.886
    19   6 C    3.982 --    18 C    1.018    39 H    0.983    41 H    0.982
                            40 H    0.976
    20   1 H    0.992 --     1 C    0.975
    21   1 H    0.994 --     1 C    0.982
    22   1 H    0.997 --     1 C    0.982
    23   1 H    0.997 --     2 C    0.965
    24   1 H    0.992 --     2 C    0.968
    25   1 H    0.991 --     7 C    0.965
    26   1 H    0.996 --     7 C    0.967
    27   1 H    0.997 --     8 C    0.975
    28   1 H    0.995 --     8 C    0.982
    29   1 H    0.992 --     8 C    0.976
    30   1 H    0.989 --    10 C    0.942
    31   1 H    0.990 --    10 C    0.955
    32   1 H    0.991 --    15 C    0.964
    33   1 H    0.994 --    15 C    0.970
    34   1 H    0.991 --    16 C    0.973
    35   1 H    0.996 --    16 C    0.973
    36   1 H    0.996 --    16 C    0.979
    37   1 H    0.997 --    18 C    0.967
    38   1 H    0.995 --    18 C    0.971
    39   1 H    0.995 --    19 C    0.983
    40   1 H    0.992 --    19 C    0.976
    41   1 H    0.994 --    19 C    0.982
 ---------------------------------------------------------------------------

Topologies differ in total number of bonds
Writing topology from bond orders to xtbtopo.mol

molecular dipole:
                 x           y           z       tot (Debye)
 q only:       -1.427       1.811      -0.185
   full:       -1.033       1.871      -0.467       5.559
molecular quadrupole (traceless):
                xx          xy          yy          xz          yz          zz
 q only:       22.229     -22.188      12.483     -11.880     -20.101     -34.712
  q+dip:       24.869     -18.869       9.008     -11.145     -20.080     -33.877
   full:       25.449     -20.128       9.331     -10.336     -20.552     -34.780


           -------------------------------------------------
          | TOTAL ENERGY              -65.022923000459 Eh   |
          | GRADIENT NORM               0.000201214849 Eh/α |
          | HOMO-LUMO GAP               3.212539682104 eV   |
           -------------------------------------------------

------------------------------------------------------------------------
 * finished run on 2025/04/09 at 05:21:27.020     
------------------------------------------------------------------------
 total:
 * wall-time:     0 d,  0 h,  0 min,  0.128 sec
 *  cpu-time:     0 d,  0 h,  0 min,  0.071 sec
 * ratio c/w:     0.553 speedup
 SCF:
 * wall-time:     0 d,  0 h,  0 min,  0.059 sec
 *  cpu-time:     0 d,  0 h,  0 min,  0.058 sec
 * ratio c/w:     0.981 speedup

