
                                 *****************
                                 * O   R   C   A *
                                 *****************

                                            #,                                       
                                            ###                                      
                                            ####                                     
                                            #####                                    
                                            ######                                   
                                           ########,                                 
                                     ,,################,,,,,                         
                               ,,#################################,,                 
                          ,,##########################################,,             
                       ,#########################################, ''#####,          
                    ,#############################################,,   '####,        
                  ,##################################################,,,,####,       
                ,###########''''           ''''###############################       
              ,#####''   ,,,,##########,,,,          '''####'''          '####       
            ,##' ,,,,###########################,,,                        '##       
           ' ,,###''''                  '''############,,,                           
         ,,##''                                '''############,,,,        ,,,,,,###''
      ,#''                                            '''#######################'''  
     '                                                          ''''####''''         
             ,#######,   #######,   ,#######,      ##                                
            ,#'     '#,  ##    ##  ,#'     '#,    #''#        ,####,   ,####,        
            ##       ##  ##   ,#'  ##            #'  '#       #'       #'  '#        
            ##       ##  #######   ##           ,######,      #####,   #    #        
            '#,     ,#'  ##    ##  '#,     ,#' ,#      #,     #,   #   #,  ,#        
             '#######'   ##     ##  '#######'  #'      '#     '####' # '####'        



                #########################################################
                #                        -***-                          #
                #          Department of theory and spectroscopy        #
                #                                                       #
                #                      Frank Neese                      #
                #                                                       #
                #     Directorship, Architecture, Infrastructure        #
                #                    SHARK, DRIVERS                     #
                #        Core code/Algorithms in most modules           #
                #                                                       #
                #        Max Planck Institute fuer Kohlenforschung      #
                #                Kaiser Wilhelm Platz 1                 #
                #                 D-45470 Muelheim/Ruhr                 #
                #                      Germany                          #
                #                                                       #
                #                  All rights reserved                  #
                #                        -***-                          #
                #########################################################


                         Program Version 6.0.0  -   RELEASE  -


 With contributions from (in alphabetic order):
   Daniel Aravena         : Magnetic Suceptibility
   Michael Atanasov       : Ab Initio Ligand Field Theory (pilot matlab implementation)
   Alexander A. Auer      : GIAO ZORA, VPT2 properties, NMR spectrum
   Ute Becker             : All parallelization in ORCA, NUMFREQ, NUMCALC
   Giovanni Bistoni       : ED, misc. LED, open-shell LED, HFLD
   Martin Brehm           : Molecular dynamics
   Dmytro Bykov           : pre 5.0 version of the SCF Hessian
   Marcos Casanova-Páez   : Triplet and SCS-CIS(D). UHF-(DLPNO)-IP/EA/STEOM-CCSD. UHF-CVS-IP/STEOM-CCSD
   Vijay G. Chilkuri      : MRCI spin determinant printing, contributions to CSF-ICE
   Pauline Colinet        : FMM embedding
   Dipayan Datta          : RHF DLPNO-CCSD density
   Achintya Kumar Dutta   : EOM-CC, STEOM-CC
   Nicolas Foglia         : Exact transition moments, OPA infrastructure, MCD improvements
   Dmitry Ganyushin       : Spin-Orbit,Spin-Spin,Magnetic field MRCI
   Miquel Garcia          : C-PCM and meta-GGA Hessian, CCSD/C-PCM, Gaussian charge scheme
   Tiago L. C. Gouveia    : GS-ROHF, GS-ROCIS
   Yang Guo               : DLPNO-NEVPT2, F12-NEVPT2, CIM, IAO-localization
   Andreas Hansen         : Spin unrestricted coupled pair/coupled cluster methods
   Ingolf Harden          : AUTO-CI MPn and infrastructure 
   Benjamin Helmich-Paris : MC-RPA, TRAH-(SCF,CASSCF), AVAS, COSX integrals, SCF dyn. polar.
   Lee Huntington         : MR-EOM, pCC
   Robert Izsak           : Overlap fitted RIJCOSX, COSX-SCS-MP3, EOM
   Riya Kayal             : Wick's Theorem for AUTO-CI, AUTO-CI UHF-CCSDT
   Emily Kempfer          : AUTO-CI, RHF CISDT and CCSDT
   Christian Kollmar      : KDIIS, OOCD, Brueckner-CCSD(T), CCSD density, CASPT2, CASPT2-K, improved NEVPT2
   Axel Koslowski         : Symmetry handling
   Simone Kossmann        : Meta GGA functionals, TD-DFT gradient, OOMP2, (MP2 Hessian; deprecated post 5.0)
   Lucas Lang             : DCDCAS
   Marvin Lechner         : AUTO-CI (C++ implementation), FIC-MRCC
   Spencer Leger          : CASSCF response
   Dagmar Lenk            : GEPOL surface, SMD, ORCA-2-JSON
   Dimitrios Liakos       : Extrapolation schemes; Compound Job, initial MDCI parallelization
   Dimitrios Manganas     : Further ROCIS development; embedding schemes. LFT, Crystal Embedding
   Dimitrios Pantazis     : SARC Basis sets
   Anastasios Papadopoulos: AUTO-CI, single reference methods and gradients
   Taras Petrenko         : pre 6.0 DFT Hessian and TD-DFT gradient, (ASA, deprecated), ECA, 1-Electron XAS/XES, NRVS
   Peter Pinski           : DLPNO-MP2, DLPNO-MP2 Gradient
   Christoph Reimann      : Effective Core Potentials
   Marius Retegan         : Local ZFS, SOC
   Christoph Riplinger    : Optimizer, TS searches, QM/MM, DLPNO-CCSD(T), (RO)-DLPNO pert. Triples
   Michael Roemelt        : Original ROCIS implementation
   Masaaki Saitow         : Open-shell DLPNO-CCSD energy and density
   Barbara Sandhoefer     : DKH picture change effects
   Kantharuban Sivalingam : CASSCF convergence/infrastructure, NEVPT2 and variants, FIC-MRCI
   Bernardo de Souza      : ESD, SOC TD-DFT
   Georgi Stoychev        : AutoAux, RI-MP2 NMR, DLPNO-MP2 response, X2C
   Van Anh Tran           : RI-MP2 g-tensors
   Willem Van den Heuvel  : Paramagnetic NMR
   Zikuan Wang            : NOTCH, Electric field optimization 
   Frank Wennmohs         : Technical directorship and infrastructure
   Hang Xu                : AUTO-CI-Response properties 


 We gratefully acknowledge several colleagues who have allowed us to
 interface, adapt or use parts of their codes:
   Stefan Grimme, W. Hujo, H. Kruse, P. Pracht,  : VdW corrections, initial TS optimization,
                  C. Bannwarth, S. Ehlert,         DFT functionals, gCP, sTDA/sTD-DF
                  L. Wittmann, M. Mueller
   Ed Valeev, F. Pavosevic, A. Kumar             : LibInt (2-el integral package), F12 methods
   Garnet Chan, S. Sharma, J. Yang, R. Olivares  : DMRG
   Ulf Ekstrom                                   : XCFun DFT Library
   Mihaly Kallay                                 : mrcc  (arbitrary order and MRCC methods)
   Frank Weinhold                                : gennbo (NPA and NBO analysis)
   Simon Mueller                                 : openCOSMO-RS
   Christopher J. Cramer and Donald G. Truhlar   : smd solvation model
   Lars Goerigk                                  : TD-DFT with DH, B97 family of functionals
   V. Asgeirsson, H. Jonsson                     : NEB implementation
   FAccTs GmbH                                   : IRC, NEB, NEB-TS, DLPNO-Multilevel, CI-OPT
                                                   MM, QMMM, 2- and 3-layer-ONIOM, Crystal-QMMM,
                                                   LR-CPCM, SF, NACMEs, symmetry and pop. for TD-DFT,
                                                   nearIR, NL-DFT gradient (VV10), updates on ESD,
                                                   ML-optimized integration grids, MBIS, APM,
                                                   GOAT, DOCKER, SOLVATOR, interface openCOSMO-RS
   S Lehtola, MJT Oliveira, MAL Marques          : LibXC Library
   Liviu Ungur et al                             : ANISO software


 Your calculation uses the libint2 library for the computation of 2-el integrals
 For citations please refer to: http://libint.valeyev.net

 Your ORCA version has been built with support for libXC version: 6.2.2
 For citations please refer to: https://libxc.gitlab.io

 This ORCA versions uses:
   CBLAS   interface :  Fast vector & matrix operations
   LAPACKE interface :  Fast linear algebra routines
   SCALAPACK package :  Parallel linear algebra routines
   Shared memory     :  Shared parallel matrices
   BLAS/LAPACK       :  OpenBLAS 0.3.27  USE64BITINT DYNAMIC_ARCH NO_AFFINITY SkylakeX SINGLE_THREADED
        Core in use  :  SkylakeX
   Copyright (c) 2011-2014, The OpenBLAS Project


Your calculation utilizes the geometrical counterpoise correction gCP
Please cite in your paper:
H.Kruse, S. Grimme J.Chem.Phys., 136, (2012), 154101 
   

Your calculation utilizes the atom-pairwise dispersion correction
based on EEQ partial charges (D4)


Your calculation utilizes the SMD solvation module
Please cite in your paper:
A.V. Marenich, C.J. Cramer, D.G. Truhlar J. Phys. Chem. B, 113, (2009), 6378 

================================================================================

----- Orbital basis set information -----
Your calculation utilizes the basis: def2-mTZVPP
   Stefan Grimme, Andreas Hansen, Sebastian Ehlert, and Jan-Michael Mewes 
   J. Chem. Phys. 154, 064103 (2021). DOI: 10.1063/5.0040021

----- AuxJ basis set information -----
Your calculation utilizes the auxiliary basis: def2/J
   F. Weigend, Phys. Chem. Chem. Phys. 8, 1057 (2006).

================================================================================
                                        WARNINGS
                       Please study these warnings very carefully!
================================================================================

Using LibXC functional ID 497 : Re-regularized SCAN exchange by Furness et al
[ 1]  J. W. Furness, A. D. Kaplan, J. Ning, J. P. Perdew, and J. Sun.,  J. Phys. Chem. Lett. 11, 8208-8215 (2020)
[ 2]  J. W. Furness, A. D. Kaplan, J. Ning, J. P. Perdew, and J. Sun.,  J. Phys. Chem. Lett. 11, 9248-9248 (2020)
Using LibXC functional ID 498 : Re-regularized SCAN correlation by Furness et al
[ 1]  J. W. Furness, A. D. Kaplan, J. Ning, J. P. Perdew, and J. Sun.,  J. Phys. Chem. Lett. 11, 8208-8215 (2020)
[ 2]  J. W. Furness, A. D. Kaplan, J. Ning, J. P. Perdew, and J. Sun.,  J. Phys. Chem. Lett. 11, 9248-9248 (2020)
Using LibXC functional ID 497 : Re-regularized SCAN exchange by Furness et al
[ 1]  J. W. Furness, A. D. Kaplan, J. Ning, J. P. Perdew, and J. Sun.,  J. Phys. Chem. Lett. 11, 8208-8215 (2020)
[ 2]  J. W. Furness, A. D. Kaplan, J. Ning, J. P. Perdew, and J. Sun.,  J. Phys. Chem. Lett. 11, 9248-9248 (2020)
Using LibXC functional ID 498 : Re-regularized SCAN correlation by Furness et al
[ 1]  J. W. Furness, A. D. Kaplan, J. Ning, J. P. Perdew, and J. Sun.,  J. Phys. Chem. Lett. 11, 8208-8215 (2020)
[ 2]  J. W. Furness, A. D. Kaplan, J. Ning, J. P. Perdew, and J. Sun.,  J. Phys. Chem. Lett. 11, 9248-9248 (2020)

================================================================================
                                       INPUT FILE
================================================================================
NAME = sp_solv.inp
|  1> ! r2scan-3c def2/J RI DEFGRID2 scfconv6 printgap
|  2> %output
|  3>     printlevel normal
|  4> end
|  5> %cpcm
|  6>     smd true
|  7>     smdsolvent "water"
|  8> end
|  9> * xyz 0 1
| 10> C -1.6926616142 -0.0519806822 -0.5298890618
| 11> C -1.0863633552 1.3052214 -0.1529720498
| 12> C 0.2778034843 1.1645757335 0.5458165804
| 13> C 1.0560775216 -0.0144148962 0.0388226592
| 14> O 2.1937382608 0.0747567559 -0.3866651247
| 15> C 0.3295534784 -1.3291969476 0.1277440464
| 16> C -1.163949187 -1.1529739517 0.3842494223
| 17> H -1.4260423132 -0.302722093 -1.5588281001
| 18> H -2.7797472671 0.0004240297 -0.4728463184
| 19> H -0.9657259541 1.9110152995 -1.051435932
| 20> H -1.75737178 1.8426936288 0.517505186
| 21> H 0.8686307768 2.0735295792 0.4300561992
| 22> H 0.1202970536 0.989810371 1.6123152576
| 23> H 0.5063910427 -1.873741378 -0.8027493082
| 24> H 0.8025134369 -1.910961918 0.9227933626
| 25> H -1.6807420166 -2.0918725011 0.1846090361
| 26> H -1.3466462059 -0.8861804215 1.4256441637
| 27> *
| 28> 
| 29>                          ****END OF INPUT****
================================================================================

                       ****************************
                       * Single Point Calculation *
                       ****************************

---------------------------------
CARTESIAN COORDINATES (ANGSTROEM)
---------------------------------
  C     -1.692662   -0.051981   -0.529889
  C     -1.086363    1.305221   -0.152972
  C      0.277803    1.164576    0.545817
  C      1.056078   -0.014415    0.038823
  O      2.193738    0.074757   -0.386665
  C      0.329553   -1.329197    0.127744
  C     -1.163949   -1.152974    0.384249
  H     -1.426042   -0.302722   -1.558828
  H     -2.779747    0.000424   -0.472846
  H     -0.965726    1.911015   -1.051436
  H     -1.757372    1.842694    0.517505
  H      0.868631    2.073530    0.430056
  H      0.120297    0.989810    1.612315
  H      0.506391   -1.873741   -0.802749
  H      0.802513   -1.910962    0.922793
  H     -1.680742   -2.091873    0.184609
  H     -1.346646   -0.886180    1.425644

----------------------------
CARTESIAN COORDINATES (A.U.)
----------------------------
  NO LB      ZA    FRAG     MASS         X           Y           Z
   0 C     6.0000    0    12.011   -3.198667   -0.098229   -1.001345
   1 C     6.0000    0    12.011   -2.052929    2.466511   -0.289075
   2 C     6.0000    0    12.011    0.524973    2.200729    1.031444
   3 C     6.0000    0    12.011    1.995697   -0.027240    0.073364
   4 O     8.0000    0    15.999    4.145565    0.141270   -0.730691
   5 C     6.0000    0    12.011    0.622766   -2.511818    0.241401
   6 C     6.0000    0    12.011   -2.199545   -2.178805    0.726126
   7 H     1.0000    0     1.008   -2.694829   -0.572062   -2.945758
   8 H     1.0000    0     1.008   -5.252961    0.000801   -0.893550
   9 H     1.0000    0     1.008   -1.824958    3.611296   -1.986926
  10 H     1.0000    0     1.008   -3.320951    3.482186    0.977943
  11 H     1.0000    0     1.008    1.641474    3.918403    0.812688
  12 H     1.0000    0     1.008    0.227328    1.870471    3.046834
  13 H     1.0000    0     1.008    0.956940   -3.540858   -1.516976
  14 H     1.0000    0     1.008    1.516531   -3.611195    1.743827
  15 H     1.0000    0     1.008   -3.176142   -3.953066    0.348861
  16 H     1.0000    0     1.008   -2.544793   -1.674638    2.694077

--------------------------------
INTERNAL COORDINATES (ANGSTROEM)
--------------------------------
 C      0   0   0     0.000000000000     0.00000000     0.00000000
 C      1   0   0     1.533512799011     0.00000000     0.00000000
 C      2   1   0     1.539167930797   112.40366141     0.00000000
 C      3   2   1     1.500923788268   112.20953918    33.06929870
 O      4   3   2     1.217893014720   123.01562798   126.03191709
 C      4   3   2     1.504791029058   114.58315589   304.63585870
 C      1   2   3     1.525572737785   110.75785459    25.50918185
 H      1   2   3     1.092095532128   109.77025161   265.94821988
 H      1   2   3     1.089841889975   109.81260264   147.73750768
 H      2   1   3     1.090310496525   109.44743848   121.36275590
 H      2   1   3     1.090260714971   110.12798945   239.35360131
 H      3   2   1     1.090263476886   110.84931699   156.17489507
 H      3   2   1     1.092140392125   109.27766631   275.55352789
 H      6   4   3     1.092528280541   107.87939079   137.24057975
 H      6   4   3     1.092815180311   107.40781682   251.70540108
 H      7   1   2     1.090165858296   110.33633504   173.68847900
 H      7   1   2     1.090440276167   109.73195822    55.01310987

---------------------------
INTERNAL COORDINATES (A.U.)
---------------------------
 C      0   0   0     0.000000000000     0.00000000     0.00000000
 C      1   0   0     2.897919212993     0.00000000     0.00000000
 C      2   1   0     2.908605863320   112.40366141     0.00000000
 C      3   2   1     2.836334907715   112.20953918    33.06929870
 O      4   3   2     2.301484258236   123.01562798   126.03191709
 C      4   3   2     2.843642933701   114.58315589   304.63585870
 C      1   2   3     2.882914671790   110.75785459    25.50918185
 H      1   2   3     2.063761467800   109.77025161   265.94821988
 H      1   2   3     2.059502701328   109.81260264   147.73750768
 H      2   1   3     2.060388239373   109.44743848   121.36275590
 H      2   1   3     2.060294165869   110.12798945   239.35360131
 H      3   2   1     2.060299385131   110.84931699   156.17489507
 H      3   2   1     2.063846240910   109.27766631   275.55352789
 H      6   4   3     2.064579243786   107.87939079   137.24057975
 H      6   4   3     2.065121405780   107.40781682   251.70540108
 H      7   1   2     2.060114912730   110.33633504   173.68847900
 H      7   1   2     2.060633487353   109.73195822    55.01310987

---------------------
BASIS SET INFORMATION
---------------------
There are 3 groups of distinct atoms

 Group   1 Type C   : 11s6p1d contracted to 5s3p1d pattern {62111/411/1}
 Group   2 Type O   : 11s6p2d contracted to 5s3p2d pattern {62111/411/11}
 Group   3 Type H   : 4s1p contracted to 2s1p pattern {31/1}

Atom   0C    basis set group =>   1
Atom   1C    basis set group =>   1
Atom   2C    basis set group =>   1
Atom   3C    basis set group =>   1
Atom   4O    basis set group =>   2
Atom   5C    basis set group =>   1
Atom   6C    basis set group =>   1
Atom   7H    basis set group =>   3
Atom   8H    basis set group =>   3
Atom   9H    basis set group =>   3
Atom  10H    basis set group =>   3
Atom  11H    basis set group =>   3
Atom  12H    basis set group =>   3
Atom  13H    basis set group =>   3
Atom  14H    basis set group =>   3
Atom  15H    basis set group =>   3
Atom  16H    basis set group =>   3
---------------------------------
AUXILIARY/J BASIS SET INFORMATION
---------------------------------
There are 3 groups of distinct atoms

 Group   1 Type C   : 12s5p4d2f1g contracted to 6s4p3d1f1g pattern {711111/2111/211/2/1}
 Group   2 Type O   : 12s5p4d2f1g contracted to 6s4p3d1f1g pattern {711111/2111/211/2/1}
 Group   3 Type H   : 5s2p1d contracted to 3s1p1d pattern {311/2/1}

Atom   0C    basis set group =>   1
Atom   1C    basis set group =>   1
Atom   2C    basis set group =>   1
Atom   3C    basis set group =>   1
Atom   4O    basis set group =>   2
Atom   5C    basis set group =>   1
Atom   6C    basis set group =>   1
Atom   7H    basis set group =>   3
Atom   8H    basis set group =>   3
Atom   9H    basis set group =>   3
Atom  10H    basis set group =>   3
Atom  11H    basis set group =>   3
Atom  12H    basis set group =>   3
Atom  13H    basis set group =>   3
Atom  14H    basis set group =>   3
Atom  15H    basis set group =>   3
Atom  16H    basis set group =>   3

Checking for AutoStart:
The File: sp_solv.gbw exists
Trying to determine its content:
     ... Fine, the file contains calculation information
     ... Fine, the calculation information was read
     ... Fine, the file contains a basis set
     ... Fine, the basis set was read
     ... Fine, the file contains a geometry
     ... Fine, the geometry was read
     ... Fine, the file contains a set of orbitals
     ... Fine, the orbitals can be read
     => possible old guess file was deleted
     => GBW file was renamed to GES file
     => GES file is set as startup file
     => Guess is set to MORead
     ... now leaving AutoStart

------------------------------------------------------------------------------
                             ORCA STARTUP CALCULATIONS
                           -- RI-GTO INTEGRALS CHOSEN --
------------------------------------------------------------------------------
------------------------------------------------------------------------------
                   ___                                                        
                  /   \      - P O W E R E D   B Y -                         
                 /     \                                                     
                 |  |  |   _    _      __       _____    __    __             
                 |  |  |  | |  | |    /  \     |  _  \  |  |  /  |          
                  \  \/   | |  | |   /    \    | | | |  |  | /  /          
                 / \  \   | |__| |  /  /\  \   | |_| |  |  |/  /          
                |  |  |   |  __  | /  /__\  \  |    /   |      \           
                |  |  |   | |  | | |   __   |  |    \   |  |\   \          
                \     /   | |  | | |  |  |  |  | |\  \  |  | \   \       
                 \___/    |_|  |_| |__|  |__|  |_| \__\ |__|  \__/        
                                                                              
                      - O R C A' S   B I G   F R I E N D -                    
                                      &                                       
                       - I N T E G R A L  F E E D E R -                       
                                                                              
 v1 FN, 2020, v2 2021, v3 2022-2024                                           
------------------------------------------------------------------------------


----------------------
SHARK INTEGRAL PACKAGE
----------------------

Number of atoms                             ...     17
Number of basis functions                   ...    188
Number of shells                            ...     94
Maximum angular momentum                    ...      2
Integral batch strategy                     ... SHARK/LIBINT Hybrid
RI-J (if used) integral strategy            ... SPLIT-RIJ (Revised 2003 algorithm where possible)
Printlevel                                  ...      1
Contraction scheme used                     ... SEGMENTED contraction
Prescreening option                         ... SCHWARTZ
   Thresh                                   ... 1.000e-10
   Tcut                                     ... 1.000e-11
   Tpresel                                  ... 1.000e-11 
Coulomb Range Separation                    ... NOT USED
Exchange Range Separation                   ... NOT USED
Multipole approximations                    ... NOT USED
Finite Nucleus Model                        ... NOT USED
CABS basis                                  ... NOT available
Auxiliary Coulomb fitting basis             ... AVAILABLE
   # of basis functions in Aux-J            ...    453
   # of shells in Aux-J                     ...    155
   Maximum angular momentum in Aux-J        ...      4
Auxiliary J/K fitting basis                 ... NOT available
Auxiliary Correlation fitting basis         ... NOT available
Auxiliary 'external' fitting basis          ... NOT available

Checking pre-screening integrals            ... done (  0.0 sec) Dimension = 94
Check shell pair data                       ... done (  0.0 sec)
Shell pair information
Shell pair cut-off parameter TPreSel        ...   1.0e-11
Total number of shell pairs                 ...      4465
Shell pairs after pre-screening             ...      4225
Total number of primitive shell pairs       ...     15937
Primitive shell pairs kept                  ...     11093
          la=0 lb=0:   1426 shell pairs
          la=1 lb=0:   1615 shell pairs
          la=1 lb=1:    479 shell pairs
          la=2 lb=0:    425 shell pairs
          la=2 lb=1:    244 shell pairs
          la=2 lb=2:     36 shell pairs

Calculating one electron integrals          ... done (  0.0 sec)
Calculating RI/J V-Matrix + Cholesky decomp.... done (  0.1 sec)
Calculating Nuclear repulsion               ... done (  0.0 sec) ENN=    311.873942659158 Eh

Diagonalization of the overlap matrix:
Smallest eigenvalue                        ... 4.640e-05
Time for diagonalization                   ...    0.003 sec
Threshold for overlap eigenvalues          ... 1.000e-07
Number of eigenvalues below threshold      ... 0
Time for construction of square roots      ...    0.014 sec
Total time needed                          ...    0.024 sec

-------------------
DFT GRID GENERATION
-------------------

General Integration Accuracy     IntAcc      ... 4.388
Radial Grid Type                 RadialGrid  ... OptM3 with GC (2021)
Angular Grid (max. ang.)         AngularGrid ... 4 (Lebedev-302)
Angular grid pruning method      GridPruning ... 4 (adaptive)
Weight generation scheme         WeightScheme... mBecke (2022)
Basis function cutoff            BFCut       ... 1.0000e-10
Integration weight cutoff        WCut        ... 1.0000e-14
Partially contracted basis set               ... off
Rotationally invariant grid construction     ... off
Angular grids for H and He will be reduced by one unit
Diffuse basis detected: some atoms will have their outermost
                        angular grid increased by 1.

Total number of grid points                  ...    74245
Total number of batches                      ...     1168
Average number of points per batch           ...       63
Average number of grid points per atom       ...     4367
Initializing property integral containers    ... done (  0.0 sec)

SHARK setup successfully completed in   0.9 seconds

Maximum memory used throughout the entire STARTUP-calculation: 33.8 MB
-------------------------------------------------------------------------------
                                 ORCA GUESS
                   Start orbitals & Density for SCF / CASSCF
-------------------------------------------------------------------------------

------------
SCF SETTINGS
------------
Hamiltonian:
 Density Functional     Method          .... DFT(GTOs)
  Functional kind                       .... Exchange
  Functional name                       .... Re-regularized SCAN exchange by Furness et al
  Functional family                     .... MGGA
  Functional refs                              
    [ 0] J. W. Furness, A. D. Kaplan, J. Ning, J. P. Perdew, and J. Sun.,  J. Phys. Chem. Lett. 11, 8208-8215 (2020), doi: 10.1021/acs.jpclett.0c02405
    [ 1] J. W. Furness, A. D. Kaplan, J. Ning, J. P. Perdew, and J. Sun.,  J. Phys. Chem. Lett. 11, 9248-9248 (2020), doi: 10.1021/acs.jpclett.0c03077
  Functional external parameters        .... 6
    Parameter  0 _c1        =  6.670000e-01 : c1 parameter        
    Parameter  1 _c2        =  8.000000e-01 : c2 parameter        
    Parameter  2 _d         =  1.240000e+00 : d parameter         
    Parameter  3 _k1        =  6.500000e-02 : k1 parameter        
    Parameter  4 _eta       =  1.000000e-03 : eta parameter       
    Parameter  5 _dp2       =  3.610000e-01 : dp2 parameter       
  Functional kind                       .... Correlation
  Functional name                       .... Re-regularized SCAN correlation by Furness et al
  Functional family                     .... MGGA
  Functional refs                              
    [ 0] J. W. Furness, A. D. Kaplan, J. Ning, J. P. Perdew, and J. Sun.,  J. Phys. Chem. Lett. 11, 8208-8215 (2020), doi: 10.1021/acs.jpclett.0c02405
    [ 1] J. W. Furness, A. D. Kaplan, J. Ning, J. P. Perdew, and J. Sun.,  J. Phys. Chem. Lett. 11, 9248-9248 (2020), doi: 10.1021/acs.jpclett.0c03077
  Functional external parameters        .... 1
    Parameter  0 _eta       =  1.000000e-03 : Regularization parameter
 Gradients option       PostSCFGGA      .... off
 RI-approximation to the Coulomb term is turned on
   Number of AuxJ basis functions       .... 453


General Settings:
 Integral files         IntName         .... sp_solv
 Hartree-Fock type      HFTyp           .... RHF
 Total Charge           Charge          ....    0
 Multiplicity           Mult            ....    1
 Number of Electrons    NEL             ....   54
 Basis Dimension        Dim             ....  188
 Nuclear Repulsion      ENuc            ....    311.8739426592 Eh

Convergence Acceleration:
 AO-DIIS                CNVDIIS         .... on
   Start iteration      DIISMaxIt       ....    12
   Startup error        DIISStart       ....  0.200000
   # of expansion vecs  DIISMaxEq       ....     5
   Bias factor          DIISBfac        ....   1.050
   Max. coefficient     DIISMaxC        ....  10.000
 MO-DIIS                CNVKDIIS        .... off
 Trust-Rad. Augm. Hess. CNVTRAH         .... auto
   Auto Start mean grad. ratio tolernc. ....  1.125000
   Auto Start start iteration           ....     1
   Auto Start num. interpolation iter.  ....    10
   Max. Number of Micro iterations      ....    24
   Max. Number of Macro iterations      .... Maxiter - #DIIS iter
   Number of Davidson start vectors     ....     2
   Converg. threshold    (grad. norm)   ....   3.330e-04
   Grad. Scal. Fac. for Micro threshold ....   0.100
   Minimum threshold for Micro iter.    ....   1.000e-02
   NR start threshold (gradient norm)   ....   1.000e-04
   Initial trust radius                 ....   0.400
   Minimum AH scaling param. (alpha)    ....   1.000
   Maximum AH scaling param. (alpha)    .... 1000.000
   Quad. conv. algorithm                .... NR
   White noise on init. David. guess    .... on
   Maximum white noise                  ....   0.010
   Pseudo random numbers                .... off
   Inactive MOs                         .... canonical
   Orbital update algorithm             .... Taylor
   Preconditioner                       .... Diag
   Full preconditioner red. dimension   ....   250
   COSX micro iterations for RIJONX calc.... off
 SOSCF                  CNVSOSCF        .... on
   Start iteration      SOSCFMaxIt      ....   150
   Startup grad/error   SOSCFStart      ....  0.003300
   Hessian update       SOSCFHessUp     .... L-BFGS
 Level Shifting         CNVShift        .... on
   Level shift para.    LevelShift      ....    0.2500
   Turn off err/grad.   ShiftErr        ....    0.0010
 Zerner damping         CNVZerner       .... off
 Static damping         CNVDamp         .... on
   Fraction old density DampFac         ....    0.7000
   Max. Damping (<1)    DampMax         ....    0.9800
   Min. Damping (>=0)   DampMin         ....    0.0000
   Turn off err/grad.   DampErr         ....    0.1000

SCF Procedure:
 Maximum # iterations   MaxIter         ....   125
 SCF integral mode      SCFMode         .... Direct
   Integral package                     .... SHARK and LIBINT hybrid scheme
 Reset frequency        DirectResetFreq ....    20
 Integral Threshold     Thresh          ....  1.000e-10 Eh
 Primitive CutOff       TCut            ....  1.000e-11 Eh

Convergence Tolerance:
 Convergence Check Mode ConvCheckMode   .... Total+1el-Energy
 Convergence forced     ConvForced      .... 0
 Energy Change          TolE            ....  1.000e-06 Eh
 1-El. energy change                    ....  1.000e-03 Eh
 Orbital Gradient       TolG            ....  3.330e-04
 Orbital Rotation angle TolX            ....  3.330e-04
 DIIS Error             TolErr          ....  1.000e-06

---------------------
INITIAL GUESS: MOREAD
---------------------
Guess MOs are being read from file: sp_solv.ges
Input Geometry matches current geometry (good)
Atom 0: N(Shells)= 9 and 6 - projection required
Input basis set needs projection
NBasis(read)= 118
NBasis(calc)= 188
Basis set overlap was calculated
Using GuessMode=FMatrix for the initial guess
C*T matrix was formed
Effective Fockian was calculated
Effective Fockian was diagonalized
Initial density was built
                      ------------------
                      INITIAL GUESS DONE (   0.0 sec)
                      ------------------
             **** ENERGY FILE WAS UPDATED (sp_solv.en.tmp) ****
Finished Guess after   0.3 sec
Maximum memory used throughout the entire GUESS-calculation: 13.1 MB

-------------------------------------------------------------------------------------------
                                      ORCA LEAN-SCF
                              memory conserving SCF solver
-------------------------------------------------------------------------------------------

--------------------
CPCM SOLVATION MODEL
--------------------
CPCM parameters:
  Epsilon                                         ...      78.3550
  Refrac                                          ...       1.3328
  Rsolv                                           ...       1.3000
  Surface type                                    ... GAUSSIAN VDW
  Discretization scheme                           ... Constant charge density
    Threshold for H atoms                         ...       5.0000 (charges/Ang^2)
    Threshold for non-H atoms                     ...       5.0000 (charges/Ang^2)
  Epsilon function type                           ...         CPCM
Solvent:                                          ... WATER
SMD-CDS solvent descriptors:
  Soln                                            ...       1.3328
  Soln25                                          ...       1.3323
  Sola                                            ...       0.0000
  Solb                                            ...       0.0000
  Solg                                            ...       0.0000
  Solc                                            ...       0.0000
  Solh                                            ...       0.0000
Radii:
  Scheme                                          ... Element-dependent radii
  Radius for C  used is    3.4960 Bohr (=   1.8500 Ang.)
  Radius for O  used is    2.8724 Bohr (=   1.5200 Ang.)
  Radius for H  used is    2.2677 Bohr (=   1.2000 Ang.)
Calculating surface                               ...        done! (  0.0s)
Cavity surface points                             ...         1233
Cavity Volume                                     ...     737.1856
Cavity Surface-area                               ...     470.9933
Calculating surface distance matrix               ...        done! (  0.0s)
Performing Cholesky decomposition & store         ...        done! (  0.1s)
Overall time for CPCM initialization              ...                 0.1s

----------------------------------------D-I-I-S--------------------------------------------
Iteration    Energy (Eh)           Delta-E    RMSDP     MaxDP     DIISErr   Damp  Time(sec)
-------------------------------------------------------------------------------------------
               ***  Starting incremental Fock matrix formation  ***
    1    -309.6581873199198753     0.00e+00  9.99e-03  3.93e-01  6.24e-01  0.700   2.5
    2    -309.7050137653004640    -4.68e-02  7.39e-03  2.60e-01  4.40e-01  0.700   2.3
    3    -309.7381791692334900    -3.32e-02  5.23e-03  1.72e-01  3.09e-01  0.700   2.2
    4    -309.7615239912640845    -2.33e-02  3.68e-03  1.15e-01  2.16e-01  0.700   2.3
                               ***Turning on AO-DIIS***
    5    -309.7779352265870330    -1.64e-02  2.60e-03  7.56e-02  1.51e-01  0.700   2.1
    6    -309.7894429780421888    -1.15e-02  1.83e-03  5.20e-02  1.05e-01  0.700   2.1
    7    -309.7975342619087087    -8.09e-03  1.29e-03  3.61e-02  7.38e-02  0.700   2.0
    8    -309.8032067767296667    -5.67e-03  3.00e-03  8.21e-02  5.19e-02  0.000   2.0
                              *** Initializing SOSCF ***
---------------------------------------S-O-S-C-F--------------------------------------
Iteration    Energy (Eh)           Delta-E    RMSDP     MaxDP     MaxGrad    Time(sec)
--------------------------------------------------------------------------------------
    9    -309.8164801285125804    -1.33e-02  2.67e-05  1.08e-03  1.48e-04     2.1
               *** Restarting incremental Fock matrix formation ***
   10    -309.8164804151100498    -2.87e-07  1.61e-05  6.12e-04  1.82e-05     2.4
                  *** Gradient check signals convergence ***

               *****************************************************
               *                     SUCCESS                       *
               *           SCF CONVERGED AFTER  10 CYCLES          *
               *****************************************************


SMD CDS free energy correction energy :                 3.06126     Kcal/mol
Total Energy after SMD CDS correction =              -309.811601986 Eh
             **** ENERGY FILE WAS UPDATED (sp_solv.en.tmp) ****

----------------
TOTAL SCF ENERGY
----------------

Total Energy       :       -309.81160198585758 Eh           -8430.40228 eV

Components:
Nuclear Repulsion  :        311.87394265915827 Eh            8486.52143 eV
Electronic Energy  :       -621.67267371075729 Eh          -16916.57347 eV
One Electron Energy:      -1036.61696365720809 Eh          -28207.78164 eV
Two Electron Energy:        414.94428994645079 Eh           11291.20816 eV
CPCM Dielectric    :         -0.01774936351106 Eh              -0.48298 eV
SMD CDS (Gcds)     :          0.00487842925245 Eh               0.13275 eV

Virial components:
Potential Energy   :       -618.30379114700099 Eh          -16824.90152 eV
Kinetic Energy     :        308.49218916114347 Eh            8394.49924 eV
Virial Ratio       :          2.00427697319761

DFT components:
N(Alpha)           :       27.000002860254 electrons
N(Beta)            :       27.000002860254 electrons
N(Total)           :       54.000005720507 electrons
E(X)               :      -43.104542393276 Eh       
E(C)               :       -1.721750682508 Eh       
E(XC)              :      -44.826293075784 Eh       

CPCM Solvation Model Properties:
Surface-charge          :         -0.04497120646681
Corrected charge        :          0.00000000000000
Outlying charge corr.   :          0.00016993230556 Eh               0.00462 eV
Free-energy (cav+disp)  :          0.00487842925245 Eh               0.13275 eV

---------------
SCF CONVERGENCE
---------------

  Last Energy change         ...    2.8660e-07  Tolerance :   1.0000e-06
  Last MAX-Density change    ...    6.1249e-04  Tolerance :   1.0000e-05
  Last RMS-Density change    ...    1.6140e-05  Tolerance :   1.0000e-06
  Last DIIS Error            ...    1.4778e-04  Tolerance :   1.0000e-06
  Last Orbital Gradient      ...    1.8205e-05  Tolerance :   3.3300e-04
  Last Orbital Rotation      ...    4.9812e-05  Tolerance :   3.3300e-04


----------------
ORBITAL ENERGIES
----------------

  NO   OCC          E(Eh)            E(eV) 
   0   2.0000     -18.943873      -515.4890 
   1   2.0000     -10.121125      -275.4098 
   2   2.0000     -10.028276      -272.8833 
   3   2.0000     -10.028086      -272.8781 
   4   2.0000     -10.026465      -272.8340 
   5   2.0000     -10.022500      -272.7261 
   6   2.0000     -10.019439      -272.6428 
   7   2.0000      -1.011541       -27.5254 
   8   2.0000      -0.795374       -21.6432 
   9   2.0000      -0.714557       -19.4441 
  10   2.0000      -0.687352       -18.7038 
  11   2.0000      -0.591942       -16.1076 
  12   2.0000      -0.551898       -15.0179 
  13   2.0000      -0.477434       -12.9916 
  14   2.0000      -0.456270       -12.4157 
  15   2.0000      -0.444067       -12.0837 
  16   2.0000      -0.419111       -11.4046 
  17   2.0000      -0.382433       -10.4065 
  18   2.0000      -0.376396       -10.2423 
  19   2.0000      -0.371551       -10.1104 
  20   2.0000      -0.345805        -9.4098 
  21   2.0000      -0.339215        -9.2305 
  22   2.0000      -0.327372        -8.9082 
  23   2.0000      -0.291079        -7.9207 
  24   2.0000      -0.286340        -7.7917 
  25   2.0000      -0.280240        -7.6257 
  26   2.0000      -0.217288        -5.9127 
  27   0.0000      -0.048786        -1.3275 
  28   0.0000       0.091153         2.4804 
  29   0.0000       0.113562         3.0902 
  30   0.0000       0.125769         3.4223 
  31   0.0000       0.128794         3.5047 
  32   0.0000       0.138585         3.7711 
  33   0.0000       0.143804         3.9131 
  34   0.0000       0.151992         4.1359 
  35   0.0000       0.172159         4.6847 
  36   0.0000       0.177400         4.8273 
  37   0.0000       0.180975         4.9246 
*Only the first 10 virtual orbitals were printed.

                    ********************************
                    * MULLIKEN POPULATION ANALYSIS *
                    ********************************

-----------------------
MULLIKEN ATOMIC CHARGES
-----------------------
   0 C :   -0.263887
   1 C :   -0.394175
   2 C :   -0.255500
   3 C :    0.300627
   4 O :   -0.459069
   5 C :   -0.417325
   6 C :   -0.271133
   7 H :    0.157365
   8 H :    0.164983
   9 H :    0.171170
  10 H :    0.169267
  11 H :    0.175149
  12 H :    0.188402
  13 H :    0.196787
  14 H :    0.202625
  15 H :    0.164621
  16 H :    0.170092
Sum of atomic charges:   -0.0000000

--------------------------------
MULLIKEN REDUCED ORBITAL CHARGES
--------------------------------
  0 C s       :     3.188761  s :     3.188761
      pz      :     1.008943  p :     3.038694
      px      :     1.123020
      py      :     0.906731
      dz2     :     0.009261  d :     0.036431
      dxz     :     0.002928
      dyz     :     0.007984
      dx2y2   :     0.009907
      dxy     :     0.006352

  1 C s       :     3.387239  s :     3.387239
      pz      :     1.066961  p :     2.971210
      px      :     0.929753
      py      :     0.974496
      dz2     :     0.004876  d :     0.035726
      dxz     :     0.006994
      dyz     :     0.008782
      dx2y2   :     0.007701
      dxy     :     0.007371

  2 C s       :     3.122855  s :     3.122855
      pz      :     1.053431  p :     3.098331
      px      :     1.003028
      py      :     1.041873
      dz2     :     0.008512  d :     0.034314
      dxz     :     0.005268
      dyz     :     0.003842
      dx2y2   :     0.006203
      dxy     :     0.010488

  3 C s       :     3.198070  s :     3.198070
      pz      :     0.678277  p :     2.408505
      px      :     0.775394
      py      :     0.954834
      dz2     :     0.009066  d :     0.092798
      dxz     :     0.016134
      dyz     :     0.009770
      dx2y2   :     0.021015
      dxy     :     0.036813

  4 O s       :     3.821675  s :     3.821675
      pz      :     1.429637  p :     4.610926
      px      :     1.349070
      py      :     1.832220
      dz2     :     0.004524  d :     0.026469
      dxz     :     0.007994
      dyz     :     0.001812
      dx2y2   :     0.007567
      dxy     :     0.004571

  5 C s       :     3.315492  s :     3.315492
      pz      :     1.134272  p :     3.067215
      px      :     0.966146
      py      :     0.966797
      dz2     :     0.005935  d :     0.034618
      dxz     :     0.006344
      dyz     :     0.005251
      dx2y2   :     0.007324
      dxy     :     0.009764

  6 C s       :     3.202923  s :     3.202923
      pz      :     1.015929  p :     3.031585
      px      :     0.933310
      py      :     1.082346
      dz2     :     0.009835  d :     0.036625
      dxz     :     0.005063
      dyz     :     0.005391
      dx2y2   :     0.008615
      dxy     :     0.007721

  7 H s       :     0.824877  s :     0.824877
      pz      :     0.010094  p :     0.017758
      px      :     0.003838
      py      :     0.003825

  8 H s       :     0.816968  s :     0.816968
      pz      :     0.003542  p :     0.018049
      px      :     0.011014
      py      :     0.003493

  9 H s       :     0.810791  s :     0.810791
      pz      :     0.008652  p :     0.018039
      px      :     0.003501
      py      :     0.005886

 10 H s       :     0.812673  s :     0.812673
      pz      :     0.006346  p :     0.018060
      px      :     0.006362
      py      :     0.005351

 11 H s       :     0.807052  s :     0.807052
      pz      :     0.003346  p :     0.017799
      px      :     0.005556
      py      :     0.008897

 12 H s       :     0.793253  s :     0.793253
      pz      :     0.010916  p :     0.018345
      px      :     0.003823
      py      :     0.003607

 13 H s       :     0.785163  s :     0.785163
      pz      :     0.009137  p :     0.018050
      px      :     0.003424
      py      :     0.005489

 14 H s       :     0.778950  s :     0.778950
      pz      :     0.007595  p :     0.018425
      px      :     0.004890
      py      :     0.005940

 15 H s       :     0.817361  s :     0.817361
      pz      :     0.003750  p :     0.018017
      px      :     0.005157
      py      :     0.009111

 16 H s       :     0.811989  s :     0.811989
      pz      :     0.010408  p :     0.017919
      px      :     0.003593
      py      :     0.003918


------------------------
MULLIKEN OVERLAP CHARGES
------------------------
B(  0-C ,  1-C ) :   0.2733 B(  0-C ,  5-C ) :  -0.2886 B(  0-C ,  6-C ) :   0.4374 
B(  0-C ,  7-H ) :   0.8488 B(  0-C ,  8-H ) :   0.7765 B(  0-C ,  9-H ) :  -0.1234 
B(  0-C , 16-H ) :  -0.1481 B(  1-C ,  2-C ) :   0.1157 B(  1-C ,  5-C ) :   0.1047 
B(  1-C ,  6-C ) :  -0.1706 B(  1-C ,  9-H ) :   0.9035 B(  1-C , 10-H ) :   0.8288 
B(  2-C ,  3-C ) :   0.5104 B(  2-C ,  4-O ) :  -0.2270 B(  2-C ,  5-C ) :  -0.4135 
B(  2-C ,  9-H ) :  -0.0940 B(  2-C , 10-H ) :  -0.0906 B(  2-C , 11-H ) :   0.8036 
B(  2-C , 12-H ) :   0.7562 B(  3-C ,  4-O ) :   1.1056 B(  3-C ,  5-C ) :   0.4628 
B(  3-C ,  6-C ) :  -0.0837 B(  3-C , 11-H ) :  -0.0663 B(  3-C , 13-H ) :  -0.0963 
B(  4-O ,  5-C ) :  -0.2322 B(  5-C ,  6-C ) :   0.1237 B(  5-C , 13-H ) :   0.8747 
B(  5-C , 14-H ) :   0.7641 B(  5-C , 16-H ) :  -0.0557 B(  6-C ,  7-H ) :  -0.1293 
B(  6-C ,  8-H ) :  -0.0543 B(  6-C , 13-H ) :  -0.0588 B(  6-C , 14-H ) :  -0.0605 
B(  6-C , 15-H ) :   0.7487 B(  6-C , 16-H ) :   0.8924 


                     *******************************
                     * LOEWDIN POPULATION ANALYSIS *
                     *******************************

----------------------
LOEWDIN ATOMIC CHARGES
----------------------
   0 C :   -0.302134
   1 C :   -0.286767
   2 C :   -0.270946
   3 C :    0.241372
   4 O :   -0.541672
   5 C :   -0.276286
   6 C :   -0.297406
   7 H :    0.160811
   8 H :    0.162080
   9 H :    0.163169
  10 H :    0.163560
  11 H :    0.178994
  12 H :    0.192603
  13 H :    0.189153
  14 H :    0.196180
  15 H :    0.164041
  16 H :    0.163247

-------------------------------
LOEWDIN REDUCED ORBITAL CHARGES
-------------------------------
  0 C s       :     2.930764  s :     2.930764
      pz      :     1.114038  p :     3.292562
      px      :     1.124204
      py      :     1.054319
      dz2     :     0.020920  d :     0.078809
      dxz     :     0.005878
      dyz     :     0.017104
      dx2y2   :     0.021980
      dxy     :     0.012927

  1 C s       :     2.931715  s :     2.931715
      pz      :     1.133248  p :     3.277424
      px      :     1.054180
      py      :     1.089996
      dz2     :     0.009932  d :     0.077629
      dxz     :     0.016005
      dyz     :     0.019631
      dx2y2   :     0.016496
      dxy     :     0.015565

  2 C s       :     2.927412  s :     2.927412
      pz      :     1.110026  p :     3.270250
      px      :     1.072021
      py      :     1.088203
      dz2     :     0.019425  d :     0.073283
      dxz     :     0.010678
      dyz     :     0.007356
      dx2y2   :     0.013547
      dxy     :     0.022277

  3 C s       :     2.828029  s :     2.828029
      pz      :     0.720956  p :     2.731847
      px      :     0.972766
      py      :     1.038126
      dz2     :     0.017583  d :     0.198752
      dxz     :     0.033696
      dyz     :     0.018783
      dx2y2   :     0.046317
      dxy     :     0.082373

  4 O s       :     3.558874  s :     3.558874
      pz      :     1.439417  p :     4.752558
      px      :     1.508584
      py      :     1.804557
      dz2     :     0.025177  d :     0.230240
      dxz     :     0.050758
      dyz     :     0.016902
      dx2y2   :     0.055284
      dxy     :     0.082118

  5 C s       :     2.929465  s :     2.929465
      pz      :     1.143587  p :     3.272679
      px      :     1.057885
      py      :     1.071207
      dz2     :     0.013432  d :     0.074142
      dxz     :     0.011910
      dyz     :     0.012663
      dx2y2   :     0.016988
      dxy     :     0.019150

  6 C s       :     2.928721  s :     2.928721
      pz      :     1.124102  p :     3.289148
      px      :     1.056775
      py      :     1.108271
      dz2     :     0.022067  d :     0.079537
      dxz     :     0.010074
      dyz     :     0.012053
      dx2y2   :     0.018817
      dxy     :     0.016527

  7 H s       :     0.795416  s :     0.795416
      pz      :     0.025419  p :     0.043772
      px      :     0.009254
      py      :     0.009099

  8 H s       :     0.793923  s :     0.793923
      pz      :     0.008224  p :     0.043997
      px      :     0.027473
      py      :     0.008300

  9 H s       :     0.792877  s :     0.792877
      pz      :     0.021536  p :     0.043953
      px      :     0.008057
      py      :     0.014360

 10 H s       :     0.792304  s :     0.792304
      pz      :     0.015670  p :     0.044137
      px      :     0.015418
      py      :     0.013049

 11 H s       :     0.777301  s :     0.777301
      pz      :     0.007900  p :     0.043705
      px      :     0.013765
      py      :     0.022040

 12 H s       :     0.761647  s :     0.761647
      pz      :     0.027681  p :     0.045750
      px      :     0.009308
      py      :     0.008762

 13 H s       :     0.766468  s :     0.766468
      pz      :     0.022883  p :     0.044380
      px      :     0.008140
      py      :     0.013357

 14 H s       :     0.758608  s :     0.758608
      pz      :     0.018745  p :     0.045212
      px      :     0.011993
      py      :     0.014474

 15 H s       :     0.791963  s :     0.791963
      pz      :     0.008882  p :     0.043996
      px      :     0.012388
      py      :     0.022725

 16 H s       :     0.792700  s :     0.792700
      pz      :     0.026151  p :     0.044053
      px      :     0.008455
      py      :     0.009448


---------------------------------
LOEWDIN BOND ORDERS (THRESH 0.050000)
---------------------------------
B(  0-C ,  1-C ) :   1.0990 B(  0-C ,  2-C ) :   0.0544 B(  0-C ,  5-C ) :   0.0653 
B(  0-C ,  6-C ) :   1.1019 B(  0-C ,  7-H ) :   0.8879 B(  0-C ,  8-H ) :   0.8937 
B(  1-C ,  2-C ) :   1.0700 B(  1-C ,  3-C ) :   0.0710 B(  1-C ,  6-C ) :   0.0593 
B(  1-C ,  9-H ) :   0.8951 B(  1-C , 10-H ) :   0.8927 B(  2-C ,  3-C ) :   1.0126 
B(  2-C ,  4-O ) :   0.2185 B(  2-C ,  5-C ) :   0.0780 B(  2-C , 11-H ) :   0.8772 
B(  2-C , 12-H ) :   0.8494 B(  3-C ,  4-O ) :   2.3264 B(  3-C ,  5-C ) :   1.0068 
B(  3-C ,  6-C ) :   0.0671 B(  3-C , 12-H ) :   0.0538 B(  3-C , 14-H ) :   0.0508 
B(  4-O ,  5-C ) :   0.2193 B(  5-C ,  6-C ) :   1.0915 B(  5-C , 13-H ) :   0.8620 
B(  5-C , 14-H ) :   0.8526 B(  6-C , 15-H ) :   0.8896 B(  6-C , 16-H ) :   0.8854 


------------------------------------------
LOEWDIN REDUCED ORBITAL POPULATIONS PER MO
-------------------------------------------
THRESHOLD FOR PRINTING IS 0.1%%
                      0         1         2         3         4         5   
                 -18.94387 -10.12113 -10.02828 -10.02809 -10.02646 -10.02250
                   2.00000   2.00000   2.00000   2.00000   2.00000   2.00000
                  --------  --------  --------  --------  --------  --------
 1 C  s               0.0       0.0       0.0       0.1      99.5       0.0
 2 C  s               0.0       0.0       0.0      99.5       0.2       0.0
 3 C  s               0.0      99.2       0.0       0.0       0.0       0.0
 4 O  s              99.9       0.0       0.0       0.0       0.0       0.0
 4 O  px              0.0       0.2       0.0       0.0       0.0       0.0
 4 O  dxz             0.0       0.1       0.0       0.0       0.0       0.0
 4 O  dx2y2           0.0       0.2       0.0       0.0       0.0       0.0
 5 C  s               0.0       0.0      99.6       0.0       0.0       0.0
 6 C  s               0.0       0.0       0.0       0.0       0.0      99.6

                      6         7         8         9        10        11   
                 -10.01944  -1.01154  -0.79537  -0.71456  -0.68735  -0.59194
                   2.00000   2.00000   2.00000   2.00000   2.00000   2.00000
                  --------  --------  --------  --------  --------  --------
 0 C  s              99.6       0.0      12.7       0.0      19.6       0.0
 0 C  pz              0.0       0.0       1.0       0.1       0.1       1.0
 0 C  px              0.0       0.0       1.5       0.0       0.2       0.0
 0 C  py              0.0       0.0       0.0       6.0       0.0       8.0
 0 C  dyz             0.0       0.0       0.0       0.1       0.0       0.1
 1 C  s               0.0       0.1      11.8      13.3       3.1       9.4
 1 C  pz              0.0       0.0       0.1       0.3       1.1       1.1
 1 C  px              0.0       0.1       0.3       1.2       4.7       1.9
 1 C  py              0.1       0.0       1.8       0.3       1.5       0.5
 1 C  dx2y2           0.0       0.0       0.0       0.0       0.1       0.0
 2 C  s               0.0       1.1      10.3      14.5       8.5       5.1
 2 C  pz              0.0       0.3       0.4       0.2       0.2       1.3
 2 C  px              0.0       0.9       1.1       0.9       1.9       3.3
 2 C  py              0.0       0.8       0.8       0.7       0.9       0.0
 3 C  s               0.0      17.2       3.8       0.0       6.7       0.0
 3 C  pz              0.0       1.6       0.7       0.2       1.6       0.7
 3 C  px              0.0      11.5       7.3       0.0       5.6       0.0
 3 C  py              0.0       0.1       0.0      10.1       0.0      10.4
 3 C  dz2             0.0       0.2       0.0       0.0       0.0       0.0
 3 C  dxz             0.0       0.6       0.0       0.0       0.0       0.0
 3 C  dx2y2           0.0       0.9       0.1       0.0       0.2       0.0
 3 C  dxy             0.0       0.0       0.0       0.2       0.0       0.1
 4 O  s               0.0      54.6       2.1       0.0       3.4       0.1
 4 O  pz              0.0       0.7       0.1       0.0       0.3       0.0
 4 O  px              0.0       5.1       0.4       0.0       1.5       0.0
 4 O  py              0.0       0.0       0.0       0.4       0.0       1.6
 4 O  dz2             0.0       0.1       0.1       0.0       0.1       0.0
 4 O  dxz             0.0       0.2       0.2       0.0       0.4       0.0
 4 O  dyz             0.0       0.0       0.0       0.1       0.0       0.1
 4 O  dx2y2           0.0       0.3       0.1       0.0       0.4       0.0
 4 O  dxy             0.0       0.0       0.0       0.5       0.0       0.8
 5 C  s               0.0       1.1      10.6      15.7       6.2       6.3
 5 C  pz              0.0       0.0       0.0       0.0       0.0       0.5
 5 C  px              0.0       0.8       1.4       0.8       2.4       6.3
 5 C  py              0.0       1.1       1.0       0.4       0.6       0.2
 6 C  s               0.1       0.1      13.2      10.6       3.6      10.8
 6 C  pz              0.0       0.0       0.6       0.0       0.8       0.5
 6 C  px              0.0       0.1       0.7       1.6       4.7       2.6
 6 C  py              0.0       0.0       1.2       0.9       1.2       0.1
 7 H  s               0.0       0.0       1.4       0.0       3.5       0.1
 7 H  pz              0.0       0.0       0.1       0.0       0.3       0.0
 8 H  s               0.0       0.0       1.4       0.0       4.1       0.0
 8 H  px              0.0       0.0       0.1       0.0       0.4       0.0
 9 H  s               0.0       0.0       1.3       2.3       0.6       3.6
 9 H  pz              0.0       0.0       0.1       0.2       0.0       0.2
10 H  s               0.0       0.0       1.3       2.3       0.6       3.1
10 H  pz              0.0       0.0       0.0       0.1       0.0       0.1
11 H  s               0.0       0.1       1.1       2.7       1.6       2.1
11 H  py              0.0       0.0       0.1       0.2       0.1       0.1
12 H  s               0.0       0.1       1.3       2.4       2.0       2.2
12 H  pz              0.0       0.0       0.1       0.2       0.2       0.2
13 H  s               0.0       0.1       1.2       2.8       1.1       2.9
13 H  pz              0.0       0.0       0.1       0.2       0.1       0.2
14 H  s               0.0       0.1       1.2       2.8       1.4       2.5
14 H  pz              0.0       0.0       0.1       0.1       0.1       0.1
15 H  s               0.0       0.0       1.4       1.9       0.8       3.9
15 H  py              0.0       0.0       0.1       0.1       0.1       0.3
16 H  s               0.0       0.0       1.5       1.5       0.6       3.8
16 H  pz              0.0       0.0       0.1       0.1       0.1       0.3

                     12        13        14        15        16        17   
                  -0.55190  -0.47743  -0.45627  -0.44407  -0.41911  -0.38243
                   2.00000   2.00000   2.00000   2.00000   2.00000   2.00000
                  --------  --------  --------  --------  --------  --------
 0 C  s              10.0       2.3       0.5       0.1       0.1       0.0
 0 C  pz              3.2       5.6       3.3       0.1       2.3       7.3
 0 C  px              0.9       1.7       4.9       8.8       0.0       0.6
 0 C  py              0.2       0.9       0.8       0.0       3.7       3.1
 1 C  s               5.9       1.3       0.1       0.2       0.0       0.0
 1 C  pz              1.3       0.0       7.9       0.4      10.0       6.9
 1 C  px              0.4       0.4       4.4       2.7       0.4       6.0
 1 C  py              6.6       0.0       0.8       4.9       0.2       3.6
 2 C  s               0.2       4.0       0.1       0.0       0.3       0.1
 2 C  pz              0.0       3.0      15.7       0.0       1.9       0.1
 2 C  px              4.6       1.1       1.0       4.1       4.8       0.4
 2 C  py              4.7       8.8       0.6       2.6       3.0       3.0
 2 C  dx2y2           0.1       0.0       0.0       0.0       0.0       0.0
 2 C  dxy             0.0       0.1       0.0       0.0       0.0       0.0
 3 C  s               5.5       4.6       0.2       1.5       0.1       0.1
 3 C  pz              0.3       0.0       6.5       0.7       6.7       1.6
 3 C  px              1.9       1.0       0.6       5.5       0.6       0.1
 3 C  py              0.0       0.1       4.0       0.2       6.2      12.0
 4 O  s               3.0       1.9       0.6       8.4       1.2       0.1
 4 O  pz              0.6       0.4       1.0       7.4       1.5       0.9
 4 O  px              3.6       6.0       3.7      22.0       7.3       2.4
 4 O  py              0.0       0.2       2.1       0.0       7.3      13.7
 4 O  dz2             0.0       0.0       0.2       0.0       0.1       0.0
 4 O  dxz             0.2       0.0       0.1       0.2       0.3       0.1
 4 O  dyz             0.0       0.0       0.1       0.0       0.0       0.2
 4 O  dx2y2           0.4       0.5       0.1       0.1       0.0       0.0
 4 O  dxy             0.0       0.0       0.2       0.0       0.5       0.4
 5 C  s               0.7       2.8       0.0       0.0       0.3       0.6
 5 C  pz              0.7       1.2       6.8       1.0      17.1       3.0
 5 C  px              2.7       0.2       4.0       2.1       0.7       2.0
 5 C  py              4.6      11.9       0.1       3.2       1.4       7.7
 5 C  dz2             0.0       0.1       0.0       0.0       0.0       0.1
 5 C  dx2y2           0.2       0.0       0.0       0.0       0.0       0.0
 5 C  dxy             0.0       0.1       0.0       0.0       0.1       0.2
 6 C  s               5.0       1.3       0.3       0.3       0.1       0.3
 6 C  pz              3.5       5.4       4.4       1.0       3.1       0.1
 6 C  px              0.6       0.2       0.4       4.2       3.5       1.7
 6 C  py              4.0       1.3       3.1       5.0       0.3       0.3
 6 C  dyz             0.1       0.0       0.0       0.0       0.0       0.0
 6 C  dxy             0.0       0.1       0.0       0.0       0.0       0.1
 7 H  s               5.2       3.9       0.8       0.0       0.4       3.7
 7 H  pz              0.3       0.1       0.0       0.0       0.0       0.1
 8 H  s               4.2       2.1       2.6       2.7       0.0       0.6
 8 H  px              0.3       0.1       0.1       0.1       0.0       0.0
 9 H  s               2.5       0.4       3.1       1.3       2.2       5.1
 9 H  pz              0.2       0.0       0.1       0.0       0.0       0.1
10 H  s               3.7       0.6       1.3       1.4       0.8       2.2
10 H  px              0.2       0.0       0.0       0.0       0.1       0.0
10 H  py              0.0       0.0       0.1       0.0       0.0       0.1
11 H  s               0.2       6.8       0.4       1.4       0.1       0.8
11 H  px              0.0       0.1       0.0       0.0       0.1       0.1
11 H  py              0.0       0.2       0.0       0.1       0.0       0.0
12 H  s               0.1       3.0       6.4       0.2       1.3       0.2
12 H  pz              0.0       0.1       0.2       0.0       0.0       0.0
13 H  s               0.3       5.8       1.0       0.0       2.3       5.1
13 H  pz              0.0       0.3       0.0       0.0       0.0       0.1
13 H  py              0.0       0.0       0.0       0.0       0.1       0.0
14 H  s               0.6       2.9       2.1       1.6       5.7       0.1
14 H  pz              0.0       0.2       0.0       0.0       0.0       0.0
14 H  px              0.0       0.0       0.0       0.0       0.1       0.0
15 H  s               2.6       0.0       1.3       3.0       0.3       1.1
16 H  s               2.8       3.6       1.2       0.5       0.2       0.4
16 H  pz              0.1       0.2       0.0       0.0       0.0       0.0

                     18        19        20        21        22        23   
                  -0.37640  -0.37155  -0.34580  -0.33922  -0.32737  -0.29108
                   2.00000   2.00000   2.00000   2.00000   2.00000   2.00000
                  --------  --------  --------  --------  --------  --------
 0 C  s               0.0       0.8       0.0       0.2       0.0       0.1
 0 C  pz              3.0       0.6       0.5      10.6       2.0       1.2
 0 C  px             11.7       5.1       0.0       0.4       1.3       0.3
 0 C  py              0.0       0.4       0.6       3.5       5.7      16.8
 0 C  dz2             0.0       0.1       0.0       0.0       0.0       0.4
 0 C  dx2y2           0.1       0.0       0.0       0.0       0.1       0.0
 0 C  dxy             0.0       0.0       0.2       0.0       0.1       0.1
 1 C  s               0.2       0.2       0.4       0.3       0.0       0.2
 1 C  pz              0.3       0.1       0.1       1.8      13.3       0.1
 1 C  px              0.7       6.0       7.7       1.8       1.0       0.8
 1 C  py              0.1       8.1       6.7       0.1       2.4      14.1
 1 C  dz2             0.0       0.0       0.0       0.1       0.0       0.1
 1 C  dxz             0.0       0.1       0.2       0.0       0.0       0.1
 1 C  dx2y2           0.1       0.0       0.0       0.0       0.1       0.0
 1 C  dxy             0.0       0.1       0.0       0.0       0.1       0.2
 2 C  s               0.2       0.1       0.6       0.1       0.0       0.2
 2 C  pz              9.9       1.0       0.4      10.4       3.0       0.3
 2 C  px              1.1       0.9      10.3       0.1       4.1       0.7
 2 C  py              1.3       7.3      10.6       0.5       0.2       2.4
 2 C  dz2             0.0       0.0       0.1       0.3       0.1       0.0
 2 C  dx2y2           0.1       0.1       0.1       0.0       0.0       0.0
 2 C  dxy             0.0       0.3       0.1       0.0       0.0       0.3
 3 C  s               0.3       1.6       0.0       0.0       0.1       0.0
 3 C  pz              4.4       2.4       0.0       6.8       1.1       0.1
 3 C  px              6.8       5.7       0.0       0.7       0.3       0.0
 3 C  py              0.2       0.1       0.9       0.0       0.0       1.7
 3 C  dz2             0.0       0.0       0.0       0.3       0.0       0.0
 3 C  dxz             0.0       0.0       0.0       0.5       0.1       0.0
 3 C  dyz             0.0       0.1       0.0       0.0       0.3       0.0
 3 C  dx2y2           0.4       0.0       0.0       0.0       0.0       0.0
 3 C  dxy             0.0       0.0       0.4       0.0       0.0       0.1
 4 O  s               1.1       1.4       0.0       0.0       0.0       0.0
 4 O  pz             17.1       0.1       0.2      22.6       3.9       0.0
 4 O  px              3.3       8.8       0.1       6.6       2.1       0.0
 4 O  py              0.0       0.4       0.4       0.0       0.9       9.1
 4 O  dz2             0.4       0.0       0.0       0.0       0.0       0.0
 4 O  dxz             0.1       0.2       0.0       0.2       0.0       0.0
 4 O  dyz             0.0       0.0       0.0       0.0       0.1       0.0
 4 O  dx2y2           0.1       0.3       0.0       0.1       0.0       0.0
 5 C  s               0.1       0.0       0.8       0.0       0.1       0.1
 5 C  pz              0.0       3.5       0.1       0.1      18.0       0.8
 5 C  px              5.4       0.4       6.2       1.8       0.9       3.7
 5 C  py              0.4       2.9       8.0       0.2       0.6       1.5
 5 C  dz2             0.0       0.0       0.0       0.0       0.1       0.1
 5 C  dxz             0.0       0.0       0.0       0.1       0.1       0.0
 5 C  dyz             0.0       0.1       0.0       0.0       0.3       0.0
 5 C  dx2y2           0.2       0.0       0.1       0.0       0.0       0.1
 5 C  dxy             0.0       0.2       0.0       0.0       0.0       0.2
 6 C  s               0.1       0.0       0.5       0.1       0.1       0.0
 6 C  pz              5.6       4.2       0.1       8.5       3.9       1.2
 6 C  px              4.9       1.1       9.6       2.8       2.1       3.1
 6 C  py              0.5      10.2       9.2       2.0       0.5      12.8
 6 C  dz2             0.0       0.1       0.0       0.0       0.1       0.5
 6 C  dxz             0.0       0.0       0.0       0.0       0.1       0.0
 6 C  dx2y2           0.0       0.0       0.2       0.0       0.1       0.0
 6 C  dxy             0.0       0.1       0.1       0.0       0.0       0.1
 7 H  s               2.4       0.1       0.1       3.2       1.4       3.4
 7 H  py              0.0       0.0       0.0       0.1       0.0       0.1
 8 H  s               6.1       1.1       0.0       0.1       0.8       0.6
 8 H  px              0.1       0.0       0.0       0.0       0.0       0.0
 8 H  py              0.0       0.0       0.0       0.0       0.1       0.2
 9 H  s               0.0       0.9       0.4       0.3       3.0       2.7
 9 H  py              0.0       0.0       0.0       0.0       0.1       0.0
10 H  s               0.6       5.7       2.9       0.0       3.4       1.2
10 H  pz              0.0       0.1       0.1       0.0       0.0       0.0
10 H  px              0.0       0.0       0.0       0.0       0.1       0.1
11 H  s               2.6       2.6       8.8       0.5       0.2       3.5
12 H  s               3.8       0.3       0.5       7.6       1.5       0.5
13 H  s               0.1       0.1       0.5       0.1      10.2       2.7
14 H  s               0.3       3.8       2.7       0.4       4.0       0.7
15 H  s               0.0       6.8       7.5       0.0       0.0       5.0
15 H  px              0.1       0.0       0.0       0.0       0.0       0.2
15 H  py              0.0       0.1       0.1       0.0       0.0       0.0
16 H  s               2.7       2.5       0.0       3.0       4.1       4.6

                     24        25        26        27        28        29   
                  -0.28634  -0.28024  -0.21729  -0.04879   0.09115   0.11356
                   2.00000   2.00000   2.00000   0.00000   0.00000   0.00000
                  --------  --------  --------  --------  --------  --------
 0 C  s               0.3       0.1       0.0       0.2       4.6       9.5
 0 C  pz              1.1      12.7       0.0       0.1       1.4       3.1
 0 C  px             17.1       1.6       0.0       0.3       0.5       7.8
 0 C  py              0.0       1.4       1.3       0.2       1.5       0.1
 0 C  dz2             0.0       0.4       0.0       0.0       0.0       0.3
 0 C  dxz             0.0       0.0       0.0       0.0       0.1       0.1
 0 C  dyz             0.0       0.3       0.0       0.0       0.3       0.0
 0 C  dx2y2           0.7       0.0       0.0       0.0       0.6       0.0
 1 C  s               0.1       0.0       0.1       1.4       3.3       5.0
 1 C  pz              0.1      11.8       0.1       0.5       0.3       0.9
 1 C  px              9.9       1.3       0.8       1.2       2.9       6.3
 1 C  py              0.6       0.9       1.2       0.1       1.6       1.8
 1 C  dxz             0.2       0.0       0.1       0.0       1.1       0.1
 1 C  dyz             0.1       0.6       0.0       0.0       0.0       1.0
 1 C  dx2y2           0.2       0.1       0.0       0.0       0.1       0.0
 1 C  dxy             0.0       0.0       0.1       0.1       0.0       0.1
 2 C  s               0.3       0.0       0.8       0.1      12.9       0.9
 2 C  pz              1.3       4.3       1.8       0.2       1.0       1.7
 2 C  px              8.1       0.2       4.0       0.1       2.6       4.7
 2 C  py              0.3       0.9       4.9       0.1       0.1       1.5
 2 C  dz2             0.0       0.3       0.0       0.8       0.1       0.3
 2 C  dxz             0.0       0.0       0.0       0.3       0.0       0.3
 2 C  dyz             0.0       0.0       0.0       0.4       0.1       0.0
 2 C  dx2y2           0.0       0.0       0.0       0.1       0.1       0.3
 2 C  dxy             0.0       0.0       0.1       0.1       0.1       1.1
 3 C  s               0.2       0.2       0.0       0.1       8.3       2.3
 3 C  pz              0.1       0.3       0.2      39.5       0.4       0.2
 3 C  px              0.6       0.3       0.0       5.9       1.9       4.6
 3 C  py              0.0       0.0       5.6       1.0       0.3       0.0
 3 C  dz2             0.1       0.1       0.0       0.3       0.6       0.4
 3 C  dxz             0.0       0.2       0.1       0.8       0.4       0.7
 3 C  dyz             0.0       0.0       0.4       0.0       0.1       0.0
 3 C  dx2y2           0.4       0.0       0.0       0.2       0.0       0.5
 3 C  dxy             0.0       0.0       3.2       0.0       0.0       0.0
 4 O  s               0.1       0.0       0.0       0.0       1.7       1.8
 4 O  pz             10.0       3.5       1.7      21.1       0.3       0.3
 4 O  px              0.1       2.2       0.0       3.2       0.5       0.5
 4 O  py              0.4       0.0      53.9       0.6       0.3       0.0
 4 O  dz2             0.0       0.1       0.0       2.2       1.6       0.6
 4 O  dxz             0.1       0.0       0.1       4.3       0.7       0.1
 4 O  dyz             0.0       0.0       0.2       0.0       0.0       0.0
 4 O  dx2y2           0.0       0.0       0.0       1.1       0.1       0.2
 4 O  dxy             0.0       0.0       1.5       0.1       0.1       0.0
 5 C  s               0.3       0.1       1.0       0.0       8.4       0.1
 5 C  pz              2.2       2.0       0.1       0.1       0.0       2.2
 5 C  px              8.3       0.6       2.1       0.0       1.2       1.3
 5 C  py              0.1       0.2       7.5       0.0       0.7       1.0
 5 C  dz2             0.0       0.0       0.0       0.0       0.3       0.0
 5 C  dxz             0.2       0.1       0.0       0.0       0.1       0.0
 5 C  dyz             0.1       0.0       0.0       1.6       0.0       0.2
 5 C  dx2y2           0.0       0.0       0.0       0.1       0.0       0.2
 5 C  dxy             0.0       0.0       0.1       0.1       0.0       0.2
 6 C  s               0.0       0.3       0.1       0.1       7.3       2.0
 6 C  pz              2.9      10.3       0.0       0.1       0.8       1.3
 6 C  px              8.0       0.1       0.8       0.2       1.2       1.7
 6 C  py              0.2       1.7       1.0       0.0       0.2       4.1
 6 C  dz2             0.0       0.3       0.0       0.0       0.0       0.3
 6 C  dyz             0.1       0.1       0.0       0.0       0.0       0.6
 6 C  dx2y2           0.3       0.0       0.0       0.0       0.0       0.0
 6 C  dxy             0.0       0.1       0.2       0.0       0.0       0.6
 7 H  s               0.1       9.8       0.1       0.1       1.8       1.8
 7 H  pz              0.0       0.0       0.0       0.0       0.3       1.4
 7 H  px              0.2       0.0       0.0       0.0       0.4       0.0
 7 H  py              0.0       0.0       0.0       0.0       0.1       0.1
 8 H  s              11.5       1.6       0.0       0.1       2.8       0.7
 8 H  pz              0.0       0.1       0.0       0.0       0.2       0.0
 8 H  px              0.1       0.0       0.0       0.0       0.7       0.7
 9 H  s               0.1       9.7       0.0       0.0       1.2       3.9
 9 H  pz              0.0       0.0       0.0       0.0       0.2       1.2
 9 H  px              0.1       0.0       0.0       0.0       0.5       0.1
 9 H  py              0.0       0.0       0.0       0.0       0.0       0.3
10 H  s               2.2       4.9       1.3       0.5       2.4       0.3
10 H  pz              0.0       0.0       0.0       0.0       0.6       0.0
10 H  px              0.0       0.0       0.0       0.1       0.1       0.4
11 H  s               1.7       1.3       0.2       0.1       0.8       4.7
11 H  px              0.0       0.0       0.0       0.0       0.5       0.0
11 H  py              0.0       0.0       0.1       0.0       0.3       0.3
12 H  s               0.0       4.3       0.5       3.0       3.3       0.5
12 H  pz              0.0       0.0       0.0       0.1       1.4       0.5
12 H  px              0.1       0.0       0.1       0.0       0.0       0.4
12 H  py              0.0       0.0       0.1       0.1       0.1       0.2
13 H  s               1.0       0.8       0.2       2.5       1.8       0.6
13 H  pz              0.0       0.0       0.0       0.0       0.8       0.0
13 H  px              0.1       0.0       0.0       0.0       0.0       0.0
13 H  py              0.0       0.0       0.1       0.0       0.0       0.2
14 H  s               3.9       1.0       0.3       3.8       1.7       0.2
14 H  pz              0.0       0.0       0.0       0.0       0.8       0.1
14 H  py              0.0       0.0       0.1       0.1       0.0       0.0
15 H  s               2.3       0.1       1.5       0.0       0.8       3.9
15 H  pz              0.0       0.1       0.0       0.0       0.1       0.3
15 H  px              0.0       0.0       0.0       0.0       0.1       0.6
15 H  py              0.1       0.0       0.0       0.0       0.5       0.4
16 H  s               0.8       5.8       0.1       0.0       1.6       0.3
16 H  pz              0.0       0.0       0.0       0.0       0.8       0.0
16 H  py              0.0       0.1       0.0       0.0       0.1       0.6

                     30        31        32        33        34        35   
                   0.12577   0.12879   0.13858   0.14380   0.15199   0.17216
                   0.00000   0.00000   0.00000   0.00000   0.00000   0.00000
                  --------  --------  --------  --------  --------  --------
 0 C  s               3.5       3.8       0.2       0.0       3.2       0.2
 0 C  pz              4.3       0.8       1.6       6.7       1.7       0.5
 0 C  px              2.4       2.9       0.2       6.1       3.9       3.8
 0 C  py              0.5       6.0       3.4       2.6       4.6       2.9
 0 C  dz2             0.0       0.2       0.2       1.4       0.1       0.1
 0 C  dxz             0.2       0.1       0.2       0.2       0.2       0.2
 0 C  dyz             0.0       0.1       0.0       0.7       0.4       0.0
 0 C  dx2y2           0.4       0.1       0.1       0.2       0.8       0.4
 0 C  dxy             0.0       0.3       0.0       0.3       0.2       0.6
 1 C  s               0.2       7.5       7.3       2.2       0.9       2.0
 1 C  pz              3.2       1.8       0.0       6.6       1.8       2.0
 1 C  px              0.9       0.1       1.8       8.0       2.6       3.2
 1 C  py              3.4      12.3       3.6       2.7       0.8       0.2
 1 C  dz2             0.1       0.1       0.0       0.3       0.0       0.0
 1 C  dxz             0.0       0.3       0.5       0.0       0.0       0.5
 1 C  dyz             0.2       0.0       0.0       1.0       0.6       0.3
 1 C  dx2y2           0.5       0.3       0.0       0.2       0.0       0.3
 1 C  dxy             0.1       0.1       0.0       0.4       0.0       0.4
 2 C  s               0.7       1.6       2.1       0.4       3.5       2.4
 2 C  pz              1.5       0.4       0.1       4.6       3.2       2.8
 2 C  px              1.7       3.4       0.2       1.5       0.6       2.9
 2 C  py              3.4       5.9       7.1       0.2       4.8       3.4
 2 C  dz2             0.2       0.3       0.1       0.5       0.0       0.0
 2 C  dxz             0.0       0.2       0.0       0.0       0.1       0.5
 2 C  dyz             0.1       0.0       0.0       0.0       0.2       0.0
 2 C  dx2y2           0.5       0.6       0.0       0.1       0.1       0.0
 2 C  dxy             0.2       0.0       0.0       0.0       1.1       0.1
 3 C  s               2.6       2.8       0.1       0.6       1.5       0.8
 3 C  pz              1.2       0.5       1.5       1.3       4.7       0.8
 3 C  px             10.8       1.4       0.2       0.8       0.3       1.5
 3 C  py              0.1       0.5       3.1       0.5       2.0       0.4
 3 C  dz2             0.0       0.2       0.0       0.1       0.1       0.1
 3 C  dxz             0.1       0.0       0.0       0.0       0.3       0.1
 3 C  dx2y2           0.9       0.2       0.0       0.0       0.0       0.0
 4 O  s               3.1       0.5       0.0       0.1       0.2       0.2
 4 O  pz              0.3       0.2       0.1       0.2       0.1       0.3
 4 O  px              1.4       0.1       0.2       0.1       0.0       0.0
 4 O  py              0.1       0.3       0.6       0.4       0.3       0.1
 4 O  dz2             0.0       0.0       0.0       0.1       1.4       0.3
 4 O  dxz             0.8       0.1       0.2       0.2       0.1       0.1
 4 O  dyz             0.0       0.2       0.2       0.4       0.1       1.2
[...]
 6 C  py              0.1       0.4       0.6       0.6       3.0       3.0
 6 C  dz2             3.3       0.6       1.0       2.5       3.8       1.1
 6 C  dxz             0.5       0.7       0.0       0.8       0.1       0.2
 6 C  dyz             0.1       0.3       1.5       4.1       0.1       0.1
 6 C  dx2y2           0.0       5.4       1.9       0.0       0.1       0.9
 6 C  dxy             0.0       0.5       1.2       0.4       2.4       1.7
 7 H  s               0.2       1.2       0.1       3.1       2.0       0.5
 7 H  pz              0.1       2.6       0.2       7.9       3.8       0.5
 7 H  px              0.0       0.4       0.1       1.3       0.1       0.2
 7 H  py              0.0       0.3       0.0       0.5       0.3       0.0
 8 H  s               1.0       0.2       0.9       0.3       4.3       0.6
 8 H  pz              0.0       0.2       0.0       0.4       0.0       0.5
 8 H  px              2.6       0.8       2.3       0.7       8.7       1.7
 8 H  py              0.1       0.0       0.1       0.0       0.2       0.0
 9 H  s               0.9       0.0       0.4       0.9       1.6       1.7
 9 H  pz              1.7       0.0       1.2       2.5       1.6       2.0
 9 H  px              0.0       0.0       0.0       0.2       0.1       0.0
 9 H  py              1.2       0.1       0.1       0.2       2.5       1.0
10 H  s               0.2       0.0       0.6       1.7       2.0       1.6
10 H  pz              0.2       0.0       0.9       3.2       1.4       0.6
10 H  px              0.1       0.1       0.5       1.3       1.7       0.9
10 H  py              0.0       0.1       0.0       0.8       0.7       1.4
11 H  s               1.2       0.1       0.1       0.1       0.2       5.4
11 H  pz              0.0       0.2       0.1       0.2       0.2       0.0
11 H  px              0.9       0.0       0.0       0.0       0.2       2.8
11 H  py              2.0       0.0       0.0       0.2       0.1       7.8
12 H  s               1.5       4.6       0.4       0.8       0.1       2.0
12 H  pz              4.1      12.8       1.0       2.1       0.4       3.7
12 H  px              0.0       0.2       0.0       0.3       0.0       0.0
12 H  py              0.0       0.4       0.3       0.2       0.2       0.2
13 H  s               1.0       0.0       5.4       0.5       0.9       0.0
13 H  pz              0.6       0.3      11.0       0.8       1.0       0.0
13 H  px              0.2       0.2       0.1       0.1       0.1       0.0
13 H  py              1.1       0.0       2.8       0.5       1.0       0.2
14 H  s               6.2       1.1       0.1       0.1       1.3       0.0
14 H  pz              9.0       2.2       0.2       0.1       0.8       0.0
14 H  px              2.4       0.1       0.3       0.2       0.7       0.0
14 H  py              5.5       0.8       0.3       0.1       1.5       0.0
15 H  s               0.1       0.5       0.8       0.0       2.6       2.1
15 H  pz              0.6       0.2       0.1       0.2       0.1       0.1
15 H  px              0.3       0.0       0.2       0.0       0.7       1.5
15 H  py              0.2       1.8       2.2       0.0       4.7       3.0
16 H  s               1.4       0.1       0.5       2.2       1.5       0.9
16 H  pz              3.0       0.4       1.5       6.2       2.9       1.7
16 H  px              0.0       0.2       0.0       0.2       0.5       0.2
16 H  py              1.0       0.1       0.3       0.4       0.0       0.0

                    180       181       182       183       184       185   
                   4.38261  21.87903  21.96848  22.01652  22.10979  22.17552
                   0.00000   0.00000   0.00000   0.00000   0.00000   0.00000
                  --------  --------  --------  --------  --------  --------
 0 C  s               0.1      15.9       2.2      21.5      30.9      18.4
 1 C  s               0.1      10.9      51.6      11.3       0.0       0.4
 2 C  s               0.0      14.2       1.4      36.1       4.1      43.3
 2 C  px              0.2       0.0       0.0       0.0       0.0       0.0
 2 C  py              0.2       0.0       0.0       0.0       0.0       0.0
 2 C  dz2             0.2       0.0       0.0       0.0       0.0       0.0
 2 C  dxy             0.2       0.0       0.0       0.0       0.0       0.0
 3 C  s               6.4      15.3       0.1       8.4      49.5       1.7
 3 C  pz              1.0       0.0       0.0       0.0       0.0       0.0
 3 C  px              7.0       0.0       0.0       0.0       0.1       0.0
 3 C  dz2             0.7       0.0       0.0       0.0       0.0       0.0
 3 C  dxz             1.9       0.0       0.0       0.0       0.0       0.0
 3 C  dx2y2           3.6       0.0       0.0       0.0       0.0       0.0
 3 C  dxy             0.2       0.0       0.0       0.0       0.0       0.0
 4 O  s              19.3       0.1       0.0       0.0       0.1       0.0
 4 O  pz              2.6       0.0       0.0       0.0       0.0       0.0
 4 O  px             19.6       0.0       0.0       0.0       0.1       0.0
 4 O  dz2             3.3       0.0       0.0       0.0       0.0       0.0
 4 O  dxz            11.0       0.0       0.0       0.0       0.0       0.0
 4 O  dx2y2          19.9       0.0       0.0       0.0       0.0       0.0
 4 O  dxy             0.4       0.0       0.0       0.0       0.0       0.0
 5 C  s               0.1      33.5      33.9       0.4       0.0      11.2
 6 C  s               0.0       9.5      10.5      22.1      14.7      24.7
11 H  s               0.2       0.0       0.0       0.0       0.0       0.0
11 H  px              0.1       0.0       0.0       0.0       0.0       0.0
11 H  py              0.1       0.0       0.0       0.0       0.0       0.0
14 H  py              0.1       0.0       0.0       0.0       0.0       0.0

                    186       187   
                  22.18362  43.62437
                   0.00000   0.00000
                  --------  --------
 0 C  s              10.8       0.0
 1 C  s              25.4       0.0
 2 C  s               0.6       0.0
 3 C  s              24.2       0.0
 4 O  s               0.0      99.9
 5 C  s              20.5       0.0
 6 C  s              18.2       0.0


                      *****************************
                      * MAYER POPULATION ANALYSIS *
                      *****************************

  NA   - Mulliken gross atomic population
  ZA   - Total nuclear charge
  QA   - Mulliken gross atomic charge
  VA   - Mayer's total valence
  BVA  - Mayer's bonded valence
  FA   - Mayer's free valence

  ATOM       NA         ZA         QA         VA         BVA        FA
  0 C      6.2639     6.0000    -0.2639     3.5955     3.5955    -0.0000
  1 C      6.3942     6.0000    -0.3942     3.7385     3.7385     0.0000
  2 C      6.2555     6.0000    -0.2555     3.5894     3.5894     0.0000
  3 C      5.6994     6.0000     0.3006     3.7471     3.7471     0.0000
  4 O      8.4591     8.0000    -0.4591     1.9001     1.9001     0.0000
  5 C      6.4173     6.0000    -0.4173     3.6790     3.6790    -0.0000
  6 C      6.2711     6.0000    -0.2711     3.5765     3.5765    -0.0000
  7 H      0.8426     1.0000     0.1574     0.9614     0.9614    -0.0000
  8 H      0.8350     1.0000     0.1650     0.9568     0.9568    -0.0000
  9 H      0.8288     1.0000     0.1712     0.9531     0.9531     0.0000
 10 H      0.8307     1.0000     0.1693     0.9523     0.9523    -0.0000
 11 H      0.8249     1.0000     0.1751     0.9602     0.9602     0.0000
 12 H      0.8116     1.0000     0.1884     0.9564     0.9564    -0.0000
 13 H      0.8032     1.0000     0.1968     0.9512     0.9512    -0.0000
 14 H      0.7974     1.0000     0.2026     0.9467     0.9467     0.0000
 15 H      0.8354     1.0000     0.1646     0.9562     0.9562    -0.0000
 16 H      0.8299     1.0000     0.1701     0.9584     0.9584    -0.0000

  Mayer bond orders larger than 0.100000
B(  0-C ,  1-C ) :   0.8946 B(  0-C ,  6-C ) :   0.8929 B(  0-C ,  7-H ) :   0.9756 
B(  0-C ,  8-H ) :   0.9535 B(  1-C ,  2-C ) :   0.8587 B(  1-C ,  9-H ) :   0.9952 
B(  1-C , 10-H ) :   0.9752 B(  2-C ,  3-C ) :   0.9643 B(  2-C , 11-H ) :   0.9539 
B(  2-C , 12-H ) :   0.9268 B(  3-C ,  4-O ) :   1.8667 B(  3-C ,  5-C ) :   0.9324 
B(  5-C ,  6-C ) :   0.8547 B(  5-C , 13-H ) :   0.9768 B(  5-C , 14-H ) :   0.9284 
B(  6-C , 15-H ) :   0.9452 B(  6-C , 16-H ) :   0.9904 

-------
TIMINGS
-------

Total SCF time: 0 days 0 hours 0 min 22 sec 

Total time                  ....      22.323 sec
Sum of individual times     ....      21.796 sec  ( 97.6%)

SCF preparation             ....       0.299 sec  (  1.3%)
Fock matrix formation       ....      20.604 sec  ( 92.3%)
  Startup                   ....       0.055 sec  (  0.3% of F)
  Split-RI-J                ....       2.806 sec  ( 13.6% of F)
  XC integration            ....      13.830 sec  ( 67.1% of F)
    Basis function eval.    ....       2.234 sec  ( 16.2% of XC)
    Density eval.           ....       4.535 sec  ( 32.8% of XC)
    XC-Functional eval.     ....       1.572 sec  ( 11.4% of XC)
    XC-Potential eval.      ....       4.433 sec  ( 32.1% of XC)
  CPCM terms                ....       3.364 sec  ( 16.3% of F)
Diagonalization             ....       0.000 sec  (  0.0%)
Density matrix formation    ....       0.250 sec  (  1.1%)
Total Energy calculation    ....       0.043 sec  (  0.2%)
Population analysis         ....       0.091 sec  (  0.4%)
Orbital Transformation      ....       0.057 sec  (  0.3%)
Orbital Orthonormalization  ....       0.000 sec  (  0.0%)
DIIS solution               ....       0.410 sec  (  1.8%)
  MO trafo                  ....       0.000 sec  (  0.0 % of DIIS)
  Orb grad                  ....       0.000 sec  (  0.0 % of DIIS)
  Energy W gradient         ....       0.000 sec  (  0.0 % of DIIS)
  DIIS error                ....       0.009 sec  (  2.1 % of DIIS)
  DIIS work                 ....       0.351 sec  ( 85.5 % of DIIS)
  Form Q                    ....       0.000 sec  (  0.0 % of DIIS)
  Form QpQm                 ....       0.000 sec  (  0.0 % of DIIS)
  Exp/Cayley                ....       0.000 sec  (  0.0 % of DIIS)
  Orb update                ....       0.000 sec  (  0.0 % of DIIS)
  Wake-sleep                ....       0.022 sec  (  5.3 % of DIIS)
SOSCF solution              ....       0.043 sec  (  0.2%)
  MO trafo                  ....       0.033 sec  ( 78.1 % of SOSCF)
  Orb grad                  ....       0.000 sec  (  1.2 % of SOSCF)
  Rot update                ....       0.000 sec  (  0.1 % of SOSCF)
  Step                      ....       0.009 sec  ( 20.5 % of SOSCF)
Finished LeanSCF after  22.4 sec

Maximum memory used throughout the entire LEANSCF-calculation: 23.0 MB


-------------------------------------------------------------------------------
                          DFT DISPERSION CORRECTION                            
                                                                               
                                DFTD4 V3.4.0                                   
-------------------------------------------------------------------------------
The R2SCAN3C composite method is recognized
Using three-body term ABC
Active option DFTDOPT                   ...         5   

-------------------------   ----------------
Dispersion correction           -0.004796492
-------------------------   ----------------

------------------   -----------------
gCP correction             0.006991116
------------------   -----------------

-------------------------   --------------------
FINAL SINGLE POINT ENERGY      -309.809407361282
-------------------------   --------------------


------------------------------------------------------------------------------
                              ORCA PROPERTY CALCULATIONS
------------------------------------------------------------------------------

GBWName                                 ... sp_solv.gbw
Number of atoms                         ...     17
Number of basis functions               ...    188
Max core memory                         ...   1024 MB

Electric properties:
Dipole moment                           ... YES
Quadrupole moment                       ...  NO
Static polarizability (Dipole/Dipole)   ...  NO
Static polarizability (Dipole/Quad.)    ...  NO
Static polarizability (Quad./Quad.)     ...  NO
Static polarizability (Velocity)        ...  NO

Atomic electric properties:
Dipole moment                           ...  NO
Quadrupole moment                       ...  NO
Static polarizability                   ...  NO

Choice of electric origin               ... Center of mass
Position of electric origin             ...    -0.000032    -0.000001     0.000005

General magnetic properties:
Magnetizability                         ...  NO

EPR properties:
g-Tensor (aka g-matrix)                 ...  NO
Zero-Field splitting spin-orbit         ...  NO
Zero-field splitting spin-spin          ...  NO
Hyperfine couplings                     ...  NO (   0 nuclei)
Quadrupole couplings                    ...  NO (   0 nuclei)
Contact density                         ...  NO (   0 nuclei)

NMR properties:
Chemical shifts                         ...  NO (   0 nuclei)
Spin-rotation constants                 ...  NO (   0 nuclei)
Spin-spin couplings                     ...  NO (   0 nuclei,    0 pairs)

Choice of magnetic origin               ... GIAO
Position of magnetic origin             ...     0.000000     0.000000     0.000000

Properties with geometric perturbations:
SCF Hessian                             ...  NO
IR spectrum                             ...  NO
VCD spectrum                            ...  NO
X-ray spectroscopy properties:
SCF XES/XAS/RIXS spectra                ...  NO


-------------
DIPOLE MOMENT
-------------

Method             : SCF
Type of density    : Electron Density
Multiplicity       :   1
Irrep              :   0
Energy             :  -309.8116019858575783 Eh
Relativity type    : 
Basis              : AO
                                X                 Y                 Z
Electronic contribution:      5.393098294       0.065842293      -0.496686754
Nuclear contribution   :     -7.152369637      -0.231561983       1.126693682
                        -----------------------------------------
Total Dipole Moment    :     -1.759271343      -0.165719691       0.630006928
                        -----------------------------------------
Magnitude (a.u.)       :      1.876008370
Magnitude (Debye)      :      4.768434323



--------------------
Rotational spectrum 
--------------------
 
Rotational constants in cm-1:             0.139252             0.084398             0.060900 
Rotational constants in MHz :          4174.663032          2530.177799          1825.730096 

Dipole components along the rotational axes: 
x,y,z [a.u.] :    -1.764880    -0.167798     0.613554 
x,y,z [Debye]:    -4.485970    -0.426508     1.559530 

 

Dipole moment calculation done in   0.0 sec 

Maximum memory used throughout the entire PROP-calculation: 11.6 MB

--------------------------------
SUGGESTED CITATIONS FOR THIS RUN
--------------------------------

Below you find a list of papers that are relevant to this ORCA run
We neither can nor want to force you to cite these papers, but we appreciate if you do
You receive ORCA, which is the product of decades of hard work by many enthusiastic individuals, for free
The only thing we kindly ask in return is that you cite our papers,
We deeply appreciate it, if you show your appreciation for ORCA by not just citing the generic ORCA reference.

Please note that relegating all ORCA citations to the supporting information does *not* help us.
SI sections are not indexed - citations you put there will not count into any citation statistics
But we need these citations in order to attract the funding resources that allow us to do what we are doing

Therefore, if you are a happy ORCA user, please consider citing a few of the papers listed below in the main body of your paper

In addition to the list printed below, the program has created the file sp_solv.bibtex that contains the list in bibtex format
You can import this file easily into all common literature databanks and citation aid programs


List of essential papers. We consider these as the minimum necessary citations

  1. Neese,F.
     Software update: the ORCA program system, version 5.0
     WIRES Comput. Molec. Sci., 2022 12(1)e1606
     doi.org/10.1002/wcms.1606
  2. Grimme,S.; Hansen,A.; Ehlert,S.; Mewes,J.
     r2SCAN-3c: A 'Swiss army knife' composite electronic-structure method
     J. Chem. Phys., 2021 154 064103
     doi.org/10.1063/5.0040021

List of papers to cite with high priority. The work reported in these papers was absolutely
necessary for this run to complete.
Our perspective: the developers of density functionals and basis sets usually get cited in chemistry papers
Good! But without the algorithms to do something with them, the functionals or basis sets would not do anything.
Hence, in our opinion, the algorithm design and method developments papers are equally worthy of getting cited

  1. Neese,F.
     An improvement of the resolution of the identity approximation for the formation of the Coulomb matrix
     J. Comp. Chem., 2003 24(14)1740-1747
     doi.org/10.1002/jcc.10318
  2. Garcia-Rates,M.; Neese,F.
     Effect of the Solute Cavity on the Solvation Energy and its Derivatives within the Framework of the Gaussian Charge Scheme
     J. Comput. Chem., 2020 41 922-939
     doi.org/10.1002/jcc.26139
  3. Neese,F.
     The SHARK Integral Generation and Digestion System
     J. Comp. Chem., 2022  1-16
     doi.org/10.1002/jcc.26942
  4. Lehtola,S.; Steigemann,C.; Oliveira,M.; Marques,M.
     Recent developments in Libxc - A comprehensive library of functionals for density functional theory
     Software X, 2018 7 
     doi.org/10.1016/j.softx.2017.11.002
  5. Caldeweyher,E.; Bannwarth,C.; Grimme,S.
     Extension of the D3 dispersion coefficient model
     J. Chem. Phys., 2017 147 034112-XXXX
     doi.org/10.1063/1.4993215
  6. Caldeweyher,E.; Ehlert,S.; Hansen,A.; Neugebauer,H.; Spicher,S.; Bannwarth,C.; Grimme,S.
     A generally applicable atomic-charge dependent London dispersion correction
     J. Chem. Phys., 2019 150 154122-XXXX
     doi.org/10.1063/1.5090222
  7. Caldeweyher,E.; Mewes,J.; Ehlert,S.; Grimme,S.
     Extension and evaluation of the D4 London-dispersion model for periodic systems
     Phys. Chem. Chem. Phys., 2020 22(16)8499-8512
     doi.org/10.1039/D0CP00502A

List of suggested additional citations. These are papers that are important in the 'surrounding' of 
of this run, or papers that preceded the highly important papers. If you like your results we are grateful for a citation.

  1. Neese,F.
     The ORCA program system
     WIRES Comput. Molec. Sci., 2012 2(1)73-78
     doi.org/10.1002/wcms.81
  2. Neese,F.
     Software update: the ORCA program system, version 4.0
     WIRES Comput. Molec. Sci., 2018 8(1)1-6
     doi.org/10.1002/wcms.1327
  3. Neese,F.; Wennmohs,F.; Becker,U.; Riplinger,C.
     The ORCA quantum chemistry program package
     J. Chem. Phys., 2020 152 Art. No. L224108
     doi.org/10.1063/5.0004608

List of optional additional citations

  1. Neese,F.
     Approximate second-order SCF convergence for spin unrestricted wavefunctions
     Chem. Phys. Lett., 2000 325(1-3)93-98
     doi.org/10.1016/s0009-2614(00)00662-x

Timings for individual modules:

Sum of individual times          ...       23.815 sec (=   0.397 min)
Startup calculation              ...        0.975 sec (=   0.016 min)   4.1 %
SCF iterations                   ...       22.743 sec (=   0.379 min)  95.5 %
Property calculations            ...        0.097 sec (=   0.002 min)   0.4 %
                             ****ORCA TERMINATED NORMALLY****
TOTAL RUN TIME: 0 days 0 hours 0 minutes 24 seconds 452 msec
