
                                 *****************
                                 * O   R   C   A *
                                 *****************

                                            #,                                       
                                            ###                                      
                                            ####                                     
                                            #####                                    
                                            ######                                   
                                           ########,                                 
                                     ,,################,,,,,                         
                               ,,#################################,,                 
                          ,,##########################################,,             
                       ,#########################################, ''#####,          
                    ,#############################################,,   '####,        
                  ,##################################################,,,,####,       
                ,###########''''           ''''###############################       
              ,#####''   ,,,,##########,,,,          '''####'''          '####       
            ,##' ,,,,###########################,,,                        '##       
           ' ,,###''''                  '''############,,,                           
         ,,##''                                '''############,,,,        ,,,,,,###''
      ,#''                                            '''#######################'''  
     '                                                          ''''####''''         
             ,#######,   #######,   ,#######,      ##                                
            ,#'     '#,  ##    ##  ,#'     '#,    #''#        ,####,   ,####,        
            ##       ##  ##   ,#'  ##            #'  '#       #'       #'  '#        
            ##       ##  #######   ##           ,######,      #####,   #    #        
            '#,     ,#'  ##    ##  '#,     ,#' ,#      #,     #,   #   #,  ,#        
             '#######'   ##     ##  '#######'  #'      '#     '####' # '####'        



                #########################################################
                #                        -***-                          #
                #          Department of theory and spectroscopy        #
                #                                                       #
                #                      Frank Neese                      #
                #                                                       #
                #     Directorship, Architecture, Infrastructure        #
                #                    SHARK, DRIVERS                     #
                #        Core code/Algorithms in most modules           #
                #                                                       #
                #        Max Planck Institute fuer Kohlenforschung      #
                #                Kaiser Wilhelm Platz 1                 #
                #                 D-45470 Muelheim/Ruhr                 #
                #                      Germany                          #
                #                                                       #
                #                  All rights reserved                  #
                #                        -***-                          #
                #########################################################


                         Program Version 6.0.0  -   RELEASE  -


 With contributions from (in alphabetic order):
   Daniel Aravena         : Magnetic Suceptibility
   Michael Atanasov       : Ab Initio Ligand Field Theory (pilot matlab implementation)
   Alexander A. Auer      : GIAO ZORA, VPT2 properties, NMR spectrum
   Ute Becker             : All parallelization in ORCA, NUMFREQ, NUMCALC
   Giovanni Bistoni       : ED, misc. LED, open-shell LED, HFLD
   Martin Brehm           : Molecular dynamics
   Dmytro Bykov           : pre 5.0 version of the SCF Hessian
   Marcos Casanova-Páez   : Triplet and SCS-CIS(D). UHF-(DLPNO)-IP/EA/STEOM-CCSD. UHF-CVS-IP/STEOM-CCSD
   Vijay G. Chilkuri      : MRCI spin determinant printing, contributions to CSF-ICE
   Pauline Colinet        : FMM embedding
   Dipayan Datta          : RHF DLPNO-CCSD density
   Achintya Kumar Dutta   : EOM-CC, STEOM-CC
   Nicolas Foglia         : Exact transition moments, OPA infrastructure, MCD improvements
   Dmitry Ganyushin       : Spin-Orbit,Spin-Spin,Magnetic field MRCI
   Miquel Garcia          : C-PCM and meta-GGA Hessian, CCSD/C-PCM, Gaussian charge scheme
   Tiago L. C. Gouveia    : GS-ROHF, GS-ROCIS
   Yang Guo               : DLPNO-NEVPT2, F12-NEVPT2, CIM, IAO-localization
   Andreas Hansen         : Spin unrestricted coupled pair/coupled cluster methods
   Ingolf Harden          : AUTO-CI MPn and infrastructure 
   Benjamin Helmich-Paris : MC-RPA, TRAH-(SCF,CASSCF), AVAS, COSX integrals, SCF dyn. polar.
   Lee Huntington         : MR-EOM, pCC
   Robert Izsak           : Overlap fitted RIJCOSX, COSX-SCS-MP3, EOM
   Riya Kayal             : Wick's Theorem for AUTO-CI, AUTO-CI UHF-CCSDT
   Emily Kempfer          : AUTO-CI, RHF CISDT and CCSDT
   Christian Kollmar      : KDIIS, OOCD, Brueckner-CCSD(T), CCSD density, CASPT2, CASPT2-K, improved NEVPT2
   Axel Koslowski         : Symmetry handling
   Simone Kossmann        : Meta GGA functionals, TD-DFT gradient, OOMP2, (MP2 Hessian; deprecated post 5.0)
   Lucas Lang             : DCDCAS
   Marvin Lechner         : AUTO-CI (C++ implementation), FIC-MRCC
   Spencer Leger          : CASSCF response
   Dagmar Lenk            : GEPOL surface, SMD, ORCA-2-JSON
   Dimitrios Liakos       : Extrapolation schemes; Compound Job, initial MDCI parallelization
   Dimitrios Manganas     : Further ROCIS development; embedding schemes. LFT, Crystal Embedding
   Dimitrios Pantazis     : SARC Basis sets
   Anastasios Papadopoulos: AUTO-CI, single reference methods and gradients
   Taras Petrenko         : pre 6.0 DFT Hessian and TD-DFT gradient, (ASA, deprecated), ECA, 1-Electron XAS/XES, NRVS
   Peter Pinski           : DLPNO-MP2, DLPNO-MP2 Gradient
   Christoph Reimann      : Effective Core Potentials
   Marius Retegan         : Local ZFS, SOC
   Christoph Riplinger    : Optimizer, TS searches, QM/MM, DLPNO-CCSD(T), (RO)-DLPNO pert. Triples
   Michael Roemelt        : Original ROCIS implementation
   Masaaki Saitow         : Open-shell DLPNO-CCSD energy and density
   Barbara Sandhoefer     : DKH picture change effects
   Kantharuban Sivalingam : CASSCF convergence/infrastructure, NEVPT2 and variants, FIC-MRCI
   Bernardo de Souza      : ESD, SOC TD-DFT
   Georgi Stoychev        : AutoAux, RI-MP2 NMR, DLPNO-MP2 response, X2C
   Van Anh Tran           : RI-MP2 g-tensors
   Willem Van den Heuvel  : Paramagnetic NMR
   Zikuan Wang            : NOTCH, Electric field optimization 
   Frank Wennmohs         : Technical directorship and infrastructure
   Hang Xu                : AUTO-CI-Response properties 


 We gratefully acknowledge several colleagues who have allowed us to
 interface, adapt or use parts of their codes:
   Stefan Grimme, W. Hujo, H. Kruse, P. Pracht,  : VdW corrections, initial TS optimization,
                  C. Bannwarth, S. Ehlert,         DFT functionals, gCP, sTDA/sTD-DF
                  L. Wittmann, M. Mueller
   Ed Valeev, F. Pavosevic, A. Kumar             : LibInt (2-el integral package), F12 methods
   Garnet Chan, S. Sharma, J. Yang, R. Olivares  : DMRG
   Ulf Ekstrom                                   : XCFun DFT Library
   Mihaly Kallay                                 : mrcc  (arbitrary order and MRCC methods)
   Frank Weinhold                                : gennbo (NPA and NBO analysis)
   Simon Mueller                                 : openCOSMO-RS
   Christopher J. Cramer and Donald G. Truhlar   : smd solvation model
   Lars Goerigk                                  : TD-DFT with DH, B97 family of functionals
   V. Asgeirsson, H. Jonsson                     : NEB implementation
   FAccTs GmbH                                   : IRC, NEB, NEB-TS, DLPNO-Multilevel, CI-OPT
                                                   MM, QMMM, 2- and 3-layer-ONIOM, Crystal-QMMM,
                                                   LR-CPCM, SF, NACMEs, symmetry and pop. for TD-DFT,
                                                   nearIR, NL-DFT gradient (VV10), updates on ESD,
                                                   ML-optimized integration grids, MBIS, APM,
                                                   GOAT, DOCKER, SOLVATOR, interface openCOSMO-RS
   S Lehtola, MJT Oliveira, MAL Marques          : LibXC Library
   Liviu Ungur et al                             : ANISO software


 Your calculation uses the libint2 library for the computation of 2-el integrals
 For citations please refer to: http://libint.valeyev.net

 Your ORCA version has been built with support for libXC version: 6.2.2
 For citations please refer to: https://libxc.gitlab.io

 This ORCA versions uses:
   CBLAS   interface :  Fast vector & matrix operations
   LAPACKE interface :  Fast linear algebra routines
   SCALAPACK package :  Parallel linear algebra routines
   Shared memory     :  Shared parallel matrices
   BLAS/LAPACK       :  OpenBLAS 0.3.27  USE64BITINT DYNAMIC_ARCH NO_AFFINITY SkylakeX SINGLE_THREADED
        Core in use  :  SkylakeX
   Copyright (c) 2011-2014, The OpenBLAS Project


Your calculation utilizes the geometrical counterpoise correction gCP
Please cite in your paper:
H.Kruse, S. Grimme J.Chem.Phys., 136, (2012), 154101 
   

Your calculation utilizes the DFT-NL dispersion correction.
Cite in your paper:
Vydrov, O. A.; Van Voorhis, T. J. Chem. Phys. 2010, 133, 244103
Hujo, W.; Grimme, S. J. Chem. Theory Comput. 2011, 7, 3866 
   

================================================================================

----- Orbital basis set information -----
Your calculation utilizes the basis: def2-TZVP
   F. Weigend and R. Ahlrichs, Phys. Chem. Chem. Phys. 7, 3297 (2005).

----- AuxJ basis set information -----
Your calculation utilizes the auxiliary basis: def2/J
   F. Weigend, Phys. Chem. Chem. Phys. 8, 1057 (2006).

================================================================================
                                        WARNINGS
                       Please study these warnings very carefully!
================================================================================


================================================================================
                                       INPUT FILE
================================================================================
NAME = sp_gas.inp
|  1> ! wb97x-v def2-tzvp def2/J RIJCOSX DEFGRID2 scfconv7 GCP(DFT/TZ) printgap
|  2> %output
|  3>     printlevel normal
|  4> end
|  5> * xyz 0 1
|  6> C -1.275867732207561 0.6939448080973176 -0.006526109734103488
|  7> C -6.954778506232435e-06 -0.09308578772586566 6.482628132704717e-05
|  8> O 0.0001373739018118863 -1.3216056402760648 0.00011694137841083238
|  9> C 1.2757139125051637 0.6941984804178893 0.006525255159380598
| 10> H -1.4064713835522424 1.142548201154037 0.9865988503693292
| 11> H -1.2125035802467048 1.5235421362308095 -0.717964308538358
| 12> H -2.1324447095507595 0.05629458057238149 -0.23008927695515066
| 13> H 1.4070183333007356 1.1410805247437488 -0.9872944387885937
| 14> H 2.1322158561800544 0.05699977681463439 0.23167741349078907
| 15> H 1.2117728338935285 1.524968119465823 0.7165163646050607
| 16> *
| 17> 
| 18>                          ****END OF INPUT****
================================================================================

                       ****************************
                       * Single Point Calculation *
                       ****************************

---------------------------------
CARTESIAN COORDINATES (ANGSTROEM)
---------------------------------
  C     -1.275868    0.693945   -0.006526
  C     -0.000007   -0.093086    0.000065
  O      0.000137   -1.321606    0.000117
  C      1.275714    0.694198    0.006525
  H     -1.406471    1.142548    0.986599
  H     -1.212504    1.523542   -0.717964
  H     -2.132445    0.056295   -0.230089
  H      1.407018    1.141081   -0.987294
  H      2.132216    0.057000    0.231677
  H      1.211773    1.524968    0.716516

----------------------------
CARTESIAN COORDINATES (A.U.)
----------------------------
  NO LB      ZA    FRAG     MASS         X           Y           Z
   0 C     6.0000    0    12.011   -2.411041    1.311366   -0.012333
   1 C     6.0000    0    12.011   -0.000013   -0.175907    0.000123
   2 O     8.0000    0    15.999    0.000260   -2.497473    0.000221
   3 C     6.0000    0    12.011    2.410750    1.311845    0.012331
   4 H     1.0000    0     1.008   -2.657846    2.159103    1.864402
   5 H     1.0000    0     1.008   -2.291300    2.879077   -1.356756
   6 H     1.0000    0     1.008   -4.029736    0.106381   -0.434806
   7 H     1.0000    0     1.008    2.658879    2.156330   -1.865716
   8 H     1.0000    0     1.008    4.029304    0.107714    0.437807
   9 H     1.0000    0     1.008    2.289919    2.881772    1.354020

--------------------------------
INTERNAL COORDINATES (ANGSTROEM)
--------------------------------
 C      0   0   0     0.000000000000     0.00000000     0.00000000
 C      1   0   0     1.499093500280     0.00000000     0.00000000
 O      2   1   0     1.228519862134   121.67527916     0.00000000
 C      2   1   3     1.499107063298   116.65185629   179.99726511
 H      1   2   3     1.097542484092   108.17289521   107.63308051
 H      1   2   3     1.094710488357   110.57634432   223.98314590
 H      1   2   3     1.091009816874   111.23945646   347.55273811
 H      4   2   1     1.097552730642   108.16373302   287.52792118
 H      4   2   1     1.091013868745   111.23764060   167.46455146
 H      4   2   1     1.094693578217   110.58782167    43.88393225

---------------------------
INTERNAL COORDINATES (A.U.)
---------------------------
 C      0   0   0     0.000000000000     0.00000000     0.00000000
 C      1   0   0     2.832876164670     0.00000000     0.00000000
 O      2   1   0     2.321566089515   121.67527916     0.00000000
 C      2   1   3     2.832901795061   116.65185629   179.99726511
 H      1   2   3     2.074054715278   108.17289521   107.63308051
 H      1   2   3     2.068703018925   110.57634432   223.98314590
 H      1   2   3     2.061709763311   111.23945646   347.55273811
 H      4   2   1     2.074074078451   108.16373302   287.52792118
 H      4   2   1     2.061717420238   111.23764060   167.46455146
 H      4   2   1     2.068671063393   110.58782167    43.88393225

---------------------
BASIS SET INFORMATION
---------------------
There are 3 groups of distinct atoms

 Group   1 Type C   : 11s6p2d1f contracted to 5s3p2d1f pattern {62111/411/11/1}
 Group   2 Type O   : 11s6p2d1f contracted to 5s3p2d1f pattern {62111/411/11/1}
 Group   3 Type H   : 5s1p contracted to 3s1p pattern {311/1}

Atom   0C    basis set group =>   1
Atom   1C    basis set group =>   1
Atom   2O    basis set group =>   2
Atom   3C    basis set group =>   1
Atom   4H    basis set group =>   3
Atom   5H    basis set group =>   3
Atom   6H    basis set group =>   3
Atom   7H    basis set group =>   3
Atom   8H    basis set group =>   3
Atom   9H    basis set group =>   3
---------------------------------
AUXILIARY/J BASIS SET INFORMATION
---------------------------------
There are 3 groups of distinct atoms

 Group   1 Type C   : 12s5p4d2f1g contracted to 6s4p3d1f1g pattern {711111/2111/211/2/1}
 Group   2 Type O   : 12s5p4d2f1g contracted to 6s4p3d1f1g pattern {711111/2111/211/2/1}
 Group   3 Type H   : 5s2p1d contracted to 3s1p1d pattern {311/2/1}

Atom   0C    basis set group =>   1
Atom   1C    basis set group =>   1
Atom   2O    basis set group =>   2
Atom   3C    basis set group =>   1
Atom   4H    basis set group =>   3
Atom   5H    basis set group =>   3
Atom   6H    basis set group =>   3
Atom   7H    basis set group =>   3
Atom   8H    basis set group =>   3
Atom   9H    basis set group =>   3

Checking for AutoStart:
The File: sp_gas.gbw exists
Trying to determine its content:
     ... Fine, the file contains calculation information
     ... Fine, the calculation information was read
     ... Fine, the file contains a basis set
     ... Fine, the basis set was read
     ... Fine, the file contains a geometry
     ... Fine, the geometry was read
     ... Fine, the file contains a set of orbitals
     ... Fine, the orbitals can be read
     => possible old guess file was deleted
     => GBW file was renamed to GES file
     => GES file is set as startup file
     => Guess is set to MORead
     ... now leaving AutoStart

------------------------------------------------------------------------------
                             ORCA STARTUP CALCULATIONS
                           -- RI-GTO INTEGRALS CHOSEN --
------------------------------------------------------------------------------
------------------------------------------------------------------------------
                   ___                                                        
                  /   \      - P O W E R E D   B Y -                         
                 /     \                                                     
                 |  |  |   _    _      __       _____    __    __             
                 |  |  |  | |  | |    /  \     |  _  \  |  |  /  |          
                  \  \/   | |  | |   /    \    | | | |  |  | /  /          
                 / \  \   | |__| |  /  /\  \   | |_| |  |  |/  /          
                |  |  |   |  __  | /  /__\  \  |    /   |      \           
                |  |  |   | |  | | |   __   |  |    \   |  |\   \          
                \     /   | |  | | |  |  |  |  | |\  \  |  | \   \       
                 \___/    |_|  |_| |__|  |__|  |_| \__\ |__|  \__/        
                                                                              
                      - O R C A' S   B I G   F R I E N D -                    
                                      &                                       
                       - I N T E G R A L  F E E D E R -                       
                                                                              
 v1 FN, 2020, v2 2021, v3 2022-2024                                           
------------------------------------------------------------------------------


----------------------
SHARK INTEGRAL PACKAGE
----------------------

Number of atoms                             ...     10
Number of basis functions                   ...    160
Number of shells                            ...     68
Maximum angular momentum                    ...      3
Integral batch strategy                     ... SHARK/LIBINT Hybrid
RI-J (if used) integral strategy            ... SPLIT-RIJ (Revised 2003 algorithm where possible)
Printlevel                                  ...      1
Contraction scheme used                     ... SEGMENTED contraction
Prescreening option                         ... SCHWARTZ
   Thresh                                   ... 3.000e-11
   Tcut                                     ... 1.000e-12
   Tpresel                                  ... 1.000e-12 
Coulomb Range Separation                    ... NOT USED
Exchange Range Separation                   ... Long Range
   Mu parameter                             ... 3.000e-01
   Scaling (regular/separated)              ... 1.670e-01 8.330e-01
Multipole approximations                    ... NOT USED
Finite Nucleus Model                        ... NOT USED
CABS basis                                  ... NOT available
Auxiliary Coulomb fitting basis             ... AVAILABLE
   # of basis functions in Aux-J            ...    262
   # of shells in Aux-J                     ...     90
   Maximum angular momentum in Aux-J        ...      4
Auxiliary J/K fitting basis                 ... NOT available
Auxiliary Correlation fitting basis         ... NOT available
Auxiliary 'external' fitting basis          ... NOT available

Checking pre-screening integrals            ... done (  0.0 sec) Dimension = 68
Check shell pair data                       ... done (  0.0 sec)
Shell pair information
Shell pair cut-off parameter TPreSel        ...   1.0e-12
Total number of shell pairs                 ...      2346
Shell pairs after pre-screening             ...      2304
Total number of primitive shell pairs       ...      6892
Primitive shell pairs kept                  ...      5577
          la=0 lb=0:    705 shell pairs
          la=1 lb=0:    680 shell pairs
          la=1 lb=1:    171 shell pairs
          la=2 lb=0:    302 shell pairs
          la=2 lb=1:    144 shell pairs
          la=2 lb=2:     36 shell pairs
          la=3 lb=0:    152 shell pairs
          la=3 lb=1:     72 shell pairs
          la=3 lb=2:     32 shell pairs
          la=3 lb=3:     10 shell pairs

Calculating one electron integrals          ... done (  0.0 sec)
Calculating RI/J V-Matrix + Cholesky decomp.... done (  0.0 sec)
Calculating Nuclear repulsion               ... done (  0.0 sec) ENN=    119.546329376247 Eh

Diagonalization of the overlap matrix:
Smallest eigenvalue                        ... 3.570e-04
Time for diagonalization                   ...    0.002 sec
Threshold for overlap eigenvalues          ... 1.000e-07
Number of eigenvalues below threshold      ... 0
Time for construction of square roots      ...    0.015 sec
Total time needed                          ...    0.024 sec

-------------------
DFT GRID GENERATION
-------------------

General Integration Accuracy     IntAcc      ... 4.388
Radial Grid Type                 RadialGrid  ... OptM3 with GC (2021)
Angular Grid (max. ang.)         AngularGrid ... 4 (Lebedev-302)
Angular grid pruning method      GridPruning ... 4 (adaptive)
Weight generation scheme         WeightScheme... mBecke (2022)
Basis function cutoff            BFCut       ... 1.0000e-11
Integration weight cutoff        WCut        ... 1.0000e-14
Partially contracted basis set               ... off
Rotationally invariant grid construction     ... off
Angular grids for H and He will be reduced by one unit

Total number of grid points                  ...    43724
Total number of batches                      ...      688
Average number of points per batch           ...       63
Average number of grid points per atom       ...     4372

--------------------
COSX GRID GENERATION
--------------------

GRIDX 1
-------
General Integration Accuracy     IntAcc      ... 3.816
Radial Grid Type                 RadialGrid  ... OptM3 with GC (2021)
Angular Grid (max. ang.)         AngularGrid ... 1 (Lebedev-50)
Angular grid pruning method      GridPruning ... 4 (adaptive)
Weight generation scheme         WeightScheme... mBecke (2022)
Basis function cutoff            BFCut       ... 1.0000e-11
Integration weight cutoff        WCut        ... 1.0000e-14
Partially contracted basis set               ... on
Rotationally invariant grid construction     ... off
Angular grids for H and He will be reduced by one unit

Total number of grid points                  ...     5619
Total number of batches                      ...       50
Average number of points per batch           ...      112
Average number of grid points per atom       ...      562
UseSFitting                                  ... on

GRIDX 2
-------
General Integration Accuracy     IntAcc      ... 4.020
Radial Grid Type                 RadialGrid  ... OptM3 with GC (2021)
Angular Grid (max. ang.)         AngularGrid ... 2 (Lebedev-110)
Angular grid pruning method      GridPruning ... 4 (adaptive)
Weight generation scheme         WeightScheme... mBecke (2022)
Basis function cutoff            BFCut       ... 1.0000e-11
Integration weight cutoff        WCut        ... 1.0000e-14
Partially contracted basis set               ... on
Rotationally invariant grid construction     ... off
Angular grids for H and He will be reduced by one unit

Total number of grid points                  ...    12026
Total number of batches                      ...       98
Average number of points per batch           ...      122
Average number of grid points per atom       ...     1203
UseSFitting                                  ... on

GRIDX 3
-------
General Integration Accuracy     IntAcc      ... 4.338
Radial Grid Type                 RadialGrid  ... OptM3 with GC (2021)
Angular Grid (max. ang.)         AngularGrid ... 3 (Lebedev-194)
Angular grid pruning method      GridPruning ... 4 (adaptive)
Weight generation scheme         WeightScheme... mBecke (2022)
Basis function cutoff            BFCut       ... 1.0000e-11
Integration weight cutoff        WCut        ... 1.0000e-14
Partially contracted basis set               ... on
Rotationally invariant grid construction     ... off
Angular grids for H and He will be reduced by one unit

Total number of grid points                  ...    26465
Total number of batches                      ...      213
Average number of points per batch           ...      124
Average number of grid points per atom       ...     2646
UseSFitting                                  ... on
Initializing property integral containers    ... done (  0.0 sec)

SHARK setup successfully completed in   0.9 seconds

Maximum memory used throughout the entire STARTUP-calculation: 22.7 MB
-------------------------------------------------------------------------------
                                 ORCA GUESS
                   Start orbitals & Density for SCF / CASSCF
-------------------------------------------------------------------------------

------------
SCF SETTINGS
------------
Hamiltonian:
 Density Functional     Method          .... DFT(GTOs)
 Exchange Functional    Exchange        .... WB97X-V
 Correlation Functional Correlation     .... WB97X-V
 Gradients option       PostSCFGGA      .... off
 Hybrid DFT is turned on
   Fraction HF Exchange ScalHFX         ....  0.167000
   Scaling of DF-GGA-X  ScalDFX         ....  0.000000
   Scaling of DF-GGA-C  ScalDFC         ....  1.000000
   Scaling of DF-LDA-C  ScalLDAC        ....  1.000000
   Perturbative correction              ....  0.000000
 Long-range corrected/Screened/Range-Separated Hybrid DFT is turned on
   Amount of maximum screened exact exchange              ....  0.833000
   Range separation parameter mu (erf(mu*r12)/r12)        ....  0.300000
   NL short-range parameter             ....  6.000000
   NL long-range parameter              ....  0.010000
 RI-approximation to the Coulomb term is turned on
   Number of AuxJ basis functions       .... 262
   RIJ-COSX (HFX calculated with COS-X)).... on


General Settings:
 Integral files         IntName         .... sp_gas
 Hartree-Fock type      HFTyp           .... RHF
 Total Charge           Charge          ....    0
 Multiplicity           Mult            ....    1
 Number of Electrons    NEL             ....   32
 Basis Dimension        Dim             ....  160
 Nuclear Repulsion      ENuc            ....    119.5463293762 Eh

Convergence Acceleration:
 AO-DIIS                CNVDIIS         .... on
   Start iteration      DIISMaxIt       ....    12
   Startup error        DIISStart       ....  0.200000
   # of expansion vecs  DIISMaxEq       ....     5
   Bias factor          DIISBfac        ....   1.050
   Max. coefficient     DIISMaxC        ....  10.000
 MO-DIIS                CNVKDIIS        .... off
 Trust-Rad. Augm. Hess. CNVTRAH         .... auto
   Auto Start mean grad. ratio tolernc. ....  1.125000
   Auto Start start iteration           ....     1
   Auto Start num. interpolation iter.  ....    10
   Max. Number of Micro iterations      ....    24
   Max. Number of Macro iterations      .... Maxiter - #DIIS iter
   Number of Davidson start vectors     ....     2
   Converg. threshold    (grad. norm)   ....   1.000e-04
   Grad. Scal. Fac. for Micro threshold ....   0.100
   Minimum threshold for Micro iter.    ....   1.000e-02
   NR start threshold (gradient norm)   ....   1.000e-04
   Initial trust radius                 ....   0.400
   Minimum AH scaling param. (alpha)    ....   1.000
   Maximum AH scaling param. (alpha)    .... 1000.000
   Quad. conv. algorithm                .... NR
   White noise on init. David. guess    .... on
   Maximum white noise                  ....   0.010
   Pseudo random numbers                .... off
   Inactive MOs                         .... canonical
   Orbital update algorithm             .... Taylor
   Preconditioner                       .... Diag
   Full preconditioner red. dimension   ....   250
 SOSCF                  CNVSOSCF        .... on
   Start iteration      SOSCFMaxIt      ....   150
   Startup grad/error   SOSCFStart      ....  0.003300
   Hessian update       SOSCFHessUp     .... L-BFGS
 Level Shifting         CNVShift        .... on
   Level shift para.    LevelShift      ....    0.2500
   Turn off err/grad.   ShiftErr        ....    0.0010
 Zerner damping         CNVZerner       .... off
 Static damping         CNVDamp         .... on
   Fraction old density DampFac         ....    0.7000
   Max. Damping (<1)    DampMax         ....    0.9800
   Min. Damping (>=0)   DampMin         ....    0.0000
   Turn off err/grad.   DampErr         ....    0.1000

SCF Procedure:
 Maximum # iterations   MaxIter         ....   125
 SCF integral mode      SCFMode         .... Direct
   Integral package                     .... SHARK and LIBINT hybrid scheme
 Reset frequency        DirectResetFreq ....    20
 Integral Threshold     Thresh          ....  3.000e-11 Eh
 Primitive CutOff       TCut            ....  1.000e-12 Eh

Convergence Tolerance:
 Convergence Check Mode ConvCheckMode   .... Total+1el-Energy
 Convergence forced     ConvForced      .... 0
 Energy Change          TolE            ....  1.000e-07 Eh
 1-El. energy change                    ....  1.000e-04 Eh
 Orbital Gradient       TolG            ....  1.000e-04
 Orbital Rotation angle TolX            ....  1.000e-04
 DIIS Error             TolErr          ....  1.000e-07

---------------------
INITIAL GUESS: MOREAD
---------------------
Guess MOs are being read from file: sp_gas.ges
Input Geometry matches current geometry (good)
Atom 0: N(Shells)= 11 and 9 - projection required
Input basis set needs projection
NBasis(read)= 111
NBasis(calc)= 160
Basis set overlap was calculated
Using GuessMode=FMatrix for the initial guess
C*T matrix was formed
Effective Fockian was calculated
Effective Fockian was diagonalized
Initial density was built
                      ------------------
                      INITIAL GUESS DONE (   0.0 sec)
                      ------------------
             **** ENERGY FILE WAS UPDATED (sp_gas.en.tmp) ****
Finished Guess after   0.2 sec
Maximum memory used throughout the entire GUESS-calculation: 12.7 MB

-------------------------------------------------------------------------------------------
                                      ORCA LEAN-SCF
                              memory conserving SCF solver
-------------------------------------------------------------------------------------------

----------------------------------------D-I-I-S--------------------------------------------
Iteration    Energy (Eh)           Delta-E    RMSDP     MaxDP     DIISErr   Damp  Time(sec)
-------------------------------------------------------------------------------------------
               ***  Starting incremental Fock matrix formation  ***
    1    -193.2828523948957695     0.00e+00  1.24e-03  3.30e-02  5.79e-02  0.700   3.6
    2    -193.2866013932351166    -3.75e-03  1.17e-03  3.18e-02  4.09e-02  0.700   2.0
                               ***Turning on AO-DIIS***
    3    -193.2893112725348033    -2.71e-03  9.25e-04  2.43e-02  2.84e-02  0.700   2.0
    4    -193.2912401600771091    -1.93e-03  2.35e-03  6.09e-02  2.03e-02  0.000   2.0
    5    -193.2962875076968317    -5.05e-03  1.34e-04  3.82e-03  3.50e-03  0.000   2.0
                              *** Initializing SOSCF ***
---------------------------------------S-O-S-C-F--------------------------------------
Iteration    Energy (Eh)           Delta-E    RMSDP     MaxDP     MaxGrad    Time(sec)
--------------------------------------------------------------------------------------
    6    -193.2963239744431689    -3.65e-05  5.11e-05  8.61e-04  2.03e-03     1.9
               *** Restarting incremental Fock matrix formation ***
    7    -193.2963357734477086    -1.18e-05  4.92e-05  1.36e-03  6.65e-04     3.6
    8    -193.2963389084298456    -3.13e-06  6.20e-05  2.01e-03  2.12e-04     3.0
    9    -193.2963392010954067    -2.93e-07  2.03e-05  6.12e-04  2.19e-04     3.0
   10    -193.2963396695509459    -4.68e-07  1.17e-06  2.03e-05  8.20e-06     2.8
                  *** Gradient check signals convergence ***

               *****************************************************
               *                     SUCCESS                       *
               *           SCF CONVERGED AFTER  10 CYCLES          *
               *****************************************************


------------------
NL GRID GENERATION
------------------

General Integration Accuracy     IntAcc      ... 4.004
Radial Grid Type                 RadialGrid  ... OptM3 with GC (2021)
Angular Grid (max. ang.)         AngularGrid ... 2 (Lebedev-110)
Angular grid pruning method      GridPruning ... 4 (adaptive)
Weight generation scheme         WeightScheme... mBecke (2022)
Basis function cutoff            BFCut       ... 1.0000e-10
Integration weight cutoff        WCut        ... 1.0000e-14
Partially contracted basis set               ... off
Rotationally invariant grid construction     ... off
Angular grids for H and He will be reduced by one unit

Total number of grid points                  ...    13378
Total number of batches                      ...      214
Average number of points per batch           ...       62
Average number of grid points per atom       ...     1338
Final grid set up in    0.1 sec

-------------------------------------------------------------------------------
                    post-SCF DFT-NL dispersion correction                      
-------------------------------------------------------------------------------

SCF Energy:     -193.296339670 
NL    Energy:      0.126797637 
SC+NL Energy:   -193.169542032 
NL done in  :              0.6 sec
-------------------------------------------------------------------------------
Recomputing exchange energy using gridx3       ... done (    5.858 sec)
Old exchange energy                            :     -8.499084591 Eh
New exchange energy                            :     -8.499089348 Eh
Exchange energy change after final integration :     -0.000004757 Eh
Total energy after final integration           :   -193.169546790 Eh
             **** ENERGY FILE WAS UPDATED (sp_gas.en.tmp) ****

----------------
TOTAL SCF ENERGY
----------------

Total Energy       :       -193.16954678950395 Eh           -5256.41060 eV

Components:
Nuclear Repulsion  :        119.54632937624690 Eh            3253.02100 eV
Electronic Energy  :       -312.84266904579783 Eh           -8512.88181 eV
One Electron Energy:       -497.63754276693510 Eh          -13541.40597 eV
Two Electron Energy:        184.79487372113729 Eh            5028.52416 eV

Virial components:
Potential Energy   :       -385.56583042469208 Eh          -10491.77964 eV
Kinetic Energy     :        192.39628363518815 Eh            5235.36904 eV
Virial Ratio       :          2.00401911689616

DFT components:
N(Alpha)           :       16.000001367445 electrons
N(Beta)            :       16.000001367445 electrons
N(Total)           :       32.000002734891 electrons
E(X)               :      -17.373527356581 Eh       
E(C)               :       -1.303256969502 Eh       
NL Energy, E(C,NL) :        0.126797637175 Eh       
E(XC)              :      -18.549986688909 Eh       

---------------
SCF CONVERGENCE
---------------

  Last Energy change         ...    4.6846e-07  Tolerance :   1.0000e-07
  Last MAX-Density change    ...    2.0342e-05  Tolerance :   1.0000e-05
  Last RMS-Density change    ...    1.1697e-06  Tolerance :   1.0000e-06
  Last DIIS Error            ...    2.0266e-03  Tolerance :   1.0000e-07
  Last Orbital Gradient      ...    8.1968e-06  Tolerance :   1.0000e-04
  Last Orbital Rotation      ...    1.7029e-05  Tolerance :   1.0000e-04


----------------
ORBITAL ENERGIES
----------------

  NO   OCC          E(Eh)            E(eV) 
   0   2.0000     -21.658612      -589.3608 
   1   2.0000     -12.141442      -330.3854 
   2   2.0000     -12.055046      -328.0345 
   3   2.0000     -12.054557      -328.0212 
   4   2.0000      -1.701148       -46.2906 
   5   2.0000      -1.294580       -35.2273 
   6   2.0000      -1.216170       -33.0937 
   7   2.0000      -1.080504       -29.4020 
   8   2.0000      -0.965800       -26.2808 
   9   2.0000      -0.962742       -26.1975 
  10   2.0000      -0.914389       -24.8818 
  11   2.0000      -0.848537       -23.0899 
  12   2.0000      -0.832422       -22.6514 
  13   2.0000      -0.832159       -22.6442 
  14   2.0000      -0.830970       -22.6118 
  15   2.0000      -0.794956       -21.6319 
  16   0.0000      -0.306724        -8.3464 
  17   0.0000      -0.045205        -1.2301 
  18   0.0000      -0.020477        -0.5572 
  19   0.0000      -0.003748        -0.1020 
  20   0.0000       0.013273         0.3612 
  21   0.0000       0.032866         0.8943 
  22   0.0000       0.038860         1.0574 
  23   0.0000       0.050198         1.3660 
  24   0.0000       0.082142         2.2352 
  25   0.0000       0.106192         2.8896 
  26   0.0000       0.181782         4.9465 
*Only the first 10 virtual orbitals were printed.

                    ********************************
                    * MULLIKEN POPULATION ANALYSIS *
                    ********************************

-----------------------
MULLIKEN ATOMIC CHARGES
-----------------------
   0 C :   -0.326988
   1 C :    0.205016
   2 O :   -0.319737
   3 C :   -0.326991
   4 H :    0.129198
   5 H :    0.119735
   6 H :    0.135412
   7 H :    0.129217
   8 H :    0.135427
   9 H :    0.119712
Sum of atomic charges:    0.0000000

--------------------------------
MULLIKEN REDUCED ORBITAL CHARGES
--------------------------------
  0 C s       :     3.199642  s :     3.199642
      pz      :     1.051493  p :     3.077761
      px      :     0.987084
      py      :     1.039184
      dz2     :     0.006094  d :     0.046496
      dxz     :     0.004675
      dyz     :     0.011402
      dx2y2   :     0.013730
      dxy     :     0.010596
      f0      :     0.000398  f :     0.003090
      f+1     :     0.000038
      f-1     :     0.000703
      f+2     :    -0.000026
      f-2     :     0.000341
      f+3     :     0.000769
      f-3     :     0.000867

  1 C s       :     3.166160  s :     3.166160
      pz      :     0.684537  p :     2.402601
      px      :     0.943537
      py      :     0.774526
      dz2     :     0.006402  d :     0.208737
      dxz     :     0.016349
      dyz     :     0.052235
      dx2y2   :     0.043105
      dxy     :     0.090646
      f0      :     0.002090  f :     0.017487
      f+1     :     0.000702
      f-1     :     0.001178
      f+2     :     0.002251
      f-2     :     0.001187
      f+3     :     0.007410
      f-3     :     0.002668

  2 O s       :     3.805643  s :     3.805643
      pz      :     1.311450  p :     4.480618
      px      :     1.822744
      py      :     1.346423
      dz2     :     0.002670  d :     0.031679
      dxz     :     0.000018
      dyz     :     0.011790
      dx2y2   :     0.009277
      dxy     :     0.007924
      f0      :     0.000147  f :     0.001797
      f+1     :     0.000019
      f-1     :     0.000149
      f+2     :     0.000473
      f-2     :     0.000005
      f+3     :     0.000529
      f-3     :     0.000476

  3 C s       :     3.199651  s :     3.199651
      pz      :     1.051566  p :     3.077762
      px      :     0.987111
      py      :     1.039085
      dz2     :     0.006106  d :     0.046489
      dxz     :     0.004682
      dyz     :     0.011374
      dx2y2   :     0.013738
      dxy     :     0.010588
      f0      :     0.000400  f :     0.003090
      f+1     :     0.000038
      f-1     :     0.000699
      f+2     :    -0.000025
      f-2     :     0.000342
      f+3     :     0.000768
      f-3     :     0.000867

  4 H s       :     0.849380  s :     0.849380
      pz      :     0.011079  p :     0.021422
      px      :     0.004471
      py      :     0.005873

  5 H s       :     0.859136  s :     0.859136
      pz      :     0.007747  p :     0.021129
      px      :     0.004116
      py      :     0.009266

  6 H s       :     0.843225  s :     0.843225
      pz      :     0.004438  p :     0.021362
      px      :     0.009946
      py      :     0.006978

  7 H s       :     0.849360  s :     0.849360
      pz      :     0.011088  p :     0.021424
      px      :     0.004473
      py      :     0.005862

  8 H s       :     0.843210  s :     0.843210
      pz      :     0.004443  p :     0.021362
      px      :     0.009945
      py      :     0.006974

  9 H s       :     0.859159  s :     0.859159
      pz      :     0.007733  p :     0.021129
      px      :     0.004116
      py      :     0.009280


------------------------
MULLIKEN OVERLAP CHARGES
------------------------
B(  0-C ,  1-C ) :   0.5645 B(  0-C ,  2-O ) :  -0.2410 B(  0-C ,  3-C ) :  -0.4125 
B(  0-C ,  4-H ) :   0.7377 B(  0-C ,  5-H ) :   0.7372 B(  0-C ,  6-H ) :   0.7666 
B(  1-C ,  2-O ) :   1.4407 B(  1-C ,  3-C ) :   0.5644 B(  2-O ,  3-C ) :  -0.2410 
B(  3-C ,  7-H ) :   0.7377 B(  3-C ,  8-H ) :   0.7667 B(  3-C ,  9-H ) :   0.7373 
B(  4-H ,  5-H ) :  -0.0506 B(  7-H ,  9-H ) :  -0.0506 


                     *******************************
                     * LOEWDIN POPULATION ANALYSIS *
                     *******************************

----------------------
LOEWDIN ATOMIC CHARGES
----------------------
   0 C :   -0.263108
   1 C :   -0.370757
   2 O :    0.098834
   3 C :   -0.263108
   4 H :    0.137747
   5 H :    0.130390
   6 H :    0.130932
   7 H :    0.137773
   8 H :    0.130942
   9 H :    0.130354

-------------------------------
LOEWDIN REDUCED ORBITAL CHARGES
-------------------------------
  0 C s       :     2.828963  s :     2.828963
      pz      :     1.063909  p :     3.181076
      px      :     1.051505
      py      :     1.065662
      dz2     :     0.037023  d :     0.229424
      dxz     :     0.020513
      dyz     :     0.052379
      dx2y2   :     0.057337
      dxy     :     0.062172
      f0      :     0.002406  f :     0.023645
      f+1     :     0.002748
      f-1     :     0.002922
      f+2     :     0.002962
      f-2     :     0.002238
      f+3     :     0.005298
      f-3     :     0.005071

  1 C s       :     2.777641  s :     2.777641
      pz      :     0.666114  p :     2.705630
      px      :     1.039153
      py      :     1.000362
      dz2     :     0.046186  d :     0.778336
      dxz     :     0.064596
      dyz     :     0.134052
      dx2y2   :     0.212864
      dxy     :     0.320637
      f0      :     0.007142  f :     0.109150
      f+1     :     0.003725
      f-1     :     0.009410
      f+2     :     0.015340
      f-2     :     0.006892
      f+3     :     0.050300
      f-3     :     0.016342

  2 O s       :     3.411230  s :     3.411230
      pz      :     1.245756  p :     4.417701
      px      :     1.679314
      py      :     1.492631
      dz2     :     0.007488  d :     0.066616
      dxz     :     0.000014
      dyz     :     0.012249
      dx2y2   :     0.024036
      dxy     :     0.022828
      f0      :     0.000306  f :     0.005619
      f+1     :     0.000145
      f-1     :     0.000819
      f+2     :     0.000645
      f-2     :     0.000010
      f+3     :     0.002009
      f-3     :     0.001684

  3 C s       :     2.828963  s :     2.828963
      pz      :     1.063937  p :     3.181083
      px      :     1.051505
      py      :     1.065641
      dz2     :     0.037059  d :     0.229417
      dxz     :     0.020566
      dyz     :     0.052273
      dx2y2   :     0.057385
      dxy     :     0.062134
      f0      :     0.002419  f :     0.023645
      f+1     :     0.002744
      f-1     :     0.002908
      f+2     :     0.002960
      f-2     :     0.002246
      f+3     :     0.005297
      f-3     :     0.005072

  4 H s       :     0.801445  s :     0.801445
      pz      :     0.031022  p :     0.060808
      px      :     0.013003
      py      :     0.016783

  5 H s       :     0.808798  s :     0.808798
      pz      :     0.022608  p :     0.060813
      px      :     0.012444
      py      :     0.025761

  6 H s       :     0.807919  s :     0.807919
      pz      :     0.013548  p :     0.061149
      px      :     0.026630
      py      :     0.020971

  7 H s       :     0.801419  s :     0.801419
      pz      :     0.031045  p :     0.060808
      px      :     0.013008
      py      :     0.016754

  8 H s       :     0.807908  s :     0.807908
      pz      :     0.013564  p :     0.061150
      px      :     0.026628
      py      :     0.020958

  9 H s       :     0.808833  s :     0.808833
      pz      :     0.022572  p :     0.060814
      px      :     0.012445
      py      :     0.025798


---------------------------------
LOEWDIN BOND ORDERS (THRESH 0.050000)
---------------------------------
B(  0-C ,  1-C ) :   1.2635 B(  0-C ,  2-O ) :   0.1809 B(  0-C ,  3-C ) :   0.1495 
B(  0-C ,  4-H ) :   0.8793 B(  0-C ,  5-H ) :   0.8884 B(  0-C ,  6-H ) :   0.8975 
B(  1-C ,  2-O ) :   2.6305 B(  1-C ,  3-C ) :   1.2635 B(  1-C ,  4-H ) :   0.0953 
B(  1-C ,  5-H ) :   0.0882 B(  1-C ,  6-H ) :   0.0848 B(  1-C ,  7-H ) :   0.0953 
B(  1-C ,  8-H ) :   0.0848 B(  1-C ,  9-H ) :   0.0881 B(  2-O ,  3-C ) :   0.1809 
B(  3-C ,  7-H ) :   0.8793 B(  3-C ,  8-H ) :   0.8975 B(  3-C ,  9-H ) :   0.8884 


------------------------------------------
LOEWDIN REDUCED ORBITAL POPULATIONS PER MO
-------------------------------------------
THRESHOLD FOR PRINTING IS 0.1%%
                      0         1         2         3         4         5   
                 -21.65861 -12.14144 -12.05505 -12.05456  -1.70115  -1.29458
                   2.00000   2.00000   2.00000   2.00000   2.00000   2.00000
                  --------  --------  --------  --------  --------  --------
 0 C  s               0.0       0.0      49.9      49.6       0.5      16.4
 0 C  px              0.0       0.0       0.0       0.0       0.8       2.9
 0 C  py              0.0       0.0       0.0       0.0       0.9       0.2
 0 C  dz2             0.0       0.0       0.0       0.0       0.1       0.1
 0 C  dx2y2           0.0       0.0       0.0       0.0       0.0       0.5
 0 C  dxy             0.0       0.1       0.0       0.0       0.4       0.1
 1 C  s               0.0      99.1       0.0       0.0      13.7      15.1
 1 C  py              0.0       0.0       0.0       0.0      16.4      12.8
 1 C  dz2             0.0       0.0       0.0       0.1       1.1       0.3
 1 C  dx2y2           0.1       0.0       0.0       0.1       3.7       1.7
 1 C  dxy             0.0       0.0       0.2       0.0       0.0       0.0
 1 C  f-1             0.0       0.0       0.0       0.0       0.3       0.1
 1 C  f-3             0.1       0.0       0.0       0.0       0.6       0.1
 2 O  s              99.7       0.0       0.0       0.0      52.7       3.6
 2 O  py              0.0       0.1       0.0       0.0       4.8       3.8
 2 O  dx2y2           0.0       0.1       0.0       0.0       0.3       0.1
 3 C  s               0.0       0.0      49.6      49.9       0.5      16.4
 3 C  px              0.0       0.0       0.0       0.0       0.8       2.9
 3 C  py              0.0       0.0       0.0       0.0       0.9       0.2
 3 C  dz2             0.0       0.0       0.0       0.0       0.1       0.1
 3 C  dx2y2           0.0       0.0       0.0       0.0       0.0       0.5
 3 C  dxy             0.0       0.1       0.0       0.0       0.4       0.1
 4 H  s               0.0       0.0       0.0       0.0       0.1       3.4
 4 H  pz              0.0       0.0       0.0       0.0       0.0       0.3
 5 H  s               0.0       0.0       0.0       0.0       0.1       3.5
 5 H  pz              0.0       0.0       0.0       0.0       0.0       0.1
 5 H  py              0.0       0.0       0.0       0.0       0.0       0.2
 6 H  s               0.0       0.0       0.0       0.0       0.1       2.9
 6 H  px              0.0       0.0       0.0       0.0       0.0       0.2
 7 H  s               0.0       0.0       0.0       0.0       0.1       3.4
 7 H  pz              0.0       0.0       0.0       0.0       0.0       0.3
 8 H  s               0.0       0.0       0.0       0.0       0.1       2.9
 8 H  px              0.0       0.0       0.0       0.0       0.0       0.2
 9 H  s               0.0       0.0       0.0       0.0       0.1       3.5
 9 H  pz              0.0       0.0       0.0       0.0       0.0       0.1
 9 H  py              0.0       0.0       0.0       0.0       0.0       0.2

                      6         7         8         9        10        11   
                  -1.21617  -1.08050  -0.96580  -0.96274  -0.91439  -0.84854
                   2.00000   2.00000   2.00000   2.00000   2.00000   2.00000
                  --------  --------  --------  --------  --------  --------
 0 C  s              19.4       2.9       1.4       0.8       0.0       0.1
 0 C  pz              0.0       0.0       0.0       0.0       9.3       0.0
 0 C  px              0.4       1.5      19.1       3.2       0.0       3.2
 0 C  py              0.1       1.6       1.1       6.9       0.0      22.6
 0 C  dz2             0.0       0.1       0.2       0.2       0.0       0.2
 0 C  dxz             0.0       0.0       0.0       0.0       0.6       0.0
 0 C  dyz             0.0       0.0       0.0       0.0       0.1       0.2
 0 C  dx2y2           0.1       0.0       0.8       0.0       0.0       0.5
 0 C  dxy             0.0       0.5       0.3       0.4       0.0       0.1
 1 C  s               0.0       6.2       4.3       0.0       0.0       0.4
 1 C  pz              0.0       0.0       0.0       0.0      31.5       0.0
 1 C  px             22.1       0.0       0.0      16.7       0.0       0.0
 1 C  py              0.0       3.5      14.8       0.0       0.0       2.4
 1 C  dz2             0.0       0.7       0.0       0.0       0.0       0.0
 1 C  dyz             0.0       0.0       0.0       0.0       1.0       0.0
 1 C  dx2y2           0.0       0.6       0.4       0.0       0.0       4.1
 1 C  dxy             2.7       0.0       0.0       3.6       0.0       0.0
 1 C  f0              0.0       0.0       0.0       0.0       0.4       0.0
 1 C  f+2             0.0       0.0       0.0       0.0       0.2       0.0
 1 C  f+3             0.0       0.0       0.0       0.6       0.0       0.0
 2 O  s               0.0      12.8       1.6       0.0       0.0       0.1
 2 O  pz              0.0       0.0       0.0       0.0      38.2       0.0
 2 O  px              1.3       0.0       0.0      45.4       0.0       0.0
 2 O  py              0.0      50.6      12.8       0.0       0.0       2.4
 2 O  dz2             0.0       0.2       0.0       0.0       0.0       0.0
 2 O  dyz             0.0       0.0       0.0       0.0       0.6       0.0
 2 O  dx2y2           0.0       0.6       0.0       0.0       0.0       0.0
 2 O  dxy             0.2       0.0       0.0       0.3       0.0       0.0
 3 C  s              19.4       2.9       1.4       0.8       0.0       0.1
 3 C  pz              0.0       0.0       0.0       0.0       9.3       0.0
 3 C  px              0.4       1.5      19.1       3.2       0.0       3.2
 3 C  py              0.1       1.6       1.1       6.9       0.0      22.6
 3 C  dz2             0.0       0.1       0.2       0.2       0.0       0.2
 3 C  dxz             0.0       0.0       0.0       0.0       0.6       0.0
 3 C  dyz             0.0       0.0       0.0       0.0       0.1       0.2
 3 C  dx2y2           0.1       0.0       0.8       0.0       0.0       0.5
 3 C  dxy             0.0       0.5       0.3       0.4       0.0       0.1
 4 H  s               5.1       1.7       1.9       1.8       2.1       1.1
 4 H  pz              0.4       0.2       0.1       0.1       0.0       0.1
 4 H  px              0.0       0.0       0.2       0.0       0.0       0.0
 4 H  py              0.1       0.0       0.0       0.0       0.1       0.2
 5 H  s               4.8       2.0       1.4       2.5       1.4       7.3
 5 H  pz              0.2       0.1       0.0       0.1       0.0       0.2
 5 H  px              0.0       0.0       0.2       0.0       0.0       0.0
 5 H  py              0.3       0.1       0.0       0.0       0.1       0.0
 6 H  s               5.1       1.4       5.6       0.2       0.2       9.0
 6 H  px              0.4       0.0       0.0       0.0       0.0       0.3
 6 H  py              0.2       0.1       0.3       0.1       0.0       0.0
 7 H  s               5.1       1.7       1.9       1.8       2.1       1.1
 7 H  pz              0.4       0.2       0.1       0.1       0.0       0.1
 7 H  px              0.0       0.0       0.2       0.0       0.0       0.0
 7 H  py              0.1       0.0       0.0       0.0       0.1       0.2
 8 H  s               5.1       1.4       5.6       0.2       0.2       8.9
 8 H  px              0.4       0.0       0.0       0.0       0.0       0.3
 8 H  py              0.2       0.1       0.3       0.1       0.0       0.0
 9 H  s               4.8       2.0       1.4       2.5       1.4       7.3
 9 H  pz              0.2       0.1       0.0       0.1       0.0       0.2
 9 H  px              0.0       0.0       0.2       0.0       0.0       0.0
 9 H  py              0.3       0.1       0.0       0.0       0.1       0.0

                     12        13        14        15        16        17   
                  -0.83242  -0.83216  -0.83097  -0.79496  -0.30672  -0.04520
                   2.00000   2.00000   2.00000   2.00000   0.00000   0.00000
                  --------  --------  --------  --------  --------  --------
 0 C  s               0.0       0.0       0.0       0.4       0.0       6.4
 0 C  pz             17.4      26.4       0.0       0.1       0.2       0.1
 0 C  px              0.0       0.0       5.3      16.2       0.0       5.6
 0 C  py              0.0       0.0      18.0       1.8       0.0       0.9
 0 C  dz2             0.2       0.3       0.3       0.1       0.1       0.2
 0 C  dxz             0.2       0.1       0.1       0.0       2.8       0.0
 0 C  dyz             1.3       0.8       0.2       0.0       2.4       0.0
 0 C  dx2y2           0.0       0.0       0.7       0.1       0.0       0.5
 0 C  dxy             0.0       0.1       0.6       0.3       0.0       5.7
 0 C  f0              0.0       0.0       0.0       0.0       0.2       0.0
 0 C  f+2             0.0       0.1       0.0       0.0       0.2       0.0
 0 C  f-2             0.0       0.0       0.0       0.0       0.2       0.0
 0 C  f-3             0.0       0.0       0.0       0.0       0.0       0.5
 1 C  s               0.0       0.0       0.0       0.0       0.0      15.6
 1 C  pz              1.8       0.0       0.0       0.0      45.5       0.0
 1 C  px              0.0       0.0       0.1      12.9       0.0       0.0
 1 C  py              0.0       0.0       0.0       0.0       0.0       1.6
 1 C  dz2             0.0       0.0       0.0       0.0       0.0      13.4
 1 C  dxz             0.0       3.2       0.0       0.0       0.0       0.0
 1 C  dyz             5.7       0.0       0.0       0.0       2.1       0.0
 1 C  dx2y2           0.0       0.0       0.0       0.0       0.0       0.3
 1 C  dxy             0.0       0.0       0.0       9.5       0.0       0.0
 1 C  f0              0.0       0.0       0.0       0.0       0.6       0.0
 1 C  f+2             0.5       0.0       0.0       0.0       0.6       0.0
 1 C  f-2             0.0       0.3       0.0       0.0       0.0       0.0
 1 C  f+3             0.0       0.0       1.5       0.4       0.0       0.0
 1 C  f-3             0.0       0.0       0.0       0.0       0.0       3.0
 2 O  s               0.0       0.0       0.0       0.0       0.0       2.8
 2 O  pz             24.0       0.0       0.0       0.0      30.5       0.0
 2 O  px              0.1       0.0       9.7      27.5       0.0       0.0
 2 O  py              0.0       0.0       0.0       0.0       0.0       6.0
 2 O  dz2             0.0       0.0       0.0       0.0       0.0       0.1
 2 O  dyz             0.1       0.0       0.0       0.0       2.6       0.0
 2 O  dx2y2           0.0       0.0       0.0       0.0       0.0       1.6
 2 O  dxy             0.0       0.0       0.0       0.6       0.0       0.0
 2 O  f0              0.0       0.0       0.0       0.0       0.1       0.0
 2 O  f+2             0.0       0.0       0.0       0.0       0.2       0.0
 3 C  s               0.0       0.0       0.0       0.4       0.0       6.4
 3 C  pz             17.0      26.8       0.0       0.1       0.2       0.1
 3 C  px              0.0       0.0       5.3      16.2       0.0       5.6
 3 C  py              0.0       0.0      18.0       1.8       0.0       0.9
 3 C  dz2             0.2       0.3       0.3       0.1       0.1       0.2
 3 C  dxz             0.2       0.1       0.1       0.0       2.8       0.0
 3 C  dyz             1.3       0.8       0.2       0.0       2.4       0.0
 3 C  dx2y2           0.0       0.0       0.7       0.1       0.0       0.5
 3 C  dxy             0.0       0.1       0.6       0.3       0.0       5.7
 3 C  f0              0.0       0.0       0.0       0.0       0.2       0.0
 3 C  f+2             0.0       0.1       0.0       0.0       0.2       0.0
 3 C  f-2             0.0       0.0       0.0       0.0       0.2       0.0
 3 C  f-3             0.0       0.0       0.0       0.0       0.0       0.5
 4 H  s               8.6      12.3       1.3       0.8       1.6       2.6
 4 H  pz              0.1       0.1       0.1       0.0       0.0       0.5
 4 H  px              0.0       0.0       0.1       0.2       0.0       0.4
 4 H  py              0.1       0.2       0.1       0.0       0.0       0.2
 5 H  s               5.3       5.9       6.2       0.2       0.9       2.0
 5 H  pz              0.0       0.0       0.2       0.0       0.0       0.3
 5 H  px              0.0       0.0       0.0       0.3       0.0       0.4
 5 H  py              0.2       0.3       0.0       0.0       0.0       0.5
 6 H  s               0.5       0.9      10.8       3.7       0.1       0.6
 6 H  pz              0.2       0.3       0.0       0.0       0.0       0.0
 6 H  px              0.0       0.0       0.2       0.0       0.0       0.5
 6 H  py              0.0       0.0       0.0       0.2       0.0       0.0
 7 H  s               8.4      12.5       1.2       0.8       1.6       2.6
 7 H  pz              0.1       0.1       0.1       0.0       0.0       0.5
 7 H  px              0.0       0.0       0.1       0.2       0.0       0.4
 7 H  py              0.1       0.2       0.1       0.0       0.0       0.2
 8 H  s               0.5       0.9      10.8       3.7       0.1       0.6
 8 H  pz              0.2       0.3       0.0       0.0       0.0       0.0
 8 H  px              0.0       0.0       0.2       0.0       0.0       0.5
 8 H  py              0.0       0.0       0.0       0.2       0.0       0.0
 9 H  s               5.2       5.9       6.2       0.2       0.9       2.0
 9 H  pz              0.0       0.0       0.2       0.0       0.0       0.3
 9 H  px              0.0       0.0       0.0       0.3       0.0       0.4
 9 H  py              0.2       0.3       0.0       0.0       0.0       0.5

                     18        19        20        21        22        23   
                  -0.02048  -0.00375   0.01327   0.03287   0.03886   0.05020
                   0.00000   0.00000   0.00000   0.00000   0.00000   0.00000
                  --------  --------  --------  --------  --------  --------
 0 C  s               1.6       5.9       6.3       3.7       0.0       0.7
 0 C  pz              0.1       0.2       1.0       7.2      10.8       8.3
 0 C  px              3.6       2.2       3.8       5.4       0.1       6.7
 0 C  py              8.1       0.6       2.2       0.0       0.7       1.6
 0 C  dz2             4.4       1.0       0.1       0.6       2.9       0.0
 0 C  dxz             0.1       0.2       0.6       0.7       0.0       0.1
 0 C  dyz             0.2       0.4       1.3       2.3       6.9       0.9
 0 C  dx2y2           5.0       1.1       0.3       0.0       0.6       0.1
 0 C  dxy             0.7       5.6       3.0       0.5       0.2       4.9
 0 C  f+1             0.0       0.0       0.1       0.0       0.0       0.1
 0 C  f-1             0.1       0.0       0.2       0.1       0.0       0.0
 0 C  f+2             0.0       0.0       0.0       0.0       0.1       0.0
 0 C  f+3             0.1       0.1       0.0       0.0       0.0       0.0
 0 C  f-3             0.1       0.1       0.1       0.0       0.0       0.0
 1 C  s               4.0       1.0       0.0       0.0       0.4       0.0
 1 C  pz              0.0       0.0       0.2       0.8       0.0       0.9
 1 C  px              0.0       0.0      12.6       1.0       0.0       5.9
 1 C  py              6.2       3.2       0.0       0.0       0.4       0.0
 1 C  dz2             0.1       0.1       0.0       0.0       0.2       0.0
 1 C  dxz             0.0       0.0       0.0       0.0       5.6       0.0
 1 C  dyz             0.0       0.0       0.0       0.0       0.0       0.1
 1 C  dx2y2           4.7       7.6       0.0       0.0       0.5       0.0
 1 C  dxy             0.0       0.0       5.2       0.0       0.0       1.1
 1 C  f0              0.0       0.0       0.0       0.2       0.0       0.2
 1 C  f+1             0.0       0.0       0.4       0.0       0.0       0.1
 1 C  f-1             0.0       0.2       0.0       0.0       0.0       0.0
 1 C  f-2             0.0       0.0       0.0       0.0       0.2       0.0
 1 C  f+3             0.0       0.0       0.9       0.1       0.0       0.2
 2 O  s               0.8       0.7       0.0       0.0       0.3       0.0
 2 O  pz              0.0       0.0       0.0       0.1       0.0       0.1
 2 O  px              0.0       0.0       4.5       0.6       0.0       0.7
 2 O  py              0.7       4.1       0.0       0.0       0.3       0.0
 2 O  dz2             0.0       0.2       0.0       0.0       0.1       0.0
 2 O  dxz             0.0       0.0       0.0       0.0       0.1       0.0
 2 O  dx2y2           0.0       0.8       0.0       0.0       0.0       0.0
 2 O  dxy             0.0       0.0       1.7       0.0       0.0       0.6
 2 O  f+3             0.0       0.0       0.2       0.0       0.0       0.1
 3 C  s               1.6       5.9       6.3       3.7       0.0       0.7
 3 C  pz              0.1       0.1       1.0       7.2      10.7       8.4
 3 C  px              3.5       2.2       3.8       5.4       0.1       6.7
 3 C  py              8.1       0.6       2.2       0.0       0.7       1.6
 3 C  dz2             4.4       1.0       0.1       0.6       3.0       0.0
 3 C  dxz             0.1       0.2       0.6       0.7       0.0       0.1
 3 C  dyz             0.2       0.4       1.3       2.3       6.8       0.9
 3 C  dx2y2           5.0       1.1       0.3       0.0       0.6       0.1
 3 C  dxy             0.7       5.6       3.0       0.5       0.2       4.9
 3 C  f+1             0.0       0.0       0.1       0.0       0.0       0.1
 3 C  f-1             0.1       0.0       0.2       0.1       0.0       0.0
 3 C  f+2             0.0       0.0       0.0       0.0       0.1       0.0
 3 C  f+3             0.1       0.1       0.0       0.0       0.0       0.0
 3 C  f-3             0.1       0.1       0.1       0.0       0.0       0.0
 4 H  s               5.4       1.7       1.4      13.1       9.9       2.6
 4 H  pz              1.9       0.4       0.6       3.4       1.8       0.2
 4 H  px              0.1       0.2       0.5       0.0       0.1       0.3
 4 H  py              0.0       0.2       0.0       1.3       1.0       0.4
 5 H  s               6.6       2.1      10.4       0.6       7.1       4.7
 5 H  pz              1.6       0.1       1.4       0.0       0.2       0.4
 5 H  px              0.2       0.5       0.1       0.0       0.0       0.6
 5 H  py              0.5       0.4       2.4       0.1       2.6       1.2
 6 H  s               0.5      13.7       1.0       6.5       0.2       7.6
 6 H  pz              0.0       0.1       0.1       1.0       0.7       0.0
 6 H  px              0.4       2.7       0.1       0.9       0.1       1.3
 6 H  py              0.5       1.3       0.0       0.9       0.1       1.9
 7 H  s               5.4       1.7       1.4      13.1       9.9       2.7
 7 H  pz              1.9       0.4       0.6       3.4       1.8       0.2
 7 H  px              0.1       0.2       0.5       0.0       0.1       0.3
 7 H  py              0.0       0.2       0.0       1.3       1.0       0.4
 8 H  s               0.5      13.7       1.0       6.5       0.2       7.6
 8 H  pz              0.0       0.2       0.1       1.0       0.7       0.0
 8 H  px              0.4       2.7       0.1       0.9       0.1       1.3
 8 H  py              0.5       1.3       0.0       0.9       0.1       1.9
 9 H  s               6.6       2.1      10.4       0.6       7.0       4.7
 9 H  pz              1.6       0.1       1.4       0.0       0.2       0.3
 9 H  px              0.2       0.5       0.1       0.0       0.0       0.6
 9 H  py              0.5       0.4       2.4       0.1       2.5       1.2

                     24        25        26        27        28        29   
                   0.08214   0.10619   0.18178   0.19172   0.19230   0.20356
                   0.00000   0.00000   0.00000   0.00000   0.00000   0.00000
                  --------  --------  --------  --------  --------  --------
 0 C  s               0.1       0.5       0.2       0.3       0.2       0.3
 0 C  pz              0.5       0.1       4.3       3.3      17.6      23.7
 0 C  px              2.0       2.2       6.0      27.5       0.2       1.3
 0 C  py             10.3      12.4      11.9       1.6       1.6       3.3
 0 C  dz2             7.7       0.0       6.4       0.4       1.7       0.2
 0 C  dxz             0.7       0.0       0.0       0.4       1.6       1.5
 0 C  dyz             0.7       0.1       2.6       0.2       3.4       5.0
 0 C  dx2y2           0.4       1.7       2.0       0.5       0.1       0.1
 0 C  dxy             0.9       0.5       0.8       1.7       0.4       0.8
 0 C  f-2             0.0       0.0       0.0       0.0       0.1       0.0
 0 C  f-3             0.1       0.0       0.1       0.0       0.0       0.0
 1 C  s               0.0       4.4       6.6       2.2       0.0       0.7
 1 C  pz              0.2       0.0       0.0       0.0      27.7       0.0
 1 C  px             12.8       0.0       0.0       0.0       0.0       0.0
 1 C  py              0.0      16.8       4.1       1.2       0.0       1.9
 1 C  dz2             0.0       1.8       1.7       4.7       0.0       0.2
 1 C  dxz             0.0       0.0       0.6       0.0       0.0       1.6
 1 C  dyz             0.2       0.0       0.0       0.0       0.1       0.0
 1 C  dx2y2           0.0       1.4       1.1       2.3       0.0       0.9
 1 C  dxy             0.2       0.0       0.0       0.0       0.0       0.0
 1 C  f-1             0.0       0.6       0.2       0.2       0.0       0.1
 1 C  f-2             0.0       0.0       0.0       0.0       0.0       0.2
 1 C  f+3             0.1       0.0       0.0       0.0       0.0       0.0
 1 C  f-3             0.0       0.7       0.3       0.4       0.0       0.1
 2 O  s               0.0       8.8       1.3       0.1       0.0       0.1
 2 O  pz              0.3       0.0       0.0       0.0       4.7       0.0
 2 O  px              1.4       0.0       0.0       0.0       0.6       0.0
 2 O  py              0.0       3.4       2.1       0.3       0.0       1.0
 2 O  dz2             0.0       0.1       0.4       0.3       0.0       0.1
 2 O  dxz             0.0       0.0       0.0       0.0       0.0       0.4
 2 O  dyz             0.0       0.0       0.0       0.0       0.4       0.0
 2 O  dx2y2           0.0       0.3       0.8       0.1       0.0       0.5
 2 O  dxy             1.0       0.0       0.0       0.0       0.0       0.0
 3 C  s               0.1       0.5       0.2       0.4       0.2       0.3
 3 C  pz              0.5       0.1       4.4       4.0      16.7      23.7
 3 C  px              2.0       2.2       6.0      27.7       0.1       1.3
 3 C  py             10.3      12.4      11.8       1.4       1.9       3.4
 3 C  dz2             7.6       0.0       6.4       0.5       1.6       0.2
 3 C  dxz             0.7       0.0       0.0       0.5       1.5       1.5
 3 C  dyz             0.7       0.1       2.6       0.3       3.3       5.0
 3 C  dx2y2           0.4       1.7       2.0       0.5       0.0       0.1
 3 C  dxy             0.9       0.5       0.8       1.6       0.5       0.8
 3 C  f-2             0.0       0.0       0.0       0.0       0.1       0.0
 3 C  f-3             0.1       0.0       0.1       0.0       0.0       0.0
 4 H  s               3.2       1.2       0.1       0.6       2.8       3.4
 4 H  pz              1.7       0.4       0.0       0.1       0.0       0.5
 4 H  px              0.0       0.2       0.0       0.3       0.0       0.1
 4 H  py              0.2       0.0       1.5       0.1       0.2       0.2
 5 H  s               3.7       3.1       1.1       0.5       2.3       3.4
 5 H  pz              1.8       0.7       1.1       0.1       0.3       0.0
 5 H  px              0.1       0.1       0.3       0.1       0.0       0.1
 5 H  py              0.0       0.3       0.2       0.0       0.0       0.0
 6 H  s               5.5       5.9       1.7       5.5       0.1       0.8
 6 H  pz              0.0       0.1       0.0       0.0       0.8       0.9
 6 H  px              2.0       0.3       0.1       0.2       0.0       0.0
 6 H  py              0.0       0.8       0.0       0.1       0.1       0.0
 7 H  s               3.2       1.2       0.1       0.6       2.7       3.4
 7 H  pz              1.7       0.4       0.0       0.1       0.0       0.5
 7 H  px              0.0       0.2       0.0       0.3       0.0       0.1
 7 H  py              0.2       0.0       1.5       0.0       0.2       0.2
 8 H  s               5.5       5.9       1.7       5.4       0.2       0.8
 8 H  pz              0.0       0.1       0.0       0.0       0.8       0.9
 8 H  px              2.0       0.3       0.1       0.2       0.0       0.0
 8 H  py              0.0       0.8       0.0       0.1       0.1       0.0
 9 H  s               3.7       3.1       1.1       0.6       2.2       3.4
 9 H  pz              1.8       0.7       1.1       0.1       0.3       0.0
 9 H  px              0.1       0.1       0.3       0.1       0.0       0.1
 9 H  py              0.0       0.3       0.2       0.0       0.0       0.0

                     30        31        32        33        34        35   
                   0.22240   0.24365   0.25538   0.28474   0.31945   0.33422
                   0.00000   0.00000   0.00000   0.00000   0.00000   0.00000
                  --------  --------  --------  --------  --------  --------
 0 C  s               1.1       0.9       0.5       0.7       3.1      14.5
 0 C  pz              0.2       0.2       0.4       6.8       1.0       0.1
 0 C  px              9.9       0.3      10.5       0.3       1.2       0.4
 0 C  py             18.1       1.2      11.6       0.0       0.1       2.3
 0 C  dz2             1.8       0.3       2.4       1.5       0.3       0.5
 0 C  dxz             0.0       0.0       2.4       5.0       0.4       0.3
 0 C  dyz             0.0       0.2       1.0       0.3       0.0       0.1
 0 C  dx2y2           1.3       0.1       7.0       0.5       0.4       0.5
 0 C  dxy             0.2       0.9       0.7       0.1       2.3       0.0
 0 C  f0              0.0       0.0       0.0       0.1       0.1       0.1
 0 C  f+1             0.0       0.1       0.1       0.0       0.0       0.1
 0 C  f-1             0.1       0.2       0.0       0.0       0.4       0.3
 0 C  f-2             0.0       0.0       0.0       0.0       0.1       0.0
 0 C  f+3             0.0       0.2       0.0       0.0       0.0       0.1
 0 C  f-3             0.0       0.1       0.1       0.0       0.7       0.0
 1 C  s               0.0       8.1       0.0       0.0       0.0       0.2
 1 C  pz              0.5       0.0       1.0      45.2       3.4       0.0
 1 C  px              7.0       0.0       2.4       1.6      16.0       0.0
 1 C  py              0.0      39.8       0.0       0.0       0.0       5.4
 1 C  dz2             0.0       0.7       0.0       0.0       0.0       0.3
 1 C  dxz             0.0       0.1       0.0       0.0       0.0       0.3
 1 C  dyz             0.0       0.0       1.1       0.3       0.0       0.0
 1 C  dx2y2           0.0       0.7       0.0       0.0       0.0       0.1
 1 C  dxy             3.8       0.0       0.4       0.0       0.3       0.0
 1 C  f+1             0.8       0.0       0.0       0.0       0.0       0.0
 1 C  f-1             0.0       0.0       0.0       0.0       0.0       0.2
 1 C  f+3             0.2       0.0       0.3       0.0       0.3       0.0
 1 C  f-3             0.0       0.4       0.0       0.0       0.0       0.1
 2 O  s               0.0       1.8       0.0       0.0       0.0       0.6
 2 O  pz              0.1       0.0       1.0       8.4       0.4       0.0
 2 O  px              7.2       0.0       2.8       3.6      20.7       0.0
 2 O  py              0.0      18.7       0.0       0.0       0.0       1.4
 2 O  dz2             0.0       1.9       0.0       0.0       0.0       0.0
 2 O  dyz             0.0       0.0       0.1       0.5       0.0       0.0
 2 O  dx2y2           0.0       2.5       0.0       0.0       0.0       1.2
 2 O  dxy             0.9       0.0       0.0       0.1       0.6       0.0
 2 O  f-3             0.0       0.1       0.0       0.0       0.0       0.0
 3 C  s               1.1       0.9       0.5       0.7       3.1      14.5
 3 C  pz              0.2       0.2       0.4       6.8       1.0       0.1
 3 C  px              9.9       0.3      10.4       0.3       1.2       0.4
 3 C  py             18.1       1.2      11.6       0.0       0.1       2.3
 3 C  dz2             1.8       0.3       2.4       1.5       0.3       0.5
 3 C  dxz             0.0       0.0       2.4       5.0       0.4       0.3
 3 C  dyz             0.0       0.2       1.0       0.3       0.0       0.1
 3 C  dx2y2           1.3       0.1       7.0       0.5       0.4       0.5
 3 C  dxy             0.2       0.9       0.7       0.1       2.3       0.0
 3 C  f0              0.0       0.0       0.0       0.1       0.1       0.1
 3 C  f+1             0.0       0.1       0.1       0.0       0.0       0.1
 3 C  f-1             0.1       0.2       0.0       0.0       0.4       0.3
 3 C  f-2             0.0       0.0       0.0       0.0       0.1       0.0
 3 C  f+3             0.0       0.2       0.0       0.0       0.0       0.1
 3 C  f-3             0.0       0.1       0.1       0.0       0.8       0.0
 4 H  s               2.7       1.1       0.1       1.3       1.4      15.2
 4 H  pz              0.1       0.3       0.0       0.0       0.7       1.2
 4 H  px              0.0       0.2       1.1       0.7       0.0       0.3
 4 H  py              0.0       0.0       0.8       0.0       0.1       0.2
 5 H  s               3.1       3.3       1.1       0.2       1.6       6.3
 5 H  pz              0.0       0.1       0.1       0.4       0.2       0.9
 5 H  px              0.0       0.4       0.0       0.2       0.5       0.0
 5 H  py              0.1       0.0       2.0       0.0       0.3       0.9
 6 H  s               0.4       1.5       2.6       0.3      11.8       0.3
 6 H  pz              0.0       0.0       0.0       1.0       0.0       0.0
 6 H  px              0.0       0.7       0.4       0.2       1.9       0.0
 6 H  py              0.3       0.3       0.3       0.1       0.2       0.3
 7 H  s               2.7       1.1       0.1       1.3       1.4      15.3
 7 H  pz              0.1       0.3       0.0       0.0       0.7       1.2
 7 H  px              0.0       0.2       1.1       0.7       0.0       0.3
 7 H  py              0.0       0.0       0.8       0.0       0.1       0.2
 8 H  s               0.4       1.5       2.6       0.3      11.8       0.3
 8 H  pz              0.0       0.0       0.0       1.0       0.0       0.0
 8 H  px              0.0       0.7       0.4       0.2       1.9       0.0
 8 H  py              0.3       0.3       0.3       0.1       0.2       0.3
 9 H  s               3.1       3.3       1.1       0.2       1.6       6.3
 9 H  pz              0.0       0.1       0.1       0.4       0.2       0.9
 9 H  px              0.0       0.4       0.0       0.2       0.5       0.0
 9 H  py              0.1       0.0       1.9       0.0       0.3       0.9

                     36        37        38        39        40        41   
                   0.34394   0.35321   0.38152   0.38243   0.39498   0.39590
                   0.00000   0.00000   0.00000   0.00000   0.00000   0.00000
                  --------  --------  --------  --------  --------  --------
 0 C  s               4.7       0.1       0.4       3.1       0.9      10.3
 0 C  pz              0.1       9.2      10.5       1.0       0.0       0.7
 0 C  px              3.4       0.1       0.1       1.6       6.5       8.4
 0 C  py              4.7       0.5       0.1       7.8       6.7       0.5
 0 C  dz2             0.2       0.2       0.8       1.4       0.2       0.0
 0 C  dxz             0.2       0.7       0.3       0.2       0.5       0.1
 0 C  dyz             0.0       3.5       0.9       0.7       0.3       0.0
 0 C  dx2y2           0.4       0.1       1.1       0.3       0.1       0.0
 0 C  dxy             0.7       0.0       0.0       0.5       0.4       0.2
 0 C  f+1             0.5       0.0       0.0       0.0       0.0       0.1
 0 C  f-1             0.3       0.0       0.0       0.1       0.0       0.1
 0 C  f+2             0.0       0.3       0.2       0.1       0.1       0.0
 0 C  f-3             0.5       0.0       0.1       0.0       0.3       0.0
 1 C  s              32.9       0.0       1.2       0.0       2.8       0.0
 1 C  pz              0.0       0.7       0.0       0.0       0.0       0.2
 1 C  px              0.0       0.7       0.0       0.8       0.0      19.0
 1 C  py              6.7       0.0       1.9       0.0       2.5       0.0
 1 C  dz2             7.8       0.0       0.9       0.0       1.6       0.0
 1 C  dxz             0.3       0.0       0.3       0.0       0.1       0.0
 1 C  dyz             0.0       0.6       0.0       0.0       0.0       0.0
 1 C  dx2y2           0.1       0.0       0.0       0.0       0.1       0.0
 1 C  dxy             0.0       0.0       0.0       0.1       0.0       0.7
[...]
 1 C  f+2             0.0       0.8       0.0       0.0       4.5       0.0
 1 C  f-2             0.0       0.0      10.8       0.0       0.0       0.0
 1 C  f+3             0.5       0.1       0.0       0.0       0.0       0.0
 1 C  f-3             0.0       0.0       0.0       6.6       0.0       0.2
 2 O  s               0.0       0.0       0.0       0.1       0.0       3.5
 2 O  pz              0.0       0.0       0.0       0.0       1.8       0.0
 2 O  py              0.0       0.0       0.0       0.1       0.0       5.1
 2 O  dz2             0.0       0.0       0.0       3.3       0.0       4.4
 2 O  dxz             0.0       0.0       4.2       0.0       0.0       0.1
 2 O  dyz             0.0       0.0       0.0       0.0      33.8       0.0
 2 O  dx2y2           0.0       0.0       0.0       0.4       0.0      16.7
 2 O  f0              3.3      57.7       0.0       0.0      17.7       0.0
 2 O  f+1            87.2       4.8       0.0       0.0       0.0       0.0
 2 O  f-1             0.0       0.0       0.1      41.9       0.0      20.9
 2 O  f+2             1.9      33.4       0.0       0.0      30.0       0.0
 2 O  f-2             0.0       0.0      80.6       0.1       0.0       0.0
 2 O  f+3             3.9       0.1       0.0       0.0       0.0       0.0
 2 O  f-3             0.0       0.0       0.0      34.3       0.0      30.2
 3 C  s               0.1       0.0       0.0       0.2       0.0       0.0
 3 C  pz              0.0       0.0       0.0       0.0       0.1       0.0
 3 C  px              0.0       0.0       0.0       0.5       0.0       0.1
 3 C  py              0.1       0.0       0.0       0.2       0.0       0.2
 3 C  dz2             0.0       0.0       0.0       0.2       0.0       0.0
 3 C  dxz             0.0       0.1       0.4       0.0       0.1       0.0
 3 C  dyz             0.0       0.0       0.2       0.0       0.1       0.0
 3 C  dx2y2           0.1       0.0       0.0       0.4       0.0       0.0
 3 C  dxy             0.1       0.0       0.0       0.4       0.0       0.0
 3 C  f0              0.0       0.1       0.0       0.0       0.0       0.0
 3 C  f+2             0.0       0.0       0.9       0.0       0.1       0.0
 3 C  f-2             0.0       0.2       0.1       0.0       0.3       0.0
 3 C  f+3             0.1       0.0       0.0       0.2       0.0       0.1
 3 C  f-3             0.2       0.0       0.0       0.2       0.0       0.0
 5 H  s               0.0       0.0       0.1       0.0       0.0       0.0
 9 H  s               0.0       0.0       0.1       0.0       0.0       0.0

                    150       151       152       153       154       155   
                   5.91970   6.04977   6.08854   6.39687   6.56443   6.59124
                   0.00000   0.00000   0.00000   0.00000   0.00000   0.00000
                  --------  --------  --------  --------  --------  --------
 0 C  s               0.0       0.7       0.2       0.0       0.0       0.1
 0 C  pz              0.2       0.0       0.0       0.0       0.0       0.0
 0 C  px              0.0       0.2       0.1       0.0       0.1       0.0
 0 C  py              0.0       0.3       0.0       0.0       0.0       0.0
 0 C  dx2y2           0.0       0.0       0.8       0.0       0.1       0.0
 0 C  dxy             0.0       0.1       0.4       0.0       0.1       0.0
 0 C  f+3             0.0       0.0       1.1       0.0       0.0       0.0
 0 C  f-3             0.0       0.0       0.0       0.0       0.1       0.0
 1 C  s               0.0       1.5       0.0       0.0       0.0       3.9
 1 C  pz              0.0       0.0       0.0       1.9       0.0       0.0
 1 C  px              0.0       0.0       0.8       0.0       2.0       0.0
 1 C  py              0.0       0.5       0.0       0.0       0.0       2.0
 1 C  dz2             0.0       0.4       0.0       0.0       0.0       0.2
 1 C  dxz             0.8       0.0       0.0       0.0       0.0       0.0
 1 C  dyz             0.0       0.0       0.0       3.1       0.0       0.0
 1 C  dx2y2           0.0       1.0       0.0       0.0       0.0       0.3
 1 C  dxy             0.0       0.0       5.3       0.0       4.2       0.0
 1 C  f0              0.0       0.0       0.0       0.3       0.0       0.0
 1 C  f+1             0.0       0.0       0.3       0.0       0.2       0.0
 1 C  f-1             0.0       0.0       0.0       0.0       0.0       0.5
 1 C  f+2             0.0       0.0       0.0       0.4       0.0       0.0
 1 C  f-2             0.2       0.0       0.0       0.0       0.0       0.0
 1 C  f+3             0.0       0.0      15.4       0.0       1.2       0.0
 1 C  f-3             0.0       0.0       0.0       0.0       0.0       1.9
 2 O  s               0.0       0.2       0.0       0.0       0.0       1.8
 2 O  pz              0.0       0.0       0.0       2.2       0.0       0.0
 2 O  px              0.0       0.0       1.8       0.0       3.4       0.0
 2 O  py              0.0       0.0       0.0       0.0       0.0       2.5
 2 O  dz2             0.0      71.0       0.0       0.0       0.0      15.6
 2 O  dxz            94.4       0.0       0.0       0.0       0.0       0.0
 2 O  dyz             0.0       0.0       0.1      67.1       0.2       0.0
 2 O  dx2y2           0.0      18.0       0.0       0.0       0.0      56.9
 2 O  dxy             0.0       0.0      35.3       0.2      60.6       0.0
 2 O  f0              0.0       0.0       0.0       9.1       0.0       0.0
 2 O  f+1             0.0       0.0       1.9       0.0       1.5       0.0
 2 O  f-1             0.0       2.7       0.0       0.0       0.0       5.8
 2 O  f+2             0.0       0.0       0.0      15.4       0.0       0.0
 2 O  f-2             3.7       0.0       0.0       0.0       0.0       0.0
 2 O  f+3             0.0       0.0      33.3       0.0      25.7       0.0
 2 O  f-3             0.0       1.7       0.0       0.0       0.0       8.0
 3 C  s               0.0       0.7       0.2       0.0       0.0       0.1
 3 C  pz              0.2       0.0       0.0       0.0       0.0       0.0
 3 C  px              0.0       0.2       0.1       0.0       0.1       0.0
 3 C  py              0.0       0.3       0.0       0.0       0.0       0.0
 3 C  dx2y2           0.0       0.0       0.8       0.0       0.1       0.0
 3 C  dxy             0.0       0.1       0.4       0.0       0.1       0.0
 3 C  f+3             0.0       0.0       1.1       0.0       0.0       0.0
 3 C  f-3             0.0       0.0       0.0       0.0       0.1       0.0
 6 H  s               0.0       0.0       0.1       0.0       0.0       0.0
 8 H  s               0.0       0.0       0.1       0.0       0.0       0.0

                    156       157       158       159   
                  20.71843  20.72422  21.36852  41.45358
                   0.00000   0.00000   0.00000   0.00000
                  --------  --------  --------  --------
 0 C  s              48.7      48.2       1.5       0.0
 1 C  s               0.0       2.9      94.2       0.0
 1 C  px              0.3       0.0       0.0       0.0
 1 C  py              0.0       0.1       0.3       0.0
 1 C  dxy             0.2       0.0       0.0       0.0
 2 O  s               0.0       0.1       1.1      99.9
 2 O  py              0.0       0.0       0.7       0.0
 3 C  s              49.7      47.2       1.5       0.0
 4 H  s               0.1       0.1       0.0       0.0
 5 H  s               0.1       0.1       0.0       0.0
 6 H  s               0.1       0.1       0.0       0.0
 7 H  s               0.1       0.1       0.0       0.0
 8 H  s               0.1       0.1       0.0       0.0
 9 H  s               0.1       0.1       0.0       0.0


                      *****************************
                      * MAYER POPULATION ANALYSIS *
                      *****************************

  NA   - Mulliken gross atomic population
  ZA   - Total nuclear charge
  QA   - Mulliken gross atomic charge
  VA   - Mayer's total valence
  BVA  - Mayer's bonded valence
  FA   - Mayer's free valence

  ATOM       NA         ZA         QA         VA         BVA        FA
  0 C      6.3270     6.0000    -0.3270     3.7738     3.7738    -0.0000
  1 C      5.7950     6.0000     0.2050     4.0889     4.0889    -0.0000
  2 O      8.3197     8.0000    -0.3197     2.1424     2.1424     0.0000
  3 C      6.3270     6.0000    -0.3270     3.7738     3.7738     0.0000
  4 H      0.8708     1.0000     0.1292     0.9742     0.9742     0.0000
  5 H      0.8803     1.0000     0.1197     0.9716     0.9716     0.0000
  6 H      0.8646     1.0000     0.1354     0.9969     0.9969     0.0000
  7 H      0.8708     1.0000     0.1292     0.9742     0.9742     0.0000
  8 H      0.8646     1.0000     0.1354     0.9969     0.9969     0.0000
  9 H      0.8803     1.0000     0.1197     0.9716     0.9716     0.0000

  Mayer bond orders larger than 0.100000
B(  0-C ,  1-C ) :   0.9700 B(  0-C ,  4-H ) :   0.9493 B(  0-C ,  5-H ) :   0.9569 
B(  0-C ,  6-H ) :   0.9736 B(  1-C ,  2-O ) :   2.1342 B(  1-C ,  3-C ) :   0.9699 
B(  3-C ,  7-H ) :   0.9492 B(  3-C ,  8-H ) :   0.9736 B(  3-C ,  9-H ) :   0.9570 


-------
TIMINGS
-------

Total SCF time: 0 days 0 hours 0 min 32 sec 

Total time                  ....      32.793 sec
Sum of individual times     ....      31.743 sec  ( 96.8%)

SCF preparation             ....       0.199 sec  (  0.6%)
Fock matrix formation       ....      30.758 sec  ( 93.8%)
  Startup                   ....       0.050 sec  (  0.2% of F)
  Split-RI-J                ....       1.150 sec  (  3.7% of F)
  Chain of spheres X        ....      24.258 sec  ( 78.9% of F)
  XC integration            ....       5.426 sec  ( 17.6% of F)
    XC Preparation          ....       0.000 sec  (  0.0% of XC)
    Basis function eval.    ....       1.266 sec  ( 23.3% of XC)
    Density eval.           ....       0.811 sec  ( 14.9% of XC)
    XC-Functional eval.     ....       1.226 sec  ( 22.6% of XC)
    XC-Potential eval.      ....       1.387 sec  ( 25.6% of XC)
Diagonalization             ....       0.000 sec  (  0.0%)
Density matrix formation    ....       0.165 sec  (  0.5%)
Total Energy calculation    ....       0.037 sec  (  0.1%)
Population analysis         ....       0.066 sec  (  0.2%)
Orbital Transformation      ....       0.043 sec  (  0.1%)
Orbital Orthonormalization  ....       0.000 sec  (  0.0%)
DIIS solution               ....       0.278 sec  (  0.8%)
  MO trafo                  ....       0.000 sec  (  0.0 % of DIIS)
  Orb grad                  ....       0.000 sec  (  0.0 % of DIIS)
  Energy W gradient         ....       0.000 sec  (  0.0 % of DIIS)
  DIIS error                ....       0.003 sec  (  1.2 % of DIIS)
  DIIS work                 ....       0.242 sec  ( 87.2 % of DIIS)
  Form Q                    ....       0.000 sec  (  0.0 % of DIIS)
  Form QpQm                 ....       0.000 sec  (  0.0 % of DIIS)
  Exp/Cayley                ....       0.000 sec  (  0.0 % of DIIS)
  Orb update                ....       0.000 sec  (  0.0 % of DIIS)
  Wake-sleep                ....       0.012 sec  (  4.4 % of DIIS)
SOSCF solution              ....       0.125 sec  (  0.4%)
  MO trafo                  ....       0.057 sec  ( 45.5 % of SOSCF)
  Orb grad                  ....       0.002 sec  (  1.7 % of SOSCF)
  Rot update                ....       0.038 sec  ( 30.0 % of SOSCF)
  Step                      ....       0.028 sec  ( 22.7 % of SOSCF)
Grid generation             ....       0.071 sec  (  0.2%)
Finished LeanSCF after  32.9 sec

Maximum memory used throughout the entire LEANSCF-calculation: 16.8 MB
------------------   -----------------
gCP correction             0.006240708
------------------   -----------------

-------------------------   --------------------
FINAL SINGLE POINT ENERGY      -193.163306081704
-------------------------   --------------------


------------------------------------------------------------------------------
                              ORCA PROPERTY CALCULATIONS
------------------------------------------------------------------------------

GBWName                                 ... sp_gas.gbw
Number of atoms                         ...     10
Number of basis functions               ...    160
Max core memory                         ...   1024 MB

Electric properties:
Dipole moment                           ... YES
Quadrupole moment                       ...  NO
Static polarizability (Dipole/Dipole)   ...  NO
Static polarizability (Dipole/Quad.)    ...  NO
Static polarizability (Quad./Quad.)     ...  NO
Static polarizability (Velocity)        ...  NO

Atomic electric properties:
Dipole moment                           ...  NO
Quadrupole moment                       ...  NO
Static polarizability                   ...  NO

Choice of electric origin               ... Center of mass
Position of electric origin             ...    -0.000005    -0.003268     0.000068

General magnetic properties:
Magnetizability                         ...  NO

EPR properties:
g-Tensor (aka g-matrix)                 ...  NO
Zero-Field splitting spin-orbit         ...  NO
Zero-field splitting spin-spin          ...  NO
Hyperfine couplings                     ...  NO (   0 nuclei)
Quadrupole couplings                    ...  NO (   0 nuclei)
Contact density                         ...  NO (   0 nuclei)

NMR properties:
Chemical shifts                         ...  NO (   0 nuclei)
Spin-rotation constants                 ...  NO (   0 nuclei)
Spin-spin couplings                     ...  NO (   0 nuclei,    0 pairs)

Choice of magnetic origin               ... GIAO
Position of magnetic origin             ...     0.000000     0.000000     0.000000

Properties with geometric perturbations:
SCF Hessian                             ...  NO
IR spectrum                             ...  NO
VCD spectrum                            ...  NO
X-ray spectroscopy properties:
SCF XES/XAS/RIXS spectra                ...  NO


-------------
DIPOLE MOMENT
-------------

Method             : SCF
Type of density    : Electron Density
Multiplicity       :   1
Irrep              :   0
Energy             :  -193.1695467895039542 Eh
Relativity type    : 
Basis              : AO
                                X                 Y                 Z
Electronic contribution:      0.000269558      -3.854753316       0.000557111
Nuclear contribution   :     -0.000370612       5.098991271      -0.000721400
                        -----------------------------------------
Total Dipole Moment    :     -0.000101054       1.244237955      -0.000164289
                        -----------------------------------------
Magnitude (a.u.)       :      1.244237970
Magnitude (Debye)      :      3.162601583



--------------------
Rotational spectrum 
--------------------
 
Rotational constants in cm-1:             0.336828             0.289022             0.165017 
Rotational constants in MHz :         10097.844557          8664.658531          4947.086219 

Dipole components along the rotational axes: 
x,y,z [a.u.] :     0.000046     1.244238    -0.000084 
x,y,z [Debye]:     0.000117     3.162602    -0.000214 

 

Dipole moment calculation done in   0.0 sec 

Maximum memory used throughout the entire PROP-calculation: 9.8 MB

--------------------------------
SUGGESTED CITATIONS FOR THIS RUN
--------------------------------

Below you find a list of papers that are relevant to this ORCA run
We neither can nor want to force you to cite these papers, but we appreciate if you do
You receive ORCA, which is the product of decades of hard work by many enthusiastic individuals, for free
The only thing we kindly ask in return is that you cite our papers,
We deeply appreciate it, if you show your appreciation for ORCA by not just citing the generic ORCA reference.

Please note that relegating all ORCA citations to the supporting information does *not* help us.
SI sections are not indexed - citations you put there will not count into any citation statistics
But we need these citations in order to attract the funding resources that allow us to do what we are doing

Therefore, if you are a happy ORCA user, please consider citing a few of the papers listed below in the main body of your paper

In addition to the list printed below, the program has created the file sp_gas.bibtex that contains the list in bibtex format
You can import this file easily into all common literature databanks and citation aid programs


List of essential papers. We consider these as the minimum necessary citations

  1. Neese,F.
     Software update: the ORCA program system, version 5.0
     WIRES Comput. Molec. Sci., 2022 12(1)e1606
     doi.org/10.1002/wcms.1606

List of papers to cite with high priority. The work reported in these papers was absolutely
necessary for this run to complete.
Our perspective: the developers of density functionals and basis sets usually get cited in chemistry papers
Good! But without the algorithms to do something with them, the functionals or basis sets would not do anything.
Hence, in our opinion, the algorithm design and method developments papers are equally worthy of getting cited

  1. Neese,F.
     An improvement of the resolution of the identity approximation for the formation of the Coulomb matrix
     J. Comp. Chem., 2003 24(14)1740-1747
     doi.org/10.1002/jcc.10318
  2. Neese,F.; Wennmohs,F.; Hansen,A.; Becker,U.
     Efficient, approximate and parallel Hartree-Fock and hybrid DFT calculations. A 'chain-of-spheres' algorithm for the Hartree-Fock exchange
     Chem. Phys., 2009 356(1-3)98-109
     doi.org/10.1016/j.chemphys.2008.10.036
  3. Helmich-Paris,B.; de Souza,B.; Neese,F.; Izsák,R.
     An improved chain of spheres for exchange algorithm
     J. Chem. Phys., 2021 155 104109
     doi.org/doi: 10.1063/5.0058766.
  4. Neese,F.
     The SHARK Integral Generation and Digestion System
     J. Comp. Chem., 2022  1-16
     doi.org/10.1002/jcc.26942

List of suggested additional citations. These are papers that are important in the 'surrounding' of 
of this run, or papers that preceded the highly important papers. If you like your results we are grateful for a citation.

  1. Izsak,R.; Neese,F.
     An overlap fitted chain of spheres exchange method
     J. Chem. Phys., 2011 135 144105
     doi.org/10.1063/1.3646921
  2. Izsak,R.; Hansen,A.; Neese,F.
     The resolution of identity and chain of spheres approximations for the LPNO-CCSD singles Fock term
     Molec. Phys., 2012 110 2413-2417
     doi.org/10.1080/00268976.2012.687466
  3. Neese,F.
     The ORCA program system
     WIRES Comput. Molec. Sci., 2012 2(1)73-78
     doi.org/10.1002/wcms.81
  4. Izsak,R.; Neese,F.; Klopper,W.
     Robust fitting techniques in the chain of spheres approximation to the Fock exchange: The role of the complementary space
     J. Chem. Phys., 2013 139 
     doi.org/10.1063/1.4819264
  5. Neese,F.
     Software update: the ORCA program system, version 4.0
     WIRES Comput. Molec. Sci., 2018 8(1)1-6
     doi.org/10.1002/wcms.1327
  6. Neese,F.; Wennmohs,F.; Becker,U.; Riplinger,C.
     The ORCA quantum chemistry program package
     J. Chem. Phys., 2020 152 Art. No. L224108
     doi.org/10.1063/5.0004608

List of optional additional citations

  1. Neese,F.
     Approximate second-order SCF convergence for spin unrestricted wavefunctions
     Chem. Phys. Lett., 2000 325(1-3)93-98
     doi.org/10.1016/s0009-2614(00)00662-x

Timings for individual modules:

Sum of individual times          ...       34.197 sec (=   0.570 min)
Startup calculation              ...        0.945 sec (=   0.016 min)   2.8 %
SCF iterations                   ...       33.167 sec (=   0.553 min)  97.0 %
Property calculations            ...        0.086 sec (=   0.001 min)   0.3 %
                             ****ORCA TERMINATED NORMALLY****
TOTAL RUN TIME: 0 days 0 hours 0 minutes 34 seconds 794 msec
