      -----------------------------------------------------------      
     |                   =====================                   |     
     |                           x T B                           |     
     |                   =====================                   |     
     |                         S. Grimme                         |     
     |          Mulliken Center for Theoretical Chemistry        |     
     |                    University of Bonn                     |     
      -----------------------------------------------------------      

   * xtb version 6.7.1 (edcfbbe) compiled by 'albert@albert-system' on 2024-07-22

   xtb is free software: you can redistribute it and/or modify it under
   the terms of the GNU Lesser General Public License as published by
   the Free Software Foundation, either version 3 of the License, or
   (at your option) any later version.
   
   xtb is distributed in the hope that it will be useful,
   but WITHOUT ANY WARRANTY; without even the implied warranty of
   MERCHANTABILITY or FITNESS FOR A PARTICULAR PURPOSE.  See the
   GNU Lesser General Public License for more details.
   
   Cite this work as:
   * C. Bannwarth, E. Caldeweyher, S. Ehlert, A. Hansen, P. Pracht,
     J. Seibert, S. Spicher, S. Grimme, WIREs Comput. Mol. Sci., 2020, 11,
     e01493. DOI: 10.1002/wcms.1493
   
   for GFN2-xTB:
   * C. Bannwarth, S. Ehlert and S. Grimme., J. Chem. Theory Comput., 2019,
     15, 1652-1671. DOI: 10.1021/acs.jctc.8b01176
   for GFN1-xTB:
   * S. Grimme, C. Bannwarth, P. Shushkov, J. Chem. Theory Comput., 2017,
     13, 1989-2009. DOI: 10.1021/acs.jctc.7b00118
   for GFN0-xTB:
   * P. Pracht, E. Caldeweyher, S. Ehlert, S. Grimme, ChemRxiv, 2019, preprint.
     DOI: 10.26434/chemrxiv.8326202.v1
   for GFN-FF:
   * S. Spicher and S. Grimme, Angew. Chem. Int. Ed., 2020, 59, 15665-15673.
     DOI: 10.1002/anie.202004239
   
   for ALPB and GBSA implicit solvation:
   * S. Ehlert, M. Stahn, S. Spicher, S. Grimme, J. Chem. Theory Comput.,
     2021, 17, 4250-4261. DOI: 10.1021/acs.jctc.1c00471
   
   for ddCOSMO and CPCM-X implicit solvation:
   * M. Stahn, S. Ehlert, S. Grimme, J. Phys. Chem. A,
     2023, XX, XXXX-XXXX. DOI: 10.1021/acs.jpca.3c04382
   
   for DFT-D4:
   * E. Caldeweyher, C. Bannwarth and S. Grimme, J. Chem. Phys., 2017,
     147, 034112. DOI: 10.1063/1.4993215
   * E. Caldeweyher, S. Ehlert, A. Hansen, H. Neugebauer, S. Spicher,
     C. Bannwarth and S. Grimme, J. Chem. Phys., 2019, 150, 154122.
     DOI: 10.1063/1.5090222
   * E. Caldeweyher, J.-M. Mewes, S. Ehlert and S. Grimme, Phys. Chem. Chem. Phys.
     2020, 22, 8499-8512. DOI: 10.1039/D0CP00502A
   
   for sTDA-xTB:
   * S. Grimme and C. Bannwarth, J. Chem. Phys., 2016, 145, 054103.
     DOI: 10.1063/1.4959605
   
   in the mass-spec context:
   * V. Asgeirsson, C. Bauer and S. Grimme, Chem. Sci., 2017, 8, 4879.
     DOI: 10.1039/c7sc00601b
   * J. Koopman and S. Grimme, ACS Omega 2019, 4, 12, 15120-15133.
     DOI: 10.1021/acsomega.9b02011
   
   for metadynamics refer to:
   * S. Grimme, J. Chem. Theory Comput., 2019, 155, 2847-2862
     DOI: 10.1021/acs.jctc.9b00143
   
   for SPH calculations refer to:
   * S. Spicher and S. Grimme, J. Chem. Theory Comput., 2021, 17, 1701-1714
     DOI: 10.1021/acs.jctc.0c01306
   
   for ONIOM refer to:
   * C. Plett, A. Katbashev, S. Ehlert, S. Grimme, M. Bursch,
     Phys. Chem. Chem. Phys., 2023, 25, 17860-17868. DOI: 10.1039/D3CP02178E
   
   for DIPRO refer to:
   * J. Kohn, N. Gildemeister, S. Grimme, D. Fazzi, A. Hansen,
     J. Chem. Phys., 2023, just accepted.
   
   for PTB refer to:
   * S. Grimme, M. Mueller, A. Hansen, J. Chem. Phys., 2023, 158, 124111.
     DOI: 10.1063/5.0137838
   
   with help from (in alphabetical order)
   P. Atkinson, C. Bannwarth, F. Bohle, G. Brandenburg, E. Caldeweyher
   M. Checinski, S. Dohm, S. Ehlert, S. Ehrlich, I. Gerasimov, C. Hölzer
   A. Katbashev, J. Kohn, J. Koopman, C. Lavigne, S. Lehtola, F. März, M. Müller,
   F. Musil, H. Neugebauer, J. Pisarek, C. Plett, P. Pracht, F. Pultar,
   J. Seibert, P. Shushkov, S. Spicher, M. Stahn, M. Steiner, T. Strunk,
   J. Stückrath, T. Rose, and J. Unsleber
   
 * started run on 2025/04/09 at 05:21:22.261     
   ID    Z sym.   atoms
    1    6 C      1, 2, 7, 8, 10, 15, 16, 18, 19
    2    8 O      3, 6, 14, 17
    3   15 P      4, 12
    4   16 S      5, 9, 11, 13
    5    1 H      20-41

           -------------------------------------------------
          |                Calculation Setup                |
           -------------------------------------------------

          program call               : /srv/scratch/z5358697/.xtb/bin/xtb gas.coord --gfn2 --sp --chrg 0 --norestart --parallel 1
          hostname                   : k163
          coordinate file            : gas.coord
          omp threads                :                     1


           -------------------------------------------------
          |                 G F N 2 - x T B                 |
           -------------------------------------------------

        Reference                      10.1021/acs.jctc.8b01176
      * Hamiltonian:
        H0-scaling (s, p, d)           1.850000    2.230000    2.230000
        zeta-weighting                 0.500000
      * Dispersion:
        s8                             2.700000
        a1                             0.520000
        a2                             5.000000
        s9                             5.000000
      * Repulsion:
        kExp                           1.500000    1.000000
        rExp                           1.000000
      * Coulomb:
        alpha                          2.000000
        third order                    shell-resolved
        anisotropic                    true
        a3                             3.000000
        a5                             4.000000
        cn-shift                       1.200000
        cn-exp                         4.000000
        max-rad                        5.000000


          ...................................................
          :                      SETUP                      :
          :.................................................:
          :  # basis functions                 134          :
          :  # atomic orbitals                 128          :
          :  # shells                           66          :
          :  # electrons                       116          :
          :  max. iterations                   250          :
          :  Hamiltonian                  GFN2-xTB          :
          :  restarted?                      false          :
          :  GBSA solvation                  false          :
          :  PC potential                    false          :
          :  electronic temp.          300.0000000     K    :
          :  accuracy                    1.0000000          :
          :  -> integral cutoff          0.2500000E+02      :
          :  -> integral neglect         0.1000000E-07      :
          :  -> SCF convergence          0.1000000E-05 Eh   :
          :  -> wf. convergence          0.1000000E-03 e    :
          :  Broyden damping             0.4000000          :
          :  net charge                          0          :
          :  unpaired electrons                  0          :
          ...................................................

 iter      E             dE          RMSdq      gap      omega  full diag
   1    -65.3809263 -0.653809E+02  0.648E+00    4.34       0.0  T
   2    -65.5469013 -0.165975E+00  0.411E+00    3.33       1.0  T
   3    -65.5657164 -0.188151E-01  0.148E+00    3.17       1.0  T
   4    -65.5682788 -0.256242E-02  0.611E-01    2.85       1.0  T
   5    -65.5694431 -0.116424E-02  0.276E-01    2.99       1.0  T
   6    -65.5697482 -0.305125E-03  0.125E-01    2.96       1.0  T
   7    -65.5698056 -0.573963E-04  0.534E-02    2.98       1.0  T
   8    -65.5698150 -0.936009E-05  0.225E-02    2.98       1.0  T
   9    -65.5698158 -0.834814E-06  0.529E-03    2.98       3.0  T
  10    -65.5698159 -0.765436E-07  0.291E-03    2.98       5.4  T
  11    -65.5698159 -0.897161E-08  0.823E-04    2.98      19.0  T
  12    -65.5698159 -0.198447E-08  0.392E-04    2.98      39.9  T

   *** convergence criteria satisfied after 12 iterations ***

         #    Occupation            Energy/Eh            Energy/eV
      -------------------------------------------------------------
         1        2.0000           -0.7621239             -20.7384
       ...           ...                  ...                  ...
        52        2.0000           -0.4404020             -11.9839
        53        2.0000           -0.4101399             -11.1605
        54        2.0000           -0.4018237             -10.9342
        55        2.0000           -0.3739498             -10.1757
        56        2.0000           -0.3728814             -10.1466
        57        2.0000           -0.3725640             -10.1380
        58        2.0000           -0.3706314             -10.0854 (HOMO)
        59                         -0.2609517              -7.1009 (LUMO)
        60                         -0.2399926              -6.5305
        61                         -0.2215590              -6.0289
        62                         -0.1816294              -4.9424
        63                         -0.1667490              -4.5375
       ...                                ...                  ...
       128                          1.3505388              36.7500
      -------------------------------------------------------------
                  HL-Gap            0.1096796 Eh            2.9845 eV
             Fermi-level           -0.3157915 Eh           -8.5931 eV

 SCC (total)                   0 d,  0 h,  0 min,  0.056 sec
 SCC setup                      ...        0 min,  0.000 sec (  0.474%)
 Dispersion                     ...        0 min,  0.000 sec (  0.548%)
 classical contributions        ...        0 min,  0.000 sec (  0.131%)
 integral evaluation            ...        0 min,  0.008 sec ( 15.120%)
 iterations                     ...        0 min,  0.025 sec ( 44.571%)
 molecular gradient             ...        0 min,  0.022 sec ( 38.769%)
 printout                       ...        0 min,  0.000 sec (  0.362%)

         :::::::::::::::::::::::::::::::::::::::::::::::::::::
         ::                     SUMMARY                     ::
         :::::::::::::::::::::::::::::::::::::::::::::::::::::
         :: total energy             -65.007821368263 Eh    ::
         :: gradient norm              0.036617602530 Eh/a0 ::
         :: HOMO-LUMO gap              2.984534695867 eV    ::
         ::.................................................::
         :: SCC energy               -65.569068470777 Eh    ::
         :: -> isotropic ES            0.106348646697 Eh    ::
         :: -> anisotropic ES         -0.011878195391 Eh    ::
         :: -> anisotropic XC          0.031850060274 Eh    ::
         :: -> dispersion             -0.051004059298 Eh    ::
         :: repulsion energy           0.561247102514 Eh    ::
         :: add. restraining           0.000000000000 Eh    ::
         :: total charge              -0.000000000000 e     ::
         :::::::::::::::::::::::::::::::::::::::::::::::::::::

           -------------------------------------------------
          |                Property Printout                |
           -------------------------------------------------

    * Orbital Energies and Occupations

         #    Occupation            Energy/Eh            Energy/eV
      -------------------------------------------------------------
         1        2.0000           -0.7621239             -20.7384
       ...           ...                  ...                  ...
        46        2.0000           -0.4733031             -12.8792
        47        2.0000           -0.4667782             -12.7017
        48        2.0000           -0.4640998             -12.6288
        49        2.0000           -0.4618201             -12.5668
        50        2.0000           -0.4561556             -12.4126
        51        2.0000           -0.4470904             -12.1659
        52        2.0000           -0.4404020             -11.9839
        53        2.0000           -0.4101399             -11.1605
        54        2.0000           -0.4018237             -10.9342
        55        2.0000           -0.3739498             -10.1757
        56        2.0000           -0.3728814             -10.1466
        57        2.0000           -0.3725640             -10.1380
        58        2.0000           -0.3706314             -10.0854 (HOMO)
        59                         -0.2609517              -7.1009 (LUMO)
        60                         -0.2399926              -6.5305
        61                         -0.2215590              -6.0289
        62                         -0.1816294              -4.9424
        63                         -0.1667490              -4.5375
        64                         -0.1542261              -4.1967
        65                         -0.1505837              -4.0976
        66                         -0.1458045              -3.9675
        67                         -0.1225554              -3.3349
        68                         -0.1162636              -3.1637
        69                         -0.0471341              -1.2826
       ...                                ...                  ...
       128                          1.3505388              36.7500
      -------------------------------------------------------------
                  HL-Gap            0.1096796 Eh            2.9845 eV
             Fermi-level           -0.3157915 Eh           -8.5931 eV

     #   Z          covCN         q      C6AA      α(0)
     1   6 C        3.752    -0.116    22.783     6.807
     2   6 C        3.885     0.085    19.131     6.218
     3   8 O        1.655    -0.248    18.121     5.747
     4  15 P        3.846     0.372   144.746    21.612
     5  16 S        0.928    -0.390   156.139    21.135
     6   8 O        1.653    -0.230    17.824     5.699
     7   6 C        3.817     0.079    19.259     6.246
     8   6 C        3.751    -0.118    22.821     6.813
     9  16 S        2.029    -0.167   148.100    20.482
    10   6 C        3.821     0.042    19.861     6.342
    11  16 S        2.029    -0.126   146.334    20.360
    12  15 P        3.867     0.371   144.780    21.614
    13  16 S        0.926    -0.402   156.700    21.173
    14   8 O        1.655    -0.255    18.245     5.766
    15   6 C        3.865     0.082    19.176     6.227
    16   6 C        3.751    -0.117    22.793     6.809
    17   8 O        1.655    -0.256    18.256     5.768
    18   6 C        3.870     0.084    19.139     6.221
    19   6 C        3.751    -0.114    22.742     6.801
    20   1 H        0.925     0.063     2.168     2.302
    21   1 H        0.925     0.065     2.137     2.286
    22   1 H        0.925     0.062     2.175     2.306
    23   1 H        0.924     0.053     2.279     2.361
    24   1 H        0.924     0.062     2.171     2.304
    25   1 H        0.924     0.062     2.181     2.309
    26   1 H        0.924     0.074     2.037     2.232
    27   1 H        0.925     0.066     2.126     2.280
    28   1 H        0.925     0.062     2.172     2.305
    29   1 H        0.925     0.060     2.205     2.322
    30   1 H        0.925     0.086     1.914     2.163
    31   1 H        0.925     0.087     1.913     2.163
    32   1 H        0.924     0.063     2.163     2.300
    33   1 H        0.924     0.064     2.154     2.295
    34   1 H        0.925     0.063     2.161     2.299
    35   1 H        0.925     0.060     2.201     2.320
    36   1 H        0.925     0.059     2.206     2.323
    37   1 H        0.924     0.064     2.155     2.296
    38   1 H        0.924     0.066     2.131     2.283
    39   1 H        0.925     0.059     2.216     2.328
    40   1 H        0.925     0.061     2.191     2.315
    41   1 H        0.925     0.060     2.202     2.321

 Mol. C6AA /au·bohr⁶  :      26537.012703
 Mol. C8AA /au·bohr⁸  :     863145.021709
 Mol. α(0) /au        :        258.253059


Wiberg/Mayer (AO) data.
largest (>0.10) Wiberg bond orders for each atom

 ---------------------------------------------------------------------------
     #   Z sym  total        # sym  WBO       # sym  WBO       # sym  WBO
 ---------------------------------------------------------------------------
     1   6 C    3.989 --     2 C    1.020    22 H    0.984    21 H    0.984
                            20 H    0.980
     2   6 C    3.908 --     1 C    1.020    23 H    0.973    24 H    0.968
                             3 O    0.901
     3   8 O    2.406 --     4 P    1.312     2 C    0.901
     4  15 P    5.287 --     5 S    1.567     6 O    1.353     3 O    1.312
                             9 S    0.938
     5  16 S    1.902 --     4 P    1.567     9 S    0.143
     6   8 O    2.429 --     4 P    1.353     7 C    0.884
     7   6 C    3.908 --     8 C    1.023    25 H    0.973    26 H    0.969
                             6 O    0.884
     8   6 C    3.990 --     7 C    1.023    27 H    0.981    29 H    0.979
                            28 H    0.977
     9  16 S    2.266 --    10 C    0.996     4 P    0.938     5 S    0.143
    10   6 C    3.959 --     9 S    0.996    11 S    0.974    30 H    0.959
                            31 H    0.954
    11  16 S    2.256 --    12 P    0.988    10 C    0.974    13 S    0.106
    12  15 P    5.285 --    13 S    1.579    17 O    1.299    14 O    1.281
                            11 S    0.988
    13  16 S    1.875 --    12 P    1.579    11 S    0.106
    14   8 O    2.402 --    12 P    1.281    15 C    0.908
    15   6 C    3.911 --    16 C    1.021    33 H    0.969    32 H    0.967
                            14 O    0.908
    16   6 C    3.990 --    15 C    1.021    36 H    0.981    34 H    0.981
                            35 H    0.975
    17   8 O    2.389 --    12 P    1.299    18 C    0.896
    18   6 C    3.909 --    19 C    1.023    38 H    0.970    37 H    0.968
                            17 O    0.896
    19   6 C    3.992 --    18 C    1.023    39 H    0.984    41 H    0.980
                            40 H    0.976
    20   1 H    0.995 --     1 C    0.980
    21   1 H    0.996 --     1 C    0.984
    22   1 H    0.996 --     1 C    0.984
    23   1 H    0.997 --     2 C    0.973
    24   1 H    0.996 --     2 C    0.968
    25   1 H    0.996 --     7 C    0.973
    26   1 H    0.994 --     7 C    0.969
    27   1 H    0.996 --     8 C    0.981
    28   1 H    0.996 --     8 C    0.977
    29   1 H    0.995 --     8 C    0.979
    30   1 H    0.992 --    10 C    0.959
    31   1 H    0.992 --    10 C    0.954
    32   1 H    0.996 --    15 C    0.967
    33   1 H    0.996 --    15 C    0.969
    34   1 H    0.996 --    16 C    0.981
    35   1 H    0.996 --    16 C    0.975
    36   1 H    0.996 --    16 C    0.981
    37   1 H    0.996 --    18 C    0.968
    38   1 H    0.995 --    18 C    0.970
    39   1 H    0.997 --    19 C    0.984
    40   1 H    0.996 --    19 C    0.976
    41   1 H    0.995 --    19 C    0.980
 ---------------------------------------------------------------------------

Topologies differ in total number of bonds
Writing topology from bond orders to xtbtopo.mol

molecular dipole:
                 x           y           z       tot (Debye)
 q only:        1.057      -1.906       1.874
   full:        1.110      -1.998       1.631       7.138
molecular quadrupole (traceless):
                xx          xy          yy          xz          yz          zz
 q only:       14.732      11.854      -7.354      20.622       4.204      -7.378
  q+dip:       13.340      17.364      -4.609      23.715       3.080      -8.731
   full:       15.106      17.757      -5.683      24.279       3.119      -9.423


           -------------------------------------------------
          | TOTAL ENERGY              -65.007821368263 Eh   |
          | GRADIENT NORM               0.036617602530 Eh/α |
          | HOMO-LUMO GAP               2.984534695867 eV   |
           -------------------------------------------------

------------------------------------------------------------------------
 * finished run on 2025/04/09 at 05:21:22.350     
------------------------------------------------------------------------
 total:
 * wall-time:     0 d,  0 h,  0 min,  0.088 sec
 *  cpu-time:     0 d,  0 h,  0 min,  0.069 sec
 * ratio c/w:     0.776 speedup
 SCF:
 * wall-time:     0 d,  0 h,  0 min,  0.056 sec
 *  cpu-time:     0 d,  0 h,  0 min,  0.055 sec
 * ratio c/w:     0.991 speedup

