      -----------------------------------------------------------      
     |                   =====================                   |     
     |                           x T B                           |     
     |                   =====================                   |     
     |                         S. Grimme                         |     
     |          Mulliken Center for Theoretical Chemistry        |     
     |                    University of Bonn                     |     
      -----------------------------------------------------------      

   * xtb version 6.7.1 (edcfbbe) compiled by 'albert@albert-system' on 2024-07-22

   xtb is free software: you can redistribute it and/or modify it under
   the terms of the GNU Lesser General Public License as published by
   the Free Software Foundation, either version 3 of the License, or
   (at your option) any later version.
   
   xtb is distributed in the hope that it will be useful,
   but WITHOUT ANY WARRANTY; without even the implied warranty of
   MERCHANTABILITY or FITNESS FOR A PARTICULAR PURPOSE.  See the
   GNU Lesser General Public License for more details.
   
   Cite this work as:
   * C. Bannwarth, E. Caldeweyher, S. Ehlert, A. Hansen, P. Pracht,
     J. Seibert, S. Spicher, S. Grimme, WIREs Comput. Mol. Sci., 2020, 11,
     e01493. DOI: 10.1002/wcms.1493
   
   for GFN2-xTB:
   * C. Bannwarth, S. Ehlert and S. Grimme., J. Chem. Theory Comput., 2019,
     15, 1652-1671. DOI: 10.1021/acs.jctc.8b01176
   for GFN1-xTB:
   * S. Grimme, C. Bannwarth, P. Shushkov, J. Chem. Theory Comput., 2017,
     13, 1989-2009. DOI: 10.1021/acs.jctc.7b00118
   for GFN0-xTB:
   * P. Pracht, E. Caldeweyher, S. Ehlert, S. Grimme, ChemRxiv, 2019, preprint.
     DOI: 10.26434/chemrxiv.8326202.v1
   for GFN-FF:
   * S. Spicher and S. Grimme, Angew. Chem. Int. Ed., 2020, 59, 15665-15673.
     DOI: 10.1002/anie.202004239
   
   for ALPB and GBSA implicit solvation:
   * S. Ehlert, M. Stahn, S. Spicher, S. Grimme, J. Chem. Theory Comput.,
     2021, 17, 4250-4261. DOI: 10.1021/acs.jctc.1c00471
   
   for ddCOSMO and CPCM-X implicit solvation:
   * M. Stahn, S. Ehlert, S. Grimme, J. Phys. Chem. A,
     2023, XX, XXXX-XXXX. DOI: 10.1021/acs.jpca.3c04382
   
   for DFT-D4:
   * E. Caldeweyher, C. Bannwarth and S. Grimme, J. Chem. Phys., 2017,
     147, 034112. DOI: 10.1063/1.4993215
   * E. Caldeweyher, S. Ehlert, A. Hansen, H. Neugebauer, S. Spicher,
     C. Bannwarth and S. Grimme, J. Chem. Phys., 2019, 150, 154122.
     DOI: 10.1063/1.5090222
   * E. Caldeweyher, J.-M. Mewes, S. Ehlert and S. Grimme, Phys. Chem. Chem. Phys.
     2020, 22, 8499-8512. DOI: 10.1039/D0CP00502A
   
   for sTDA-xTB:
   * S. Grimme and C. Bannwarth, J. Chem. Phys., 2016, 145, 054103.
     DOI: 10.1063/1.4959605
   
   in the mass-spec context:
   * V. Asgeirsson, C. Bauer and S. Grimme, Chem. Sci., 2017, 8, 4879.
     DOI: 10.1039/c7sc00601b
   * J. Koopman and S. Grimme, ACS Omega 2019, 4, 12, 15120-15133.
     DOI: 10.1021/acsomega.9b02011
   
   for metadynamics refer to:
   * S. Grimme, J. Chem. Theory Comput., 2019, 155, 2847-2862
     DOI: 10.1021/acs.jctc.9b00143
   
   for SPH calculations refer to:
   * S. Spicher and S. Grimme, J. Chem. Theory Comput., 2021, 17, 1701-1714
     DOI: 10.1021/acs.jctc.0c01306
   
   for ONIOM refer to:
   * C. Plett, A. Katbashev, S. Ehlert, S. Grimme, M. Bursch,
     Phys. Chem. Chem. Phys., 2023, 25, 17860-17868. DOI: 10.1039/D3CP02178E
   
   for DIPRO refer to:
   * J. Kohn, N. Gildemeister, S. Grimme, D. Fazzi, A. Hansen,
     J. Chem. Phys., 2023, just accepted.
   
   for PTB refer to:
   * S. Grimme, M. Mueller, A. Hansen, J. Chem. Phys., 2023, 158, 124111.
     DOI: 10.1063/5.0137838
   
   with help from (in alphabetical order)
   P. Atkinson, C. Bannwarth, F. Bohle, G. Brandenburg, E. Caldeweyher
   M. Checinski, S. Dohm, S. Ehlert, S. Ehrlich, I. Gerasimov, C. Hölzer
   A. Katbashev, J. Kohn, J. Koopman, C. Lavigne, S. Lehtola, F. März, M. Müller,
   F. Musil, H. Neugebauer, J. Pisarek, C. Plett, P. Pracht, F. Pultar,
   J. Seibert, P. Shushkov, S. Spicher, M. Stahn, M. Steiner, T. Strunk,
   J. Stückrath, T. Rose, and J. Unsleber
   
 * started run on 2025/04/09 at 05:21:29.612     
   ID    Z sym.   atoms
    1    6 C      1, 2, 7, 8, 10, 15, 16, 18, 19
    2    8 O      3, 6, 14, 17
    3   15 P      4, 12
    4   16 S      5, 9, 11, 13
    5    1 H      20-41

           -------------------------------------------------
          |                Calculation Setup                |
           -------------------------------------------------

          program call               : /srv/scratch/z5358697/.xtb/bin/xtb gas.coord --gfn2 --sp --chrg 0 --norestart --parallel 1
          hostname                   : k163
          coordinate file            : gas.coord
          omp threads                :                     1


           -------------------------------------------------
          |                 G F N 2 - x T B                 |
           -------------------------------------------------

        Reference                      10.1021/acs.jctc.8b01176
      * Hamiltonian:
        H0-scaling (s, p, d)           1.850000    2.230000    2.230000
        zeta-weighting                 0.500000
      * Dispersion:
        s8                             2.700000
        a1                             0.520000
        a2                             5.000000
        s9                             5.000000
      * Repulsion:
        kExp                           1.500000    1.000000
        rExp                           1.000000
      * Coulomb:
        alpha                          2.000000
        third order                    shell-resolved
        anisotropic                    true
        a3                             3.000000
        a5                             4.000000
        cn-shift                       1.200000
        cn-exp                         4.000000
        max-rad                        5.000000


          ...................................................
          :                      SETUP                      :
          :.................................................:
          :  # basis functions                 134          :
          :  # atomic orbitals                 128          :
          :  # shells                           66          :
          :  # electrons                       116          :
          :  max. iterations                   250          :
          :  Hamiltonian                  GFN2-xTB          :
          :  restarted?                      false          :
          :  GBSA solvation                  false          :
          :  PC potential                    false          :
          :  electronic temp.          300.0000000     K    :
          :  accuracy                    1.0000000          :
          :  -> integral cutoff          0.2500000E+02      :
          :  -> integral neglect         0.1000000E-07      :
          :  -> SCF convergence          0.1000000E-05 Eh   :
          :  -> wf. convergence          0.1000000E-03 e    :
          :  Broyden damping             0.4000000          :
          :  net charge                          0          :
          :  unpaired electrons                  0          :
          ...................................................

 iter      E             dE          RMSdq      gap      omega  full diag
   1    -65.3790539 -0.653791E+02  0.642E+00    4.44       0.0  T
   2    -65.5470078 -0.167954E+00  0.413E+00    3.42       1.0  T
   3    -65.5663128 -0.193050E-01  0.145E+00    3.28       1.0  T
   4    -65.5692698 -0.295700E-02  0.580E-01    2.94       1.0  T
   5    -65.5703485 -0.107874E-02  0.281E-01    3.07       1.0  T
   6    -65.5706026 -0.254034E-03  0.136E-01    3.04       1.0  T
   7    -65.5706594 -0.568797E-04  0.532E-02    3.05       1.0  T
   8    -65.5706706 -0.111276E-04  0.233E-02    3.06       1.0  T
   9    -65.5706718 -0.121996E-05  0.586E-03    3.06       2.7  T
  10    -65.5706718 -0.666784E-07  0.285E-03    3.06       5.5  T
  11    -65.5706719 -0.119100E-07  0.576E-04    3.06      27.1  T
  12    -65.5706719 -0.801421E-09  0.297E-04    3.06      52.6  T

   *** convergence criteria satisfied after 12 iterations ***

         #    Occupation            Energy/Eh            Energy/eV
      -------------------------------------------------------------
         1        2.0000           -0.7614316             -20.7196
       ...           ...                  ...                  ...
        52        2.0000           -0.4384944             -11.9320
        53        2.0000           -0.4113614             -11.1937
        54        2.0000           -0.4038011             -10.9880
        55        2.0000           -0.3833550             -10.4316
        56        2.0000           -0.3806028             -10.3567
        57        2.0000           -0.3707203             -10.0878
        58        2.0000           -0.3696715             -10.0593 (HOMO)
        59                         -0.2572919              -7.0013 (LUMO)
        60                         -0.2432914              -6.6203
        61                         -0.2205709              -6.0020
        62                         -0.1936023              -5.2682
        63                         -0.1772715              -4.8238
       ...                                ...                  ...
       128                          1.4003972              38.1067
      -------------------------------------------------------------
                  HL-Gap            0.1123796 Eh            3.0580 eV
             Fermi-level           -0.3134817 Eh           -8.5303 eV

 SCC (total)                   0 d,  0 h,  0 min,  0.061 sec
 SCC setup                      ...        0 min,  0.000 sec (  0.438%)
 Dispersion                     ...        0 min,  0.000 sec (  0.506%)
 classical contributions        ...        0 min,  0.000 sec (  0.096%)
 integral evaluation            ...        0 min,  0.012 sec ( 20.156%)
 iterations                     ...        0 min,  0.025 sec ( 41.221%)
 molecular gradient             ...        0 min,  0.023 sec ( 37.222%)
 printout                       ...        0 min,  0.000 sec (  0.335%)

         :::::::::::::::::::::::::::::::::::::::::::::::::::::
         ::                     SUMMARY                     ::
         :::::::::::::::::::::::::::::::::::::::::::::::::::::
         :: total energy             -65.009360205909 Eh    ::
         :: gradient norm              0.029852998057 Eh/a0 ::
         :: HOMO-LUMO gap              3.058004269292 eV    ::
         ::.................................................::
         :: SCC energy               -65.568819857776 Eh    ::
         :: -> isotropic ES            0.108502270492 Eh    ::
         :: -> anisotropic ES         -0.010288544726 Eh    ::
         :: -> anisotropic XC          0.031250058765 Eh    ::
         :: -> dispersion             -0.056557727515 Eh    ::
         :: repulsion energy           0.559459651867 Eh    ::
         :: add. restraining           0.000000000000 Eh    ::
         :: total charge               0.000000000000 e     ::
         :::::::::::::::::::::::::::::::::::::::::::::::::::::

           -------------------------------------------------
          |                Property Printout                |
           -------------------------------------------------

    * Orbital Energies and Occupations

         #    Occupation            Energy/Eh            Energy/eV
      -------------------------------------------------------------
         1        2.0000           -0.7614316             -20.7196
       ...           ...                  ...                  ...
        46        2.0000           -0.4770739             -12.9818
        47        2.0000           -0.4666680             -12.6987
        48        2.0000           -0.4638852             -12.6230
        49        2.0000           -0.4595966             -12.5063
        50        2.0000           -0.4584361             -12.4747
        51        2.0000           -0.4478732             -12.1873
        52        2.0000           -0.4384944             -11.9320
        53        2.0000           -0.4113614             -11.1937
        54        2.0000           -0.4038011             -10.9880
        55        2.0000           -0.3833550             -10.4316
        56        2.0000           -0.3806028             -10.3567
        57        2.0000           -0.3707203             -10.0878
        58        2.0000           -0.3696715             -10.0593 (HOMO)
        59                         -0.2572919              -7.0013 (LUMO)
        60                         -0.2432914              -6.6203
        61                         -0.2205709              -6.0020
        62                         -0.1936023              -5.2682
        63                         -0.1772715              -4.8238
        64                         -0.1579604              -4.2983
        65                         -0.1557296              -4.2376
        66                         -0.1439942              -3.9183
        67                         -0.1232632              -3.3542
        68                         -0.1192290              -3.2444
        69                         -0.0413035              -1.1239
       ...                                ...                  ...
       128                          1.4003972              38.1067
      -------------------------------------------------------------
                  HL-Gap            0.1123796 Eh            3.0580 eV
             Fermi-level           -0.3134817 Eh           -8.5303 eV

     #   Z          covCN         q      C6AA      α(0)
     1   6 C        3.751    -0.113    22.718     6.797
     2   6 C        3.852     0.087    19.105     6.217
     3   8 O        1.655    -0.259    18.305     5.776
     4  15 P        3.801     0.414   143.150    21.492
     5  16 S        0.926    -0.402   156.715    21.174
     6   8 O        1.654    -0.264    18.392     5.789
     7   6 C        3.823     0.084    19.174     6.231
     8   6 C        3.751    -0.119    22.841     6.816
     9  16 S        1.984    -0.145   147.157    20.417
    10   6 C        3.800     0.036    19.977     6.364
    11  16 S        1.983    -0.145   147.166    20.418
    12  15 P        3.906     0.378   144.517    21.595
    13  16 S        0.928    -0.404   156.800    21.180
    14   8 O        1.655    -0.241    18.004     5.728
    15   6 C        3.879     0.090    19.054     6.206
    16   6 C        3.751    -0.113    22.725     6.798
    17   8 O        1.654    -0.249    18.136     5.749
    18   6 C        3.898     0.088    19.071     6.208
    19   6 C        3.751    -0.118    22.815     6.812
    20   1 H        0.925     0.059     2.207     2.323
    21   1 H        0.925     0.059     2.207     2.323
    22   1 H        0.925     0.051     2.309     2.376
    23   1 H        0.924     0.064     2.155     2.296
    24   1 H        0.924     0.067     2.122     2.278
    25   1 H        0.924     0.053     2.288     2.366
    26   1 H        0.924     0.069     2.096     2.264
    27   1 H        0.925     0.066     2.128     2.281
    28   1 H        0.925     0.064     2.154     2.295
    29   1 H        0.925     0.060     2.201     2.320
    30   1 H        0.924     0.083     1.943     2.180
    31   1 H        0.925     0.086     1.920     2.167
    32   1 H        0.924     0.055     2.257     2.349
    33   1 H        0.924     0.060     2.200     2.320
    34   1 H        0.925     0.062     2.174     2.306
    35   1 H        0.925     0.061     2.186     2.312
    36   1 H        0.925     0.061     2.192     2.315
    37   1 H        0.924     0.050     2.317     2.381
    38   1 H        0.924     0.073     2.048     2.238
    39   1 H        0.925     0.057     2.240     2.341
    40   1 H        0.925     0.073     2.058     2.243
    41   1 H        0.925     0.062     2.181     2.310

 Mol. C6AA /au·bohr⁶  :      26561.308953
 Mol. C8AA /au·bohr⁸  :     863201.760236
 Mol. α(0) /au        :        258.350398


Wiberg/Mayer (AO) data.
largest (>0.10) Wiberg bond orders for each atom

 ---------------------------------------------------------------------------
     #   Z sym  total        # sym  WBO       # sym  WBO       # sym  WBO
 ---------------------------------------------------------------------------
     1   6 C    3.991 --     2 C    1.021    22 H    0.985    20 H    0.980
                            21 H    0.980
     2   6 C    3.907 --     1 C    1.021    23 H    0.969    24 H    0.962
                             3 O    0.901
     3   8 O    2.386 --     4 P    1.278     2 C    0.901
     4  15 P    5.232 --     5 S    1.553     6 O    1.289     3 O    1.278
                             9 S    0.968
     5  16 S    1.898 --     4 P    1.553     9 S    0.135
     6   8 O    2.375 --     4 P    1.289     7 C    0.898
     7   6 C    3.916 --     8 C    1.023    25 H    0.972    26 H    0.969
                             6 O    0.898
     8   6 C    3.990 --     7 C    1.023    27 H    0.982    29 H    0.979
                            28 H    0.971
     9  16 S    2.285 --    10 C    0.991     4 P    0.968     5 S    0.135
    10   6 C    3.958 --     9 S    0.991    11 S    0.980    31 H    0.965
                            30 H    0.942
    11  16 S    2.270 --    10 C    0.980    12 P    0.978    13 S    0.115
    12  15 P    5.273 --    13 S    1.570    14 O    1.304    17 O    1.295
                            11 S    0.978
    13  16 S    1.873 --    12 P    1.570    11 S    0.115
    14   8 O    2.416 --    12 P    1.304    15 C    0.902
    15   6 C    3.907 --    16 C    1.019    32 H    0.972    33 H    0.964
                            14 O    0.902
    16   6 C    3.989 --    15 C    1.019    34 H    0.985    35 H    0.983
                            36 H    0.980
    17   8 O    2.408 --    12 P    1.295    18 C    0.897
    18   6 C    3.903 --    19 C    1.021    37 H    0.968    38 H    0.966
                            17 O    0.897
    19   6 C    3.988 --    18 C    1.021    39 H    0.985    41 H    0.980
                            40 H    0.978
    20   1 H    0.995 --     1 C    0.980
    21   1 H    0.996 --     1 C    0.980
    22   1 H    0.997 --     1 C    0.985
    23   1 H    0.996 --     2 C    0.969
    24   1 H    0.995 --     2 C    0.962
    25   1 H    0.997 --     7 C    0.972
    26   1 H    0.995 --     7 C    0.969
    27   1 H    0.996 --     8 C    0.982
    28   1 H    0.996 --     8 C    0.971
    29   1 H    0.995 --     8 C    0.979
    30   1 H    0.993 --    10 C    0.942
    31   1 H    0.990 --    10 C    0.965
    32   1 H    0.997 --    15 C    0.972
    33   1 H    0.996 --    15 C    0.964
    34   1 H    0.996 --    16 C    0.985
    35   1 H    0.996 --    16 C    0.983
    36   1 H    0.995 --    16 C    0.980
    37   1 H    0.997 --    18 C    0.968
    38   1 H    0.994 --    18 C    0.966
    39   1 H    0.997 --    19 C    0.985
    40   1 H    0.995 --    19 C    0.978
    41   1 H    0.995 --    19 C    0.980
 ---------------------------------------------------------------------------

Topologies differ in total number of bonds
Writing topology from bond orders to xtbtopo.mol

molecular dipole:
                 x           y           z       tot (Debye)
 q only:        1.601       0.674       1.488
   full:        2.241       0.523       1.729       7.314
molecular quadrupole (traceless):
                xx          xy          yy          xz          yz          zz
 q only:      -12.927      21.144       3.628       6.143       0.246       9.299
  q+dip:      -13.812      19.881       1.158       5.722       1.153      12.654
   full:      -14.365      20.973       1.808       6.405       0.916      12.557


           -------------------------------------------------
          | TOTAL ENERGY              -65.009360205909 Eh   |
          | GRADIENT NORM               0.029852998057 Eh/α |
          | HOMO-LUMO GAP               3.058004269292 eV   |
           -------------------------------------------------

------------------------------------------------------------------------
 * finished run on 2025/04/09 at 05:21:29.728     
------------------------------------------------------------------------
 total:
 * wall-time:     0 d,  0 h,  0 min,  0.116 sec
 *  cpu-time:     0 d,  0 h,  0 min,  0.071 sec
 * ratio c/w:     0.609 speedup
 SCF:
 * wall-time:     0 d,  0 h,  0 min,  0.062 sec
 *  cpu-time:     0 d,  0 h,  0 min,  0.058 sec
 * ratio c/w:     0.935 speedup

