      -----------------------------------------------------------      
     |                   =====================                   |     
     |                           x T B                           |     
     |                   =====================                   |     
     |                         S. Grimme                         |     
     |          Mulliken Center for Theoretical Chemistry        |     
     |                    University of Bonn                     |     
      -----------------------------------------------------------      

   * xtb version 6.7.1 (edcfbbe) compiled by 'albert@albert-system' on 2024-07-22

   xtb is free software: you can redistribute it and/or modify it under
   the terms of the GNU Lesser General Public License as published by
   the Free Software Foundation, either version 3 of the License, or
   (at your option) any later version.
   
   xtb is distributed in the hope that it will be useful,
   but WITHOUT ANY WARRANTY; without even the implied warranty of
   MERCHANTABILITY or FITNESS FOR A PARTICULAR PURPOSE.  See the
   GNU Lesser General Public License for more details.
   
   Cite this work as:
   * C. Bannwarth, E. Caldeweyher, S. Ehlert, A. Hansen, P. Pracht,
     J. Seibert, S. Spicher, S. Grimme, WIREs Comput. Mol. Sci., 2020, 11,
     e01493. DOI: 10.1002/wcms.1493
   
   for GFN2-xTB:
   * C. Bannwarth, S. Ehlert and S. Grimme., J. Chem. Theory Comput., 2019,
     15, 1652-1671. DOI: 10.1021/acs.jctc.8b01176
   for GFN1-xTB:
   * S. Grimme, C. Bannwarth, P. Shushkov, J. Chem. Theory Comput., 2017,
     13, 1989-2009. DOI: 10.1021/acs.jctc.7b00118
   for GFN0-xTB:
   * P. Pracht, E. Caldeweyher, S. Ehlert, S. Grimme, ChemRxiv, 2019, preprint.
     DOI: 10.26434/chemrxiv.8326202.v1
   for GFN-FF:
   * S. Spicher and S. Grimme, Angew. Chem. Int. Ed., 2020, 59, 15665-15673.
     DOI: 10.1002/anie.202004239
   
   for ALPB and GBSA implicit solvation:
   * S. Ehlert, M. Stahn, S. Spicher, S. Grimme, J. Chem. Theory Comput.,
     2021, 17, 4250-4261. DOI: 10.1021/acs.jctc.1c00471
   
   for ddCOSMO and CPCM-X implicit solvation:
   * M. Stahn, S. Ehlert, S. Grimme, J. Phys. Chem. A,
     2023, XX, XXXX-XXXX. DOI: 10.1021/acs.jpca.3c04382
   
   for DFT-D4:
   * E. Caldeweyher, C. Bannwarth and S. Grimme, J. Chem. Phys., 2017,
     147, 034112. DOI: 10.1063/1.4993215
   * E. Caldeweyher, S. Ehlert, A. Hansen, H. Neugebauer, S. Spicher,
     C. Bannwarth and S. Grimme, J. Chem. Phys., 2019, 150, 154122.
     DOI: 10.1063/1.5090222
   * E. Caldeweyher, J.-M. Mewes, S. Ehlert and S. Grimme, Phys. Chem. Chem. Phys.
     2020, 22, 8499-8512. DOI: 10.1039/D0CP00502A
   
   for sTDA-xTB:
   * S. Grimme and C. Bannwarth, J. Chem. Phys., 2016, 145, 054103.
     DOI: 10.1063/1.4959605
   
   in the mass-spec context:
   * V. Asgeirsson, C. Bauer and S. Grimme, Chem. Sci., 2017, 8, 4879.
     DOI: 10.1039/c7sc00601b
   * J. Koopman and S. Grimme, ACS Omega 2019, 4, 12, 15120-15133.
     DOI: 10.1021/acsomega.9b02011
   
   for metadynamics refer to:
   * S. Grimme, J. Chem. Theory Comput., 2019, 155, 2847-2862
     DOI: 10.1021/acs.jctc.9b00143
   
   for SPH calculations refer to:
   * S. Spicher and S. Grimme, J. Chem. Theory Comput., 2021, 17, 1701-1714
     DOI: 10.1021/acs.jctc.0c01306
   
   for ONIOM refer to:
   * C. Plett, A. Katbashev, S. Ehlert, S. Grimme, M. Bursch,
     Phys. Chem. Chem. Phys., 2023, 25, 17860-17868. DOI: 10.1039/D3CP02178E
   
   for DIPRO refer to:
   * J. Kohn, N. Gildemeister, S. Grimme, D. Fazzi, A. Hansen,
     J. Chem. Phys., 2023, just accepted.
   
   for PTB refer to:
   * S. Grimme, M. Mueller, A. Hansen, J. Chem. Phys., 2023, 158, 124111.
     DOI: 10.1063/5.0137838
   
   with help from (in alphabetical order)
   P. Atkinson, C. Bannwarth, F. Bohle, G. Brandenburg, E. Caldeweyher
   M. Checinski, S. Dohm, S. Ehlert, S. Ehrlich, I. Gerasimov, C. Hölzer
   A. Katbashev, J. Kohn, J. Koopman, C. Lavigne, S. Lehtola, F. März, M. Müller,
   F. Musil, H. Neugebauer, J. Pisarek, C. Plett, P. Pracht, F. Pultar,
   J. Seibert, P. Shushkov, S. Spicher, M. Stahn, M. Steiner, T. Strunk,
   J. Stückrath, T. Rose, and J. Unsleber
   
 * started run on 2025/04/09 at 05:20:49.921     
   ID    Z sym.   atoms
    1    6 C      1, 2, 7, 8, 10, 15, 16, 18, 19
    2    8 O      3, 6, 14, 17
    3   15 P      4, 12
    4   16 S      5, 9, 11, 13
    5    1 H      20-41

           -------------------------------------------------
          |                Calculation Setup                |
           -------------------------------------------------

          program call               : /srv/scratch/z5358697/.xtb/bin/xtb solv.coord --gfn2 --sp --chrg 0 --norestart --parallel 1 --alpb water reference -I xtb_sp-xcontrol-inp
          hostname                   : k163
          coordinate file            : solv.coord
          omp threads                :                     1


           -------------------------------------------------
          |                 G F N 2 - x T B                 |
           -------------------------------------------------

        Reference                      10.1021/acs.jctc.8b01176
      * Hamiltonian:
        H0-scaling (s, p, d)           1.850000    2.230000    2.230000
        zeta-weighting                 0.500000
      * Dispersion:
        s8                             2.700000
        a1                             0.520000
        a2                             5.000000
        s9                             5.000000
      * Repulsion:
        kExp                           1.500000    1.000000
        rExp                           1.000000
      * Coulomb:
        alpha                          2.000000
        third order                    shell-resolved
        anisotropic                    true
        a3                             3.000000
        a5                             4.000000
        cn-shift                       1.200000
        cn-exp                         4.000000
        max-rad                        5.000000

      * Solvation model:               ALPB
        Solvent                        water
        Parameter file                 internal GFN2-xTB/ALPB
        Dielectric constant                8.0200E+01
        Reference state                gsolv=reference [X=1]
        Free energy shift                  2.8945E-03 Eh       1.8164E+00 kcal/mol
        Temperature                        2.9815E+02 K
        Density                            1.0000E+00 kg/L
        Solvent mass                       1.8000E+01 g/mol
        Interaction kernel             P16
        Born radius scaling (c1)           1.4744E+00
        Born radii integrator          GBOBC
        Born offset                        0.0000E+00 a0       0.0000E+00 AA
        H-bond correction              true
        Ion screening                  false
        Surface tension                    1.0000E-05 Eh       1.5569E+01 dyn/cm
        Grid points                               974 per atom

          ...................................................
          :                      SETUP                      :
          :.................................................:
          :  # basis functions                 134          :
          :  # atomic orbitals                 128          :
          :  # shells                           66          :
          :  # electrons                       116          :
          :  max. iterations                   250          :
          :  Hamiltonian                  GFN2-xTB          :
          :  restarted?                      false          :
          :  GBSA solvation                   true          :
          :  PC potential                    false          :
          :  electronic temp.          300.0000000     K    :
          :  accuracy                    1.0000000          :
          :  -> integral cutoff          0.2500000E+02      :
          :  -> integral neglect         0.1000000E-07      :
          :  -> SCF convergence          0.1000000E-05 Eh   :
          :  -> wf. convergence          0.1000000E-03 e    :
          :  Broyden damping             0.4000000          :
          :  net charge                          0          :
          :  unpaired electrons                  0          :
          ...................................................

 iter      E             dE          RMSdq      gap      omega  full diag
   1    -65.4443637 -0.654444E+02  0.637E+00    4.40       0.0  T
   2    -65.5647387 -0.120375E+00  0.356E+00    3.66       1.0  T
   3    -65.5837301 -0.189914E-01  0.111E+00    3.26       1.0  T
   4    -65.5866680 -0.293791E-02  0.498E-01    3.20       1.0  T
   5    -65.5874398 -0.771760E-03  0.270E-01    3.26       1.0  T
   6    -65.5876443 -0.204575E-03  0.112E-01    3.26       1.0  T
   7    -65.5876897 -0.453920E-04  0.414E-02    3.28       1.0  T
   8    -65.5876944 -0.465569E-05  0.185E-02    3.28       1.0  T
   9    -65.5876953 -0.905538E-06  0.661E-03    3.28       2.4  T
  10    -65.5876953 -0.169310E-07  0.298E-03    3.28       5.2  T
  11    -65.5876954 -0.522701E-07  0.104E-03    3.28      15.1  T
  12    -65.5876954 -0.229390E-08  0.424E-04    3.28      36.8  T
  13    -65.5876954 -0.376417E-09  0.131E-04    3.28     119.1  T

   *** convergence criteria satisfied after 13 iterations ***

         #    Occupation            Energy/Eh            Energy/eV
      -------------------------------------------------------------
         1        2.0000           -0.7652235             -20.8228
       ...           ...                  ...                  ...
        52        2.0000           -0.4492339             -12.2243
        53        2.0000           -0.4196537             -11.4194
        54        2.0000           -0.4107075             -11.1759
        55        2.0000           -0.4008741             -10.9083
        56        2.0000           -0.3994363             -10.8692
        57        2.0000           -0.3939304             -10.7194
        58        2.0000           -0.3890050             -10.5854 (HOMO)
        59                         -0.2683015              -7.3009 (LUMO)
        60                         -0.2591644              -7.0522
        61                         -0.2225030              -6.0546
        62                         -0.1959232              -5.3313
        63                         -0.1794551              -4.8832
       ...                                ...                  ...
       128                          1.3238356              36.0234
      -------------------------------------------------------------
                  HL-Gap            0.1207035 Eh            3.2845 eV
             Fermi-level           -0.3286532 Eh           -8.9431 eV

 SCC (total)                   0 d,  0 h,  0 min,  0.063 sec
 SCC setup                      ...        0 min,  0.003 sec (  3.966%)
 Dispersion                     ...        0 min,  0.000 sec (  0.496%)
 classical contributions        ...        0 min,  0.000 sec (  0.090%)
 integral evaluation            ...        0 min,  0.011 sec ( 17.820%)
 iterations                     ...        0 min,  0.027 sec ( 42.430%)
 molecular gradient             ...        0 min,  0.022 sec ( 34.846%)
 printout                       ...        0 min,  0.000 sec (  0.330%)

         :::::::::::::::::::::::::::::::::::::::::::::::::::::
         ::                     SUMMARY                     ::
         :::::::::::::::::::::::::::::::::::::::::::::::::::::
         :: total energy             -65.027043371650 Eh    ::
         :: total w/o Gsasa/hb       -65.030017095051 Eh    ::
         :: gradient norm              0.000170115928 Eh/a0 ::
         :: HOMO-LUMO gap              3.284510339878 eV    ::
         ::.................................................::
         :: SCC energy               -65.586884282637 Eh    ::
         :: -> isotropic ES            0.128959993607 Eh    ::
         :: -> anisotropic ES         -0.019844906418 Eh    ::
         :: -> anisotropic XC          0.029263504829 Eh    ::
         :: -> dispersion             -0.054817656085 Eh    ::
         :: -> Gsolv                  -0.022456498226 Eh    ::
         ::    -> Gelec               -0.025430221627 Eh    ::
         ::    -> Gsasa                0.004221952804 Eh    ::
         ::    -> Ghb                 -0.004142778564 Eh    ::
         ::    -> Gshift               0.002894549160 Eh    ::
         :: repulsion energy           0.559840910987 Eh    ::
         :: add. restraining           0.000000000000 Eh    ::
         :: total charge              -0.000000000000 e     ::
         :::::::::::::::::::::::::::::::::::::::::::::::::::::

           -------------------------------------------------
          |                Property Printout                |
           -------------------------------------------------

    * Orbital Energies and Occupations

         #    Occupation            Energy/Eh            Energy/eV
      -------------------------------------------------------------
         1        2.0000           -0.7652235             -20.8228
       ...           ...                  ...                  ...
        46        2.0000           -0.4643493             -12.6356
        47        2.0000           -0.4622599             -12.5787
        48        2.0000           -0.4572105             -12.4413
        49        2.0000           -0.4544011             -12.3649
        50        2.0000           -0.4526603             -12.3175
        51        2.0000           -0.4503931             -12.2558
        52        2.0000           -0.4492339             -12.2243
        53        2.0000           -0.4196537             -11.4194
        54        2.0000           -0.4107075             -11.1759
        55        2.0000           -0.4008741             -10.9083
        56        2.0000           -0.3994363             -10.8692
        57        2.0000           -0.3939304             -10.7194
        58        2.0000           -0.3890050             -10.5854 (HOMO)
        59                         -0.2683015              -7.3009 (LUMO)
        60                         -0.2591644              -7.0522
        61                         -0.2225030              -6.0546
        62                         -0.1959232              -5.3313
        63                         -0.1794551              -4.8832
        64                         -0.1784238              -4.8552
        65                         -0.1630799              -4.4376
        66                         -0.1540376              -4.1916
        67                         -0.1328431              -3.6148
        68                         -0.1306847              -3.5561
        69                         -0.0479081              -1.3036
       ...                                ...                  ...
       128                          1.3238356              36.0234
      -------------------------------------------------------------
                  HL-Gap            0.1207035 Eh            3.2845 eV
             Fermi-level           -0.3286532 Eh           -8.9431 eV

     #   Z          covCN         q      C6AA      α(0)
     1   6 C        3.751    -0.124    22.943     6.831
     2   6 C        3.858     0.084    19.144     6.223
     3   8 O        1.656    -0.271    18.510     5.808
     4  15 P        3.834     0.373   144.701    21.609
     5  16 S        0.927    -0.478   160.346    21.418
     6   8 O        1.654    -0.270    18.495     5.806
     7   6 C        3.848     0.074    19.311     6.251
     8   6 C        3.751    -0.137    23.198     6.869
     9  16 S        1.994    -0.099   145.171    20.279
    10   6 C        3.801     0.028    20.110     6.385
    11  16 S        1.992    -0.133   146.645    20.382
    12  15 P        3.838     0.361   145.182    21.644
    13  16 S        0.926    -0.467   159.810    21.382
    14   8 O        1.656    -0.260    18.324     5.779
    15   6 C        3.857     0.087    19.108     6.217
    16   6 C        3.751    -0.123    22.916     6.827
    17   8 O        1.655    -0.265    18.409     5.792
    18   6 C        3.854     0.075    19.292     6.247
    19   6 C        3.751    -0.129    23.033     6.844
    20   1 H        0.925     0.071     2.076     2.253
    21   1 H        0.925     0.081     1.971     2.195
    22   1 H        0.925     0.052     2.298     2.370
    23   1 H        0.924     0.087     1.912     2.163
    24   1 H        0.924     0.053     2.284     2.363
    25   1 H        0.924     0.069     2.096     2.264
    26   1 H        0.924     0.088     1.901     2.156
    27   1 H        0.925     0.067     2.114     2.274
    28   1 H        0.925     0.090     1.879     2.143
    29   1 H        0.925     0.072     2.066     2.248
    30   1 H        0.925     0.136     1.492     1.910
    31   1 H        0.924     0.089     1.886     2.147
    32   1 H        0.924     0.085     1.928     2.171
    33   1 H        0.924     0.057     2.232     2.336
    34   1 H        0.925     0.055     2.262     2.352
    35   1 H        0.925     0.071     2.072     2.251
    36   1 H        0.925     0.084     1.935     2.175
    37   1 H        0.924     0.091     1.867     2.137
    38   1 H        0.924     0.064     2.152     2.294
    39   1 H        0.925     0.052     2.295     2.369
    40   1 H        0.925     0.071     2.075     2.252
    41   1 H        0.925     0.087     1.907     2.160

 Mol. C6AA /au·bohr⁶  :      26399.559536
 Mol. C8AA /au·bohr⁸  :     862503.756819
 Mol. α(0) /au        :        257.576130


Wiberg/Mayer (AO) data.
largest (>0.10) Wiberg bond orders for each atom

 ---------------------------------------------------------------------------
     #   Z sym  total        # sym  WBO       # sym  WBO       # sym  WBO
 ---------------------------------------------------------------------------
     1   6 C    3.988 --     2 C    1.022    20 H    0.982    21 H    0.977
                            22 H    0.976
     2   6 C    3.896 --     1 C    1.022    24 H    0.966    23 H    0.965
                             3 O    0.885
     3   8 O    2.380 --     4 P    1.285     2 C    0.885
     4  15 P    5.314 --     5 S    1.533     6 O    1.333     3 O    1.285
                             9 S    1.017
     5  16 S    1.842 --     4 P    1.533     9 S    0.126
     6   8 O    2.389 --     4 P    1.333     7 C    0.867
     7   6 C    3.885 --     8 C    1.022    25 H    0.967    26 H    0.967
                             6 O    0.867
     8   6 C    3.984 --     7 C    1.022    29 H    0.983    27 H    0.976
                            28 H    0.974
     9  16 S    2.316 --     4 P    1.017    10 C    0.986     5 S    0.126
    10   6 C    3.945 --     9 S    0.986    11 S    0.981    30 H    0.954
                            31 H    0.941
    11  16 S    2.287 --    12 P    0.999    10 C    0.981    13 S    0.134
    12  15 P    5.313 --    13 S    1.503    14 O    1.329    17 O    1.310
                            11 S    0.999
    13  16 S    1.854 --    12 P    1.503    11 S    0.134
    14   8 O    2.401 --    12 P    1.329    15 C    0.878
    15   6 C    3.890 --    16 C    1.022    33 H    0.968    32 H    0.966
                            14 O    0.878
    16   6 C    3.987 --    15 C    1.022    35 H    0.982    36 H    0.976
                            34 H    0.975
    17   8 O    2.401 --    12 P    1.310    18 C    0.890
    18   6 C    3.890 --    19 C    1.021    38 H    0.968    37 H    0.964
                            17 O    0.890
    19   6 C    3.987 --    18 C    1.021    40 H    0.982    41 H    0.976
                            39 H    0.975
    20   1 H    0.995 --     1 C    0.982
    21   1 H    0.992 --     1 C    0.977
    22   1 H    0.997 --     1 C    0.976
    23   1 H    0.992 --     2 C    0.965
    24   1 H    0.997 --     2 C    0.966
    25   1 H    0.995 --     7 C    0.967
    26   1 H    0.992 --     7 C    0.967
    27   1 H    0.995 --     8 C    0.976
    28   1 H    0.990 --     8 C    0.974
    29   1 H    0.995 --     8 C    0.983
    30   1 H    0.981 --    10 C    0.954
    31   1 H    0.992 --    10 C    0.941
    32   1 H    0.992 --    15 C    0.966
    33   1 H    0.997 --    15 C    0.968
    34   1 H    0.997 --    16 C    0.975
    35   1 H    0.995 --    16 C    0.982
    36   1 H    0.992 --    16 C    0.976
    37   1 H    0.992 --    18 C    0.964
    38   1 H    0.996 --    18 C    0.968
    39   1 H    0.997 --    19 C    0.975
    40   1 H    0.995 --    19 C    0.982
    41   1 H    0.992 --    19 C    0.976
 ---------------------------------------------------------------------------

Topologies differ in total number of bonds
Writing topology from bond orders to xtbtopo.mol

molecular dipole:
                 x           y           z       tot (Debye)
 q only:        0.490      -1.679      -1.318
   full:        0.361      -1.074      -1.297       4.377
molecular quadrupole (traceless):
                xx          xy          yy          xz          yz          zz
 q only:       28.950      -9.467      -3.323       5.255      -2.134     -25.627
  q+dip:       32.120      -7.742      -8.773       2.532       2.061     -23.347
   full:       32.212      -8.329      -7.493       3.373       0.900     -24.720


           -------------------------------------------------
          | TOTAL ENERGY              -65.027043371650 Eh   |
          | GRADIENT NORM               0.000170115928 Eh/α |
          | HOMO-LUMO GAP               3.284510339878 eV   |
           -------------------------------------------------

------------------------------------------------------------------------
 * finished run on 2025/04/09 at 05:20:50.036     
------------------------------------------------------------------------
 total:
 * wall-time:     0 d,  0 h,  0 min,  0.115 sec
 *  cpu-time:     0 d,  0 h,  0 min,  0.073 sec
 * ratio c/w:     0.639 speedup
 SCF:
 * wall-time:     0 d,  0 h,  0 min,  0.064 sec
 *  cpu-time:     0 d,  0 h,  0 min,  0.060 sec
 * ratio c/w:     0.946 speedup

