      -----------------------------------------------------------      
     |                   =====================                   |     
     |                           x T B                           |     
     |                   =====================                   |     
     |                         S. Grimme                         |     
     |          Mulliken Center for Theoretical Chemistry        |     
     |                    University of Bonn                     |     
      -----------------------------------------------------------      

   * xtb version 6.7.1 (edcfbbe) compiled by 'albert@albert-system' on 2024-07-22

   xtb is free software: you can redistribute it and/or modify it under
   the terms of the GNU Lesser General Public License as published by
   the Free Software Foundation, either version 3 of the License, or
   (at your option) any later version.
   
   xtb is distributed in the hope that it will be useful,
   but WITHOUT ANY WARRANTY; without even the implied warranty of
   MERCHANTABILITY or FITNESS FOR A PARTICULAR PURPOSE.  See the
   GNU Lesser General Public License for more details.
   
   Cite this work as:
   * C. Bannwarth, E. Caldeweyher, S. Ehlert, A. Hansen, P. Pracht,
     J. Seibert, S. Spicher, S. Grimme, WIREs Comput. Mol. Sci., 2020, 11,
     e01493. DOI: 10.1002/wcms.1493
   
   for GFN2-xTB:
   * C. Bannwarth, S. Ehlert and S. Grimme., J. Chem. Theory Comput., 2019,
     15, 1652-1671. DOI: 10.1021/acs.jctc.8b01176
   for GFN1-xTB:
   * S. Grimme, C. Bannwarth, P. Shushkov, J. Chem. Theory Comput., 2017,
     13, 1989-2009. DOI: 10.1021/acs.jctc.7b00118
   for GFN0-xTB:
   * P. Pracht, E. Caldeweyher, S. Ehlert, S. Grimme, ChemRxiv, 2019, preprint.
     DOI: 10.26434/chemrxiv.8326202.v1
   for GFN-FF:
   * S. Spicher and S. Grimme, Angew. Chem. Int. Ed., 2020, 59, 15665-15673.
     DOI: 10.1002/anie.202004239
   
   for ALPB and GBSA implicit solvation:
   * S. Ehlert, M. Stahn, S. Spicher, S. Grimme, J. Chem. Theory Comput.,
     2021, 17, 4250-4261. DOI: 10.1021/acs.jctc.1c00471
   
   for ddCOSMO and CPCM-X implicit solvation:
   * M. Stahn, S. Ehlert, S. Grimme, J. Phys. Chem. A,
     2023, XX, XXXX-XXXX. DOI: 10.1021/acs.jpca.3c04382
   
   for DFT-D4:
   * E. Caldeweyher, C. Bannwarth and S. Grimme, J. Chem. Phys., 2017,
     147, 034112. DOI: 10.1063/1.4993215
   * E. Caldeweyher, S. Ehlert, A. Hansen, H. Neugebauer, S. Spicher,
     C. Bannwarth and S. Grimme, J. Chem. Phys., 2019, 150, 154122.
     DOI: 10.1063/1.5090222
   * E. Caldeweyher, J.-M. Mewes, S. Ehlert and S. Grimme, Phys. Chem. Chem. Phys.
     2020, 22, 8499-8512. DOI: 10.1039/D0CP00502A
   
   for sTDA-xTB:
   * S. Grimme and C. Bannwarth, J. Chem. Phys., 2016, 145, 054103.
     DOI: 10.1063/1.4959605
   
   in the mass-spec context:
   * V. Asgeirsson, C. Bauer and S. Grimme, Chem. Sci., 2017, 8, 4879.
     DOI: 10.1039/c7sc00601b
   * J. Koopman and S. Grimme, ACS Omega 2019, 4, 12, 15120-15133.
     DOI: 10.1021/acsomega.9b02011
   
   for metadynamics refer to:
   * S. Grimme, J. Chem. Theory Comput., 2019, 155, 2847-2862
     DOI: 10.1021/acs.jctc.9b00143
   
   for SPH calculations refer to:
   * S. Spicher and S. Grimme, J. Chem. Theory Comput., 2021, 17, 1701-1714
     DOI: 10.1021/acs.jctc.0c01306
   
   for ONIOM refer to:
   * C. Plett, A. Katbashev, S. Ehlert, S. Grimme, M. Bursch,
     Phys. Chem. Chem. Phys., 2023, 25, 17860-17868. DOI: 10.1039/D3CP02178E
   
   for DIPRO refer to:
   * J. Kohn, N. Gildemeister, S. Grimme, D. Fazzi, A. Hansen,
     J. Chem. Phys., 2023, just accepted.
   
   for PTB refer to:
   * S. Grimme, M. Mueller, A. Hansen, J. Chem. Phys., 2023, 158, 124111.
     DOI: 10.1063/5.0137838
   
   with help from (in alphabetical order)
   P. Atkinson, C. Bannwarth, F. Bohle, G. Brandenburg, E. Caldeweyher
   M. Checinski, S. Dohm, S. Ehlert, S. Ehrlich, I. Gerasimov, C. Hölzer
   A. Katbashev, J. Kohn, J. Koopman, C. Lavigne, S. Lehtola, F. März, M. Müller,
   F. Musil, H. Neugebauer, J. Pisarek, C. Plett, P. Pracht, F. Pultar,
   J. Seibert, P. Shushkov, S. Spicher, M. Stahn, M. Steiner, T. Strunk,
   J. Stückrath, T. Rose, and J. Unsleber
   
 * started run on 2025/04/09 at 14:00:49.327     
   ID    Z sym.   atoms
    1    6 C      1, 2, 7, 8, 10, 15, 16, 18, 19
    2    8 O      3, 6, 14, 17
    3   15 P      4, 12
    4   16 S      5, 9, 11, 13
    5    1 H      20-41

           -------------------------------------------------
          |                Calculation Setup                |
           -------------------------------------------------

          program call               : /srv/scratch/z5358697/.xtb/bin/xtb xtb_rrho.coord --gfn2 --bhess vtight --chrg 0 --enso --norestart -I rrho-xcontrol-inp --parallel 1 --alpb water
          hostname                   : k163
          coordinate file            : xtb_rrho.coord
          omp threads                :                     1


           -------------------------------------------------
          |                 G F N 2 - x T B                 |
           -------------------------------------------------

        Reference                      10.1021/acs.jctc.8b01176
      * Hamiltonian:
        H0-scaling (s, p, d)           1.850000    2.230000    2.230000
        zeta-weighting                 0.500000
      * Dispersion:
        s8                             2.700000
        a1                             0.520000
        a2                             5.000000
        s9                             5.000000
      * Repulsion:
        kExp                           1.500000    1.000000
        rExp                           1.000000
      * Coulomb:
        alpha                          2.000000
        third order                    shell-resolved
        anisotropic                    true
        a3                             3.000000
        a5                             4.000000
        cn-shift                       1.200000
        cn-exp                         4.000000
        max-rad                        5.000000

      * Solvation model:               ALPB
        Solvent                        water
        Parameter file                 internal GFN2-xTB/ALPB
        Dielectric constant                8.0200E+01
        Reference state                gsolv [1 M gas/solution]
        Free energy shift                  1.0808E-03 Eh       6.7819E-01 kcal/mol
        Temperature                        2.9815E+02 K
        Density                            1.0000E+00 kg/L
        Solvent mass                       1.8000E+01 g/mol
        Interaction kernel             P16
        Born radius scaling (c1)           1.4744E+00
        Born radii integrator          GBOBC
        Born offset                        0.0000E+00 a0       0.0000E+00 AA
        H-bond correction              true
        Ion screening                  false
        Surface tension                    1.0000E-05 Eh       1.5569E+01 dyn/cm
        Grid points                               974 per atom

          ...................................................
          :                      SETUP                      :
          :.................................................:
          :  # basis functions                 134          :
          :  # atomic orbitals                 128          :
          :  # shells                           66          :
          :  # electrons                       116          :
          :  max. iterations                   250          :
          :  Hamiltonian                  GFN2-xTB          :
          :  restarted?                      false          :
          :  GBSA solvation                   true          :
          :  PC potential                    false          :
          :  electronic temp.          300.0000000     K    :
          :  accuracy                    1.0000000          :
          :  -> integral cutoff          0.2500000E+02      :
          :  -> integral neglect         0.1000000E-07      :
          :  -> SCF convergence          0.1000000E-05 Eh   :
          :  -> wf. convergence          0.1000000E-03 e    :
          :  Broyden damping             0.4000000          :
          :  net charge                          0          :
          :  unpaired electrons                  0          :
          ...................................................

 iter      E             dE          RMSdq      gap      omega  full diag
   1    -65.4153687 -0.654154E+02  0.672E+00    4.30       0.0  T
   2    -65.5368150 -0.121446E+00  0.381E+00    3.64       1.0  T
   3    -65.5548061 -0.179911E-01  0.105E+00    3.16       1.0  T
   4    -65.5584734 -0.366726E-02  0.471E-01    3.13       1.0  T
   5    -65.5591630 -0.689594E-03  0.255E-01    3.19       1.0  T
   6    -65.5593488 -0.185790E-03  0.111E-01    3.18       1.0  T
   7    -65.5593899 -0.411438E-04  0.411E-02    3.20       1.0  T
   8    -65.5593933 -0.339180E-05  0.163E-02    3.20       1.0  T
   9    -65.5593939 -0.647887E-06  0.456E-03    3.20       3.4  T
  10    -65.5593940 -0.679250E-08  0.231E-03    3.20       6.7  T
  11    -65.5593940 -0.317056E-07  0.530E-04    3.20      29.5  T
  12    -65.5593940 -0.411774E-09  0.265E-04    3.20      58.9  T

   *** convergence criteria satisfied after 12 iterations ***

         #    Occupation            Energy/Eh            Energy/eV
      -------------------------------------------------------------
         1        2.0000           -0.7592439             -20.6601
       ...           ...                  ...                  ...
        52        2.0000           -0.4491852             -12.2230
        53        2.0000           -0.4180434             -11.3755
        54        2.0000           -0.4135112             -11.2522
        55        2.0000           -0.3962002             -10.7812
        56        2.0000           -0.3946314             -10.7385
        57        2.0000           -0.3933872             -10.7046
        58        2.0000           -0.3914660             -10.6523 (HOMO)
        59                         -0.2737892              -7.4502 (LUMO)
        60                         -0.2504344              -6.8147
        61                         -0.2262916              -6.1577
        62                         -0.1937686              -5.2727
        63                         -0.1830379              -4.9807
       ...                                ...                  ...
       128                          1.2222484              33.2591
      -------------------------------------------------------------
                  HL-Gap            0.1176767 Eh            3.2021 eV
             Fermi-level           -0.3326276 Eh           -9.0513 eV

 SCC (total)                   0 d,  0 h,  0 min,  0.087 sec
 SCC setup                      ...        0 min,  0.002 sec (  2.405%)
 Dispersion                     ...        0 min,  0.000 sec (  0.304%)
 classical contributions        ...        0 min,  0.000 sec (  0.057%)
 integral evaluation            ...        0 min,  0.044 sec ( 49.930%)
 iterations                     ...        0 min,  0.022 sec ( 25.063%)
 molecular gradient             ...        0 min,  0.019 sec ( 22.011%)
 printout                       ...        0 min,  0.000 sec (  0.217%)

         :::::::::::::::::::::::::::::::::::::::::::::::::::::
         ::                     SUMMARY                     ::
         :::::::::::::::::::::::::::::::::::::::::::::::::::::
         :: total energy             -65.020059045522 Eh    ::
         :: total w/o Gsasa/hb       -65.021754192342 Eh    ::
         :: gradient norm              0.051518695679 Eh/a0 ::
         :: HOMO-LUMO gap              3.202147264213 eV    ::
         ::.................................................::
         :: SCC energy               -65.558604572537 Eh    ::
         :: -> isotropic ES            0.123044178432 Eh    ::
         :: -> anisotropic ES         -0.011630272183 Eh    ::
         :: -> anisotropic XC          0.031544173096 Eh    ::
         :: -> dispersion             -0.050944212419 Eh    ::
         :: -> Gsolv                  -0.018489699402 Eh    ::
         ::    -> Gelec               -0.020184846222 Eh    ::
         ::    -> Gsasa                0.004849210566 Eh    ::
         ::    -> Ghb                 -0.004234823444 Eh    ::
         ::    -> Gshift               0.001080759698 Eh    ::
         :: repulsion energy           0.538545527015 Eh    ::
         :: add. restraining           0.000000000000 Eh    ::
         :: total charge              -0.000000000000 e     ::
         :::::::::::::::::::::::::::::::::::::::::::::::::::::

metadynamics with 1 initial structures loaded
           -------------------------------------------------
          |           Optimal kpush determination           |
           -------------------------------------------------
      ----------------------------------------------------------- 
     |                   =====================                   |
     |                        A N C O P T                        |
     |                   =====================                   |
     |               Approximate Normal Coordinate               |
     |                Rational Function Optimizer                |
      ----------------------------------------------------------- 
target rmsd / Å         0.100000
unbiased initial rmsd   0.187142
 
iter. min.        max.        rmsd       kpush
      ----------------------------------------------------------- 
     |                   =====================                   |
     |                        A N C O P T                        |
     |                   =====================                   |
     |               Approximate Normal Coordinate               |
     |                Rational Function Optimizer                |
      ----------------------------------------------------------- 
 1    0.000000    1.863636    0.015269   -0.931818
      ----------------------------------------------------------- 
     |                   =====================                   |
     |                        A N C O P T                        |
     |                   =====================                   |
     |               Approximate Normal Coordinate               |
     |                Rational Function Optimizer                |
      ----------------------------------------------------------- 
 2    0.000000    0.931818    0.021534   -0.465909
      ----------------------------------------------------------- 
     |                   =====================                   |
     |                        A N C O P T                        |
     |                   =====================                   |
     |               Approximate Normal Coordinate               |
     |                Rational Function Optimizer                |
      ----------------------------------------------------------- 
 3    0.000000    0.465909    0.031173   -0.232955
      ----------------------------------------------------------- 
     |                   =====================                   |
     |                        A N C O P T                        |
     |                   =====================                   |
     |               Approximate Normal Coordinate               |
     |                Rational Function Optimizer                |
      ----------------------------------------------------------- 
 4    0.000000    0.232955    0.046484   -0.116477
      ----------------------------------------------------------- 
     |                   =====================                   |
     |                        A N C O P T                        |
     |                   =====================                   |
     |               Approximate Normal Coordinate               |
     |                Rational Function Optimizer                |
      ----------------------------------------------------------- 
 5    0.000000    0.116477    0.068687   -0.058239
      ----------------------------------------------------------- 
     |                   =====================                   |
     |                        A N C O P T                        |
     |                   =====================                   |
     |               Approximate Normal Coordinate               |
     |                Rational Function Optimizer                |
      ----------------------------------------------------------- 
 6    0.000000    0.058239    0.095472   -0.029119
      ----------------------------------------------------------- 
     |                   =====================                   |
     |                        A N C O P T                        |
     |                   =====================                   |
     |               Approximate Normal Coordinate               |
     |                Rational Function Optimizer                |
      ----------------------------------------------------------- 
 7    0.000000    0.029119    0.122238   -0.014560
      ----------------------------------------------------------- 
     |                   =====================                   |
     |                        A N C O P T                        |
     |                   =====================                   |
     |               Approximate Normal Coordinate               |
     |                Rational Function Optimizer                |
      ----------------------------------------------------------- 
 8    0.014560    0.029119    0.106829   -0.021839
      ----------------------------------------------------------- 
     |                   =====================                   |
     |                        A N C O P T                        |
     |                   =====================                   |
     |               Approximate Normal Coordinate               |
     |                Rational Function Optimizer                |
      ----------------------------------------------------------- 
 9    0.021839    0.029119    0.100774   -0.025479
final kpush: -0.025479
           -------------------------------------------------
          |            Biased Numerical Hessian             |
           -------------------------------------------------
kpush                :  -0.02548
alpha                :   1.00000
step length          :   0.00500
SCC accuracy         :   0.30000
Hessian scale factor :   1.00000
frozen atoms in %    :   0.00000    0
RMS gradient         :   0.00007
estimated CPU  time      0.18 min
estimated wall time      0.18 min

writing file <hessian>.

 projected vibrational frequencies (cm⁻¹)
eigval :       -0.00    -0.00    -0.00     0.00     0.00     0.00
eigval :       49.93    52.77    61.76    55.36    73.13    68.02
eigval :       71.56    69.81    72.37    74.64    72.49    86.73
eigval :       97.37   118.36   133.88   129.98   141.30   146.67
eigval :      156.75   170.60   208.33   227.10   234.26   222.10
eigval :      218.65   224.14   228.88   267.78   300.15   308.24
eigval :      319.81   328.74   339.72   407.66   424.54   444.80
eigval :      447.91   480.50   488.84   605.18   614.35   663.08
eigval :      679.72   724.26   731.99   761.24   762.61   794.62
eigval :      818.33   820.90   822.74   825.18   910.39   913.87
eigval :      934.05   938.81  1039.18  1040.33  1057.08  1059.85
eigval :     1093.78  1094.30  1087.35  1094.66  1093.55  1129.28
eigval :     1132.29  1132.71  1134.75  1162.78  1234.50  1238.01
eigval :     1239.39  1239.20  1304.92  1308.81  1310.56  1312.50
eigval :     1342.64  1391.29  1391.77  1394.43  1398.07  1435.77
eigval :     1436.75  1439.07  1449.39  1458.20  1459.84  1461.59
eigval :     1464.08  1475.67  1475.92  1475.98  1479.66  2924.23
eigval :     2924.81  2926.19  2933.33  2958.86  2971.66  2976.12
eigval :     2978.03  2978.20  2980.15  3019.36  3021.10  3021.74
eigval :     3035.83  3047.36  3047.41  3048.22  3048.32  3054.02
eigval :     3054.13  3056.45  3060.89
           -------------------------------------------------
          |                Property Printout                |
           -------------------------------------------------

    * Orbital Energies and Occupations

         #    Occupation            Energy/Eh            Energy/eV
      -------------------------------------------------------------
         1        2.0000           -0.7648042             -20.8114
       ...           ...                  ...                  ...
        46        2.0000           -0.4662747             -12.6880
        47        2.0000           -0.4575743             -12.4512
        48        2.0000           -0.4567668             -12.4293
        49        2.0000           -0.4538650             -12.3503
        50        2.0000           -0.4514809             -12.2854
        51        2.0000           -0.4502869             -12.2529
        52        2.0000           -0.4478433             -12.1864
        53        2.0000           -0.4197672             -11.4224
        54        2.0000           -0.4120780             -11.2132
        55        2.0000           -0.3954002             -10.7594
        56        2.0000           -0.3936088             -10.7106
        57        2.0000           -0.3912463             -10.6464
        58        2.0000           -0.3899207             -10.6103 (HOMO)
        59                         -0.2751827              -7.4881 (LUMO)
        60                         -0.2541758              -6.9165
        61                         -0.2194653              -5.9720
        62                         -0.1885310              -5.1302
        63                         -0.1820081              -4.9527
        64                         -0.1742707              -4.7421
        65                         -0.1620820              -4.4105
        66                         -0.1530593              -4.1650
        67                         -0.1390404              -3.7835
        68                         -0.1297904              -3.5318
        69                         -0.0487789              -1.3273
       ...                                ...                  ...
       128                          1.2198855              33.1948
      -------------------------------------------------------------
                  HL-Gap            0.1147380 Eh            3.1222 eV
             Fermi-level           -0.3325517 Eh           -9.0492 eV

     #   Z          covCN         q      C6AA      α(0)
     1   6 C        3.751    -0.128    23.017     6.842
     2   6 C        3.863     0.077    19.263     6.241
     3   8 O        1.655    -0.267    18.449     5.798
     4  15 P        3.814     0.392   143.986    21.555
     5  16 S        0.926    -0.458   159.365    21.352
     6   8 O        1.655    -0.259    18.308     5.776
     7   6 C        3.824     0.080    19.231     6.240
     8   6 C        3.751    -0.126    22.983     6.837
     9  16 S        1.991    -0.156   147.615    20.449
    10   6 C        3.811     0.035    19.984     6.363
    11  16 S        1.990    -0.123   146.201    20.351
    12  15 P        3.848     0.377   144.581    21.600
    13  16 S        0.926    -0.472   160.079    21.400
    14   8 O        1.655    -0.253    18.216     5.762
    15   6 C        3.850     0.073    19.328     6.253
    16   6 C        3.751    -0.130    23.065     6.849
    17   8 O        1.655    -0.265    18.408     5.792
    18   6 C        3.861     0.079    19.227     6.236
    19   6 C        3.751    -0.127    23.004     6.840
    20   1 H        0.925     0.072     2.067     2.248
    21   1 H        0.925     0.085     1.931     2.173
    22   1 H        0.925     0.056     2.246     2.344
    23   1 H        0.924     0.091     1.865     2.136
    24   1 H        0.924     0.064     2.150     2.293
    25   1 H        0.924     0.051     2.305     2.374
    26   1 H        0.924     0.090     1.880     2.144
    27   1 H        0.925     0.069     2.101     2.267
    28   1 H        0.925     0.057     2.239     2.340
    29   1 H        0.925     0.079     1.985     2.203
    30   1 H        0.925     0.102     1.763     2.077
    31   1 H        0.925     0.106     1.733     2.058
    32   1 H        0.924     0.065     2.140     2.288
    33   1 H        0.924     0.095     1.834     2.118
    34   1 H        0.925     0.054     2.269     2.356
    35   1 H        0.925     0.085     1.924     2.169
    36   1 H        0.925     0.071     2.074     2.252
    37   1 H        0.924     0.062     2.180     2.309
    38   1 H        0.924     0.086     1.914     2.164
    39   1 H        0.925     0.054     2.270     2.356
    40   1 H        0.925     0.084     1.941     2.179
    41   1 H        0.925     0.074     2.047     2.237

 Mol. C6AA /au·bohr⁶  :      26408.491133
 Mol. C8AA /au·bohr⁸  :     862581.286134
 Mol. α(0) /au        :        257.620159


Wiberg/Mayer (AO) data.
largest (>0.10) Wiberg bond orders for each atom

 ---------------------------------------------------------------------------
     #   Z sym  total        # sym  WBO       # sym  WBO       # sym  WBO
 ---------------------------------------------------------------------------
     1   6 C    3.987 --     2 C    1.023    20 H    0.982    22 H    0.977
                            21 H    0.976
     2   6 C    3.884 --     1 C    1.023    24 H    0.967    23 H    0.965
                             3 O    0.877
     3   8 O    2.388 --     4 P    1.322     2 C    0.877
     4  15 P    5.246 --     5 S    1.510     3 O    1.322     6 O    1.306
                             9 S    0.967
     5  16 S    1.847 --     4 P    1.510     9 S    0.137
     6   8 O    2.408 --     4 P    1.306     7 C    0.890
     7   6 C    3.893 --     8 C    1.020    26 H    0.964    25 H    0.964
                             6 O    0.890
     8   6 C    3.987 --     7 C    1.020    27 H    0.983    28 H    0.979
                            29 H    0.977
     9  16 S    2.277 --    10 C    0.987     4 P    0.967     5 S    0.137
    10   6 C    3.948 --     9 S    0.987    11 S    0.986    30 H    0.953
                            31 H    0.949
    11  16 S    2.292 --    10 C    0.986    12 P    0.985    13 S    0.133
    12  15 P    5.289 --    13 S    1.514    14 O    1.329    17 O    1.313
                            11 S    0.985
    13  16 S    1.840 --    12 P    1.514    11 S    0.133
    14   8 O    2.415 --    12 P    1.329    15 C    0.886
    15   6 C    3.888 --    16 C    1.022    32 H    0.968    33 H    0.964
                            14 O    0.886
    16   6 C    3.987 --    15 C    1.022    36 H    0.982    34 H    0.977
                            35 H    0.976
    17   8 O    2.391 --    12 P    1.313    18 C    0.879
    18   6 C    3.891 --    19 C    1.023    37 H    0.967    38 H    0.966
                            17 O    0.879
    19   6 C    3.987 --    18 C    1.023    41 H    0.982    39 H    0.977
                            40 H    0.976
    20   1 H    0.995 --     1 C    0.982
    21   1 H    0.992 --     1 C    0.976
    22   1 H    0.997 --     1 C    0.977
    23   1 H    0.991 --     2 C    0.965
    24   1 H    0.996 --     2 C    0.967
    25   1 H    0.997 --     7 C    0.964
    26   1 H    0.992 --     7 C    0.964
    27   1 H    0.995 --     8 C    0.983
    28   1 H    0.997 --     8 C    0.979
    29   1 H    0.993 --     8 C    0.977
    30   1 H    0.989 --    10 C    0.953
    31   1 H    0.988 --    10 C    0.949
    32   1 H    0.996 --    15 C    0.968
    33   1 H    0.991 --    15 C    0.964
    34   1 H    0.997 --    16 C    0.977
    35   1 H    0.992 --    16 C    0.976
    36   1 H    0.995 --    16 C    0.982
    37   1 H    0.996 --    18 C    0.967
    38   1 H    0.992 --    18 C    0.966
    39   1 H    0.997 --    19 C    0.977
    40   1 H    0.992 --    19 C    0.976
    41   1 H    0.995 --    19 C    0.982
 ---------------------------------------------------------------------------

Topologies differ in total number of bonds
Writing topology from bond orders to xtbtopo.mol

molecular dipole:
                 x           y           z       tot (Debye)
 q only:       -0.401      -1.416       1.905
   full:       -0.297      -1.801       1.797       6.511
molecular quadrupole (traceless):
                xx          xy          yy          xz          yz          zz
 q only:       12.328     -16.476      -0.537     -20.511      -0.468     -11.791
  q+dip:        9.894     -17.534      -1.011     -22.083      -3.377      -8.883
   full:       11.895     -17.412      -1.506     -23.001      -2.300     -10.390

           -------------------------------------------------
          |                Geometry Summary                 |
           -------------------------------------------------

      molecular mass/u    :      384.4756129
   center of mass at/Å    :        0.0109247       0.0088187      -0.0040013
  moments of inertia/u·Å² :        0.1180766E+04   0.3902891E+04   0.4058986E+04
rotational constants/cm⁻¹ :        0.1427686E-01   0.4319268E-02   0.4153163E-02

 * 38 selected distances

     #   Z          #   Z                                           value/Å
     1   6 C        2   6 C                                       1.5148927
     2   6 C        3   8 O                                       1.4438190
     3   8 O        4  15 P                                       1.5814503
     4  15 P        5  16 S                                       1.9639296
     4  15 P        6   8 O                                       1.5939291
     6   8 O        7   6 C                                       1.4358820
     7   6 C        8   6 C                                       1.5159007
     4  15 P        9  16 S                                       2.1244707 (max)
    11  16 S       12  15 P                                       2.1137438
    12  15 P       13  16 S                                       1.9636984
    12  15 P       14   8 O                                       1.5884404
    14   8 O       15   6 C                                       1.4390133
    15   6 C       16   6 C                                       1.5153479
    12  15 P       17   8 O                                       1.5869933
    17   8 O       18   6 C                                       1.4424221
    18   6 C       19   6 C                                       1.5146107
     1   6 C       20   1 H                                       1.0867512
     1   6 C       21   1 H                                       1.0858781
     1   6 C       22   1 H                                       1.0890213
     2   6 C       23   1 H                                       1.0909896
     2   6 C       24   1 H                                       1.0946900
     7   6 C       25   1 H                                       1.0947705
     7   6 C       26   1 H                                       1.0917264
     8   6 C       27   1 H                                       1.0868320
     8   6 C       28   1 H                                       1.0882211
     8   6 C       29   1 H                                       1.0852765 (min)
    10   6 C       30   1 H                                       1.0896015
    10   6 C       31   1 H                                       1.0901365
    15   6 C       32   1 H                                       1.0948259
    15   6 C       33   1 H                                       1.0911338
    16   6 C       34   1 H                                       1.0889806
    16   6 C       35   1 H                                       1.0858363
    16   6 C       36   1 H                                       1.0868247
    18   6 C       37   1 H                                       1.0947936
    18   6 C       38   1 H                                       1.0908633
    19   6 C       39   1 H                                       1.0891266
    19   6 C       40   1 H                                       1.0859104
    19   6 C       41   1 H                                       1.0866542

 * 5 distinct bonds (by element types)

   Z      Z             #   av. dist./Å        max./Å        min./Å
   1 H    6 C          22     1.0894929     1.0948259     1.0852765
   6 C    6 C           4     1.5151880     1.5159007     1.5146107
   6 C    8 O           4     1.4402841     1.4438190     1.4358820
   8 O   15 P           4     1.5877033     1.5939291     1.5814503
  15 P   16 S           4     2.0414606     2.1244707     1.9636984

           -------------------------------------------------
          |               Frequency Printout                |
           -------------------------------------------------
 projected vibrational frequencies (cm⁻¹)
eigval :       -0.00    -0.00    -0.00     0.00     0.00     0.00
eigval :       49.93    52.77    61.76    55.36    73.13    68.02
eigval :       71.56    69.81    72.37    74.64    72.49    86.73
eigval :       97.37   118.36   133.88   129.98   141.30   146.67
eigval :      156.75   170.60   208.33   227.10   234.26   222.10
eigval :      218.65   224.14   228.88   267.78   300.15   308.24
eigval :      319.81   328.74   339.72   407.66   424.54   444.80
eigval :      447.91   480.50   488.84   605.18   614.35   663.08
eigval :      679.72   724.26   731.99   761.24   762.61   794.62
eigval :      818.33   820.90   822.74   825.18   910.39   913.87
eigval :      934.05   938.81  1039.18  1040.33  1057.08  1059.85
eigval :     1093.78  1094.30  1087.35  1094.66  1093.55  1129.28
eigval :     1132.29  1132.71  1134.75  1162.78  1234.50  1238.01
eigval :     1239.39  1239.20  1304.92  1308.81  1310.56  1312.50
eigval :     1342.64  1391.29  1391.77  1394.43  1398.07  1435.77
eigval :     1436.75  1439.07  1449.39  1458.20  1459.84  1461.59
eigval :     1464.08  1475.67  1475.92  1475.98  1479.66  2924.23
eigval :     2924.81  2926.19  2933.33  2958.86  2971.66  2976.12
eigval :     2978.03  2978.20  2980.15  3019.36  3021.10  3021.74
eigval :     3035.83  3047.36  3047.41  3048.22  3048.32  3054.02
eigval :     3054.13  3056.45  3060.89
 reduced masses (amu)
   1: 19.42   2: 21.09   3: 19.12   4: 17.58   5: 23.16   6: 17.40   7: 23.22   8: 23.78
   9: 22.61  10: 16.52  11: 27.62  12: 16.11  13: 15.69  14: 13.30  15: 13.31  16: 12.82
  17: 10.94  18: 12.96  19: 13.56  20: 15.06  21: 17.62  22: 14.96  23: 16.37  24: 14.72
  25: 16.36  26: 14.03  27: 15.63  28: 20.42  29: 19.54  30:  7.45  31:  5.00  32:  5.61
  33:  5.27  34: 11.51  35: 21.22  36: 14.55  37: 15.73  38: 15.56  39: 18.40  40: 21.06
  41: 19.59  42: 14.83  43: 15.43  44: 16.30  45: 18.22  46: 25.19  47: 25.88  48: 18.45
  49: 16.64  50: 20.46  51: 19.82  52: 22.69  53: 22.96  54:  6.05  55:  2.75  56:  2.73
  57:  2.79  58:  2.57  59: 12.58  60: 12.63  61: 11.29  62: 11.06  63:  8.63  64:  8.48
  65:  9.74  66: 10.14  67:  7.80  68:  7.82  69:  3.04  70:  7.53  71:  6.45  72:  5.14
  73:  5.23  74:  5.25  75:  5.18  76:  2.27  77:  2.39  78:  2.29  79:  2.28  80:  2.28
  81:  3.04  82:  3.09  83:  3.05  84:  3.03  85:  1.75  86:  3.10  87:  3.11  88:  3.07
  89:  3.08  90:  1.94  91:  1.95  92:  1.93  93:  1.89  94:  1.49  95:  1.50  96:  1.50
  97:  1.49  98:  1.56  99:  1.56 100:  1.56 101:  1.56 102:  1.74 103:  1.74 104:  1.74
 105:  1.76 106:  1.51 107:  1.70 108:  2.02 109:  1.73 110:  1.73 111:  1.72 112:  1.76
 113:  1.76 114:  1.77 115:  1.81 116:  1.62 117:  1.60 118:  1.60 119:  1.63 120:  1.80
 121:  1.80 122:  1.77 123:  1.75
 IR intensities (km·mol⁻¹)
   1:  0.05   2:  0.29   3:  0.25   4:  0.25   5:  0.15   6:  0.98   7:  3.14   8:  1.66
   9:  4.20  10:  0.83  11:  0.49  12:  2.19  13:  2.36  14:  6.82  15:  4.38  16:  2.66
  17:  0.82  18:  0.76  19:  1.25  20:  4.01  21:  8.18  22:  8.34  23:  4.25  24: 27.77
  25: 13.02  26:  9.12  27:  0.35  28: 10.20  29: 23.41  30: 10.23  31:  2.35  32:  3.00
  33:  3.79  34: 10.64  35:  7.80  36: 16.38  37: 13.30  38:  8.08  39:  9.89  40: 60.38
  41: 30.39  42: 67.44  43:  9.32  44:135.93  45: 84.52  46:282.72  47: 36.89  48:  3.78
  49: 40.31  50:193.82  51:199.45  52:248.69  53:361.29  54: 12.05  55:  3.99  56:  4.31
  57:  4.33  58:  4.00  59:262.18  60:328.85  61:113.53  62: 90.51  63:229.89  64:195.85
  65:133.46  66: 85.61  67: 10.68  68:  6.80  69:  4.62  70:  7.70  71:  7.82  72: 18.52
  73: 27.57  74:  8.01  75: 25.55  76: 47.44  77:  3.25  78: 11.20  79:  2.62  80:  0.86
  81:  5.84  82:  4.76  83:  7.21  84:  3.67  85: 10.58  86: 15.53  87: 16.34  88: 11.99
  89: 15.00  90:  8.81  91:  6.21  92:  3.36  93:  2.03  94:  6.60  95:  6.37  96:  9.66
  97:  6.02  98:  7.97  99:  1.15 100:  0.91 101:  3.86 102: 26.10 103: 28.76 104: 22.86
 105: 14.65 106:  6.27 107: 12.96 108: 24.54 109: 11.48 110:  6.07 111:  9.98 112: 46.66
 113: 44.19 114: 56.48 115: 36.24 116: 24.65 117: 19.75 118: 14.46 119: 13.40 120: 11.41
 121: 10.93 122: 11.61 123: 11.52
 Raman intensities (Ä⁴*amu⁻¹)
   1:  0.00   2:  0.00   3:  0.00   4:  0.00   5:  0.00   6:  0.00   7:  0.00   8:  0.00
   9:  0.00  10:  0.00  11:  0.00  12:  0.00  13:  0.00  14:  0.00  15:  0.00  16:  0.00
  17:  0.00  18:  0.00  19:  0.00  20:  0.00  21:  0.00  22:  0.00  23:  0.00  24:  0.00
  25:  0.00  26:  0.00  27:  0.00  28:  0.00  29:  0.00  30:  0.00  31:  0.00  32:  0.00
  33:  0.00  34:  0.00  35:  0.00  36:  0.00  37:  0.00  38:  0.00  39:  0.00  40:  0.00
  41:  0.00  42:  0.00  43:  0.00  44:  0.00  45:  0.00  46:  0.00  47:  0.00  48:  0.00
  49:  0.00  50:  0.00  51:  0.00  52:  0.00  53:  0.00  54:  0.00  55:  0.00  56:  0.00
  57:  0.00  58:  0.00  59:  0.00  60:  0.00  61:  0.00  62:  0.00  63:  0.00  64:  0.00
  65:  0.00  66:  0.00  67:  0.00  68:  0.00  69:  0.00  70:  0.00  71:  0.00  72:  0.00
  73:  0.00  74:  0.00  75:  0.00  76:  0.00  77:  0.00  78:  0.00  79:  0.00  80:  0.00
  81:  0.00  82:  0.00  83:  0.00  84:  0.00  85:  0.00  86:  0.00  87:  0.00  88:  0.00
  89:  0.00  90:  0.00  91:  0.00  92:  0.00  93:  0.00  94:  0.00  95:  0.00  96:  0.00
  97:  0.00  98:  0.00  99:  0.00 100:  0.00 101:  0.00 102:  0.00 103:  0.00 104:  0.00
 105:  0.00 106:  0.00 107:  0.00 108:  0.00 109:  0.00 110:  0.00 111:  0.00 112:  0.00
 113:  0.00 114:  0.00 115:  0.00 116:  0.00 117:  0.00 118:  0.00 119:  0.00 120:  0.00
 121:  0.00 122:  0.00 123:  0.00
 output can be read by thermo (or use thermo option).
 writing <g98.out> molden fake output.
 recommended (thermochemical) frequency scaling factor: 1.0
           -------------------------------------------------
          |             Thermodynamic Functions             |
           -------------------------------------------------

Molecule has no symmetry elements
It seems to be the C1 point group
c1  symmetry found (for desy threshold:  0.10E+00) used in thermo

          ...................................................
          :                      SETUP                      :
          :.................................................:
          :  # frequencies                         117      :
          :  # imaginary freq.                       0      :
          :  linear?                             false      :
          :  only rotor calc.                    false      :
          :  symmetry                               c1      :
          :  rotational number                       1      :
          :  scaling factor                  1.0000000      :
          :  rotor cutoff                    0.0000000 cm⁻¹ :
          :  imag. cutoff                 -100.0000000 cm⁻¹ :
          :.................................................:

    mode    ω/cm⁻¹     T·S(HO)/kcal·mol⁻¹    T·S(FR)/kcal·mol⁻¹   T·S(vib)
   ------------------------------------------------------------------------
       1     49.93    -1.43712 (100.00%)    -1.05693 (  0.00%)    -1.43712
       2     52.77    -1.40447 (100.00%)    -1.04052 (  0.00%)    -1.40447
       3     61.76    -1.31195 (100.00%)    -0.99397 (  0.00%)    -1.31195
       4     55.36    -1.37624 (100.00%)    -1.02633 (  0.00%)    -1.37624
       5     73.13    -1.21267 (100.00%)    -0.94390 (  0.00%)    -1.21267
       6     68.02    -1.25520 (100.00%)    -0.96537 (  0.00%)    -1.25520
       7     71.56    -1.22538 (100.00%)    -0.95031 (  0.00%)    -1.22538
       8     69.81    -1.23990 (100.00%)    -0.95765 (  0.00%)    -1.23990
       9     72.37    -1.21876 (100.00%)    -0.94698 (  0.00%)    -1.21876
      10     74.64    -1.20066 (100.00%)    -0.93783 (  0.00%)    -1.20066
      11     72.49    -1.21782 (100.00%)    -0.94650 (  0.00%)    -1.21782
      12     86.73    -1.11285 (100.00%)    -0.89337 (  0.00%)    -1.11285
      13     97.37    -1.04539 (100.00%)    -0.85908 (  0.00%)    -1.04539
      14    118.36    -0.93230 (100.00%)    -0.80126 (  0.00%)    -0.93230
      15    133.88    -0.86151 (100.00%)    -0.76476 (  0.00%)    -0.86151
      16    129.98    -0.87847 (100.00%)    -0.77353 (  0.00%)    -0.87847
      17    141.30    -0.83072 (100.00%)    -0.74879 (  0.00%)    -0.83072
      18    146.67    -0.80947 (100.00%)    -0.73773 (  0.00%)    -0.80947
      19    156.75    -0.77180 (100.00%)    -0.71804 (  0.00%)    -0.77180
      20    170.60    -0.72415 (100.00%)    -0.69296 (  0.00%)    -0.72415
      21    208.33    -0.61366 (100.00%)    -0.63377 (  0.00%)    -0.61366
      22    227.10    -0.56700 (100.00%)    -0.60821 (  0.00%)    -0.56700
      23    234.26    -0.55040 (100.00%)    -0.59902 (  0.00%)    -0.55040
      24    222.10    -0.57898 (100.00%)    -0.61481 (  0.00%)    -0.57898
      25    218.65    -0.58742 (100.00%)    -0.61945 (  0.00%)    -0.58742
      26    224.14    -0.57406 (100.00%)    -0.61211 (  0.00%)    -0.57406
      27    228.88    -0.56281 (100.00%)    -0.60590 (  0.00%)    -0.56281
      28    267.78    -0.48017 (100.00%)    -0.55941 (  0.00%)    -0.48017
   ------------------------------------------------------------------------

   temp. (K)  partition function   enthalpy   heat capacity  entropy
                                   cal/mol     cal/K/mol   cal/K/mol   J/K/mol
 298.15  VIB  0.630E+12            15513.148     88.337    106.024
         ROT  0.104E+08              888.752      2.981     35.099
         INT  0.659E+19            16401.900     91.318    141.123
         TR   0.729E+28             1481.254      4.968     43.712
         TOT                       17883.1542    96.2860   184.8355   773.3516

       T/K    H(0)-H(T)+PV         H(T)/Eh          T*S/Eh         G(T)/Eh
   ------------------------------------------------------------------------
    298.15    0.284986E-01    0.341481E+00    0.878213E-01    0.253659E+00
   ------------------------------------------------------------------------

         :::::::::::::::::::::::::::::::::::::::::::::::::::::
         ::                  THERMODYNAMIC                  ::
         :::::::::::::::::::::::::::::::::::::::::::::::::::::
         :: total free energy         -64.798285051116 Eh   ::
         ::.................................................::
         :: total energy              -65.051944447777 Eh   ::
         :: zero point energy           0.312982067485 Eh   ::
         :: G(RRHO) w/o ZPVE           -0.059322670824 Eh   ::
         :: G(RRHO) contrib.            0.253659396661 Eh   ::
         :::::::::::::::::::::::::::::::::::::::::::::::::::::

optimized geometry written to: xtbopt.coord


           -------------------------------------------------
          | TOTAL ENERGY              -65.051944447777 Eh   |
          | TOTAL ENTHALPY            -64.710463759992 Eh   |
          | TOTAL FREE ENERGY         -64.798285051116 Eh   |
          | GRADIENT NORM               0.000066328183 Eh/α |
          | HOMO-LUMO GAP               3.122179740229 eV   |
           -------------------------------------------------

------------------------------------------------------------------------
 * finished run on 2025/04/09 at 14:01:08.561     
------------------------------------------------------------------------
 total:
 * wall-time:     0 d,  0 h,  0 min, 19.234 sec
 *  cpu-time:     0 d,  0 h,  0 min, 18.907 sec
 * ratio c/w:     0.983 speedup
 SCF:
 * wall-time:     0 d,  0 h,  0 min,  0.087 sec
 *  cpu-time:     0 d,  0 h,  0 min,  0.051 sec
 * ratio c/w:     0.582 speedup
 analytical hessian:
 * wall-time:     0 d,  0 h,  0 min, 10.666 sec
 *  cpu-time:     0 d,  0 h,  0 min, 10.620 sec
 * ratio c/w:     0.996 speedup

