      -----------------------------------------------------------      
     |                   =====================                   |     
     |                           x T B                           |     
     |                   =====================                   |     
     |                         S. Grimme                         |     
     |          Mulliken Center for Theoretical Chemistry        |     
     |                    University of Bonn                     |     
      -----------------------------------------------------------      

   * xtb version 6.7.1 (edcfbbe) compiled by 'albert@albert-system' on 2024-07-22

   xtb is free software: you can redistribute it and/or modify it under
   the terms of the GNU Lesser General Public License as published by
   the Free Software Foundation, either version 3 of the License, or
   (at your option) any later version.
   
   xtb is distributed in the hope that it will be useful,
   but WITHOUT ANY WARRANTY; without even the implied warranty of
   MERCHANTABILITY or FITNESS FOR A PARTICULAR PURPOSE.  See the
   GNU Lesser General Public License for more details.
   
   Cite this work as:
   * C. Bannwarth, E. Caldeweyher, S. Ehlert, A. Hansen, P. Pracht,
     J. Seibert, S. Spicher, S. Grimme, WIREs Comput. Mol. Sci., 2020, 11,
     e01493. DOI: 10.1002/wcms.1493
   
   for GFN2-xTB:
   * C. Bannwarth, S. Ehlert and S. Grimme., J. Chem. Theory Comput., 2019,
     15, 1652-1671. DOI: 10.1021/acs.jctc.8b01176
   for GFN1-xTB:
   * S. Grimme, C. Bannwarth, P. Shushkov, J. Chem. Theory Comput., 2017,
     13, 1989-2009. DOI: 10.1021/acs.jctc.7b00118
   for GFN0-xTB:
   * P. Pracht, E. Caldeweyher, S. Ehlert, S. Grimme, ChemRxiv, 2019, preprint.
     DOI: 10.26434/chemrxiv.8326202.v1
   for GFN-FF:
   * S. Spicher and S. Grimme, Angew. Chem. Int. Ed., 2020, 59, 15665-15673.
     DOI: 10.1002/anie.202004239
   
   for ALPB and GBSA implicit solvation:
   * S. Ehlert, M. Stahn, S. Spicher, S. Grimme, J. Chem. Theory Comput.,
     2021, 17, 4250-4261. DOI: 10.1021/acs.jctc.1c00471
   
   for ddCOSMO and CPCM-X implicit solvation:
   * M. Stahn, S. Ehlert, S. Grimme, J. Phys. Chem. A,
     2023, XX, XXXX-XXXX. DOI: 10.1021/acs.jpca.3c04382
   
   for DFT-D4:
   * E. Caldeweyher, C. Bannwarth and S. Grimme, J. Chem. Phys., 2017,
     147, 034112. DOI: 10.1063/1.4993215
   * E. Caldeweyher, S. Ehlert, A. Hansen, H. Neugebauer, S. Spicher,
     C. Bannwarth and S. Grimme, J. Chem. Phys., 2019, 150, 154122.
     DOI: 10.1063/1.5090222
   * E. Caldeweyher, J.-M. Mewes, S. Ehlert and S. Grimme, Phys. Chem. Chem. Phys.
     2020, 22, 8499-8512. DOI: 10.1039/D0CP00502A
   
   for sTDA-xTB:
   * S. Grimme and C. Bannwarth, J. Chem. Phys., 2016, 145, 054103.
     DOI: 10.1063/1.4959605
   
   in the mass-spec context:
   * V. Asgeirsson, C. Bauer and S. Grimme, Chem. Sci., 2017, 8, 4879.
     DOI: 10.1039/c7sc00601b
   * J. Koopman and S. Grimme, ACS Omega 2019, 4, 12, 15120-15133.
     DOI: 10.1021/acsomega.9b02011
   
   for metadynamics refer to:
   * S. Grimme, J. Chem. Theory Comput., 2019, 155, 2847-2862
     DOI: 10.1021/acs.jctc.9b00143
   
   for SPH calculations refer to:
   * S. Spicher and S. Grimme, J. Chem. Theory Comput., 2021, 17, 1701-1714
     DOI: 10.1021/acs.jctc.0c01306
   
   for ONIOM refer to:
   * C. Plett, A. Katbashev, S. Ehlert, S. Grimme, M. Bursch,
     Phys. Chem. Chem. Phys., 2023, 25, 17860-17868. DOI: 10.1039/D3CP02178E
   
   for DIPRO refer to:
   * J. Kohn, N. Gildemeister, S. Grimme, D. Fazzi, A. Hansen,
     J. Chem. Phys., 2023, just accepted.
   
   for PTB refer to:
   * S. Grimme, M. Mueller, A. Hansen, J. Chem. Phys., 2023, 158, 124111.
     DOI: 10.1063/5.0137838
   
   with help from (in alphabetical order)
   P. Atkinson, C. Bannwarth, F. Bohle, G. Brandenburg, E. Caldeweyher
   M. Checinski, S. Dohm, S. Ehlert, S. Ehrlich, I. Gerasimov, C. Hölzer
   A. Katbashev, J. Kohn, J. Koopman, C. Lavigne, S. Lehtola, F. März, M. Müller,
   F. Musil, H. Neugebauer, J. Pisarek, C. Plett, P. Pracht, F. Pultar,
   J. Seibert, P. Shushkov, S. Spicher, M. Stahn, M. Steiner, T. Strunk,
   J. Stückrath, T. Rose, and J. Unsleber
   
 * started run on 2025/04/09 at 05:21:31.569     
   ID    Z sym.   atoms
    1    6 C      1, 2, 7, 8, 10, 15, 16, 18, 19
    2    8 O      3, 6, 14, 17
    3   15 P      4, 12
    4   16 S      5, 9, 11, 13
    5    1 H      20-41

           -------------------------------------------------
          |                Calculation Setup                |
           -------------------------------------------------

          program call               : /srv/scratch/z5358697/.xtb/bin/xtb solv.coord --gfn2 --sp --chrg 0 --norestart --parallel 1 --alpb water reference -I xtb_sp-xcontrol-inp
          hostname                   : k163
          coordinate file            : solv.coord
          omp threads                :                     1


           -------------------------------------------------
          |                 G F N 2 - x T B                 |
           -------------------------------------------------

        Reference                      10.1021/acs.jctc.8b01176
      * Hamiltonian:
        H0-scaling (s, p, d)           1.850000    2.230000    2.230000
        zeta-weighting                 0.500000
      * Dispersion:
        s8                             2.700000
        a1                             0.520000
        a2                             5.000000
        s9                             5.000000
      * Repulsion:
        kExp                           1.500000    1.000000
        rExp                           1.000000
      * Coulomb:
        alpha                          2.000000
        third order                    shell-resolved
        anisotropic                    true
        a3                             3.000000
        a5                             4.000000
        cn-shift                       1.200000
        cn-exp                         4.000000
        max-rad                        5.000000

      * Solvation model:               ALPB
        Solvent                        water
        Parameter file                 internal GFN2-xTB/ALPB
        Dielectric constant                8.0200E+01
        Reference state                gsolv=reference [X=1]
        Free energy shift                  2.8945E-03 Eh       1.8164E+00 kcal/mol
        Temperature                        2.9815E+02 K
        Density                            1.0000E+00 kg/L
        Solvent mass                       1.8000E+01 g/mol
        Interaction kernel             P16
        Born radius scaling (c1)           1.4744E+00
        Born radii integrator          GBOBC
        Born offset                        0.0000E+00 a0       0.0000E+00 AA
        H-bond correction              true
        Ion screening                  false
        Surface tension                    1.0000E-05 Eh       1.5569E+01 dyn/cm
        Grid points                               974 per atom

          ...................................................
          :                      SETUP                      :
          :.................................................:
          :  # basis functions                 134          :
          :  # atomic orbitals                 128          :
          :  # shells                           66          :
          :  # electrons                       116          :
          :  max. iterations                   250          :
          :  Hamiltonian                  GFN2-xTB          :
          :  restarted?                      false          :
          :  GBSA solvation                   true          :
          :  PC potential                    false          :
          :  electronic temp.          300.0000000     K    :
          :  accuracy                    1.0000000          :
          :  -> integral cutoff          0.2500000E+02      :
          :  -> integral neglect         0.1000000E-07      :
          :  -> SCF convergence          0.1000000E-05 Eh   :
          :  -> wf. convergence          0.1000000E-03 e    :
          :  Broyden damping             0.4000000          :
          :  net charge                          0          :
          :  unpaired electrons                  0          :
          ...................................................

 iter      E             dE          RMSdq      gap      omega  full diag
   1    -65.4398992 -0.654399E+02  0.642E+00    4.37       0.0  T
   2    -65.5600391 -0.120140E+00  0.362E+00    3.58       1.0  T
   3    -65.5790416 -0.190025E-01  0.111E+00    3.17       1.0  T
   4    -65.5818830 -0.284136E-02  0.478E-01    3.13       1.0  T
   5    -65.5825797 -0.696671E-03  0.256E-01    3.18       1.0  T
   6    -65.5827725 -0.192850E-03  0.109E-01    3.18       1.0  T
   7    -65.5828158 -0.432762E-04  0.391E-02    3.20       1.0  T
   8    -65.5828199 -0.411151E-05  0.169E-02    3.20       1.0  T
   9    -65.5828207 -0.810179E-06  0.571E-03    3.20       2.7  T
  10    -65.5828207 -0.220528E-07  0.227E-03    3.20       6.9  T
  11    -65.5828208 -0.300582E-07  0.759E-04    3.20      20.6  T
  12    -65.5828208 -0.105170E-08  0.384E-04    3.20      40.7  T

   *** convergence criteria satisfied after 12 iterations ***

         #    Occupation            Energy/Eh            Energy/eV
      -------------------------------------------------------------
         1        2.0000           -0.7675144             -20.8851
       ...           ...                  ...                  ...
        52        2.0000           -0.4445764             -12.0975
        53        2.0000           -0.4204732             -11.4417
        54        2.0000           -0.4128312             -11.2337
        55        2.0000           -0.4007583             -10.9052
        56        2.0000           -0.3992567             -10.8643
        57        2.0000           -0.3915688             -10.6551
        58        2.0000           -0.3885820             -10.5739 (HOMO)
        59                         -0.2710874              -7.3767 (LUMO)
        60                         -0.2614496              -7.1144
        61                         -0.2244862              -6.1086
        62                         -0.1968217              -5.3558
        63                         -0.1788298              -4.8662
       ...                                ...                  ...
       128                          1.3099171              35.6447
      -------------------------------------------------------------
                  HL-Gap            0.1174946 Eh            3.1972 eV
             Fermi-level           -0.3298347 Eh           -8.9753 eV

 SCC (total)                   0 d,  0 h,  0 min,  0.051 sec
 SCC setup                      ...        0 min,  0.002 sec (  4.746%)
 Dispersion                     ...        0 min,  0.000 sec (  0.569%)
 classical contributions        ...        0 min,  0.000 sec (  0.112%)
 integral evaluation            ...        0 min,  0.008 sec ( 15.133%)
 iterations                     ...        0 min,  0.019 sec ( 38.081%)
 molecular gradient             ...        0 min,  0.021 sec ( 40.934%)
 printout                       ...        0 min,  0.000 sec (  0.402%)

         :::::::::::::::::::::::::::::::::::::::::::::::::::::
         ::                     SUMMARY                     ::
         :::::::::::::::::::::::::::::::::::::::::::::::::::::
         :: total energy             -65.022211146066 Eh    ::
         :: total w/o Gsasa/hb       -65.024941946664 Eh    ::
         :: gradient norm              0.000183177978 Eh/a0 ::
         :: HOMO-LUMO gap              3.197190525034 eV    ::
         ::.................................................::
         :: SCC energy               -65.581957536387 Eh    ::
         :: -> isotropic ES            0.125536428138 Eh    ::
         :: -> anisotropic ES         -0.017797003276 Eh    ::
         :: -> anisotropic XC          0.029660645238 Eh    ::
         :: -> dispersion             -0.053442782028 Eh    ::
         :: -> Gsolv                  -0.020816306240 Eh    ::
         ::    -> Gelec               -0.023547106838 Eh    ::
         ::    -> Gsasa                0.003971883284 Eh    ::
         ::    -> Ghb                 -0.004135631846 Eh    ::
         ::    -> Gshift               0.002894549160 Eh    ::
         :: repulsion energy           0.559746390321 Eh    ::
         :: add. restraining           0.000000000000 Eh    ::
         :: total charge               0.000000000000 e     ::
         :::::::::::::::::::::::::::::::::::::::::::::::::::::

           -------------------------------------------------
          |                Property Printout                |
           -------------------------------------------------

    * Orbital Energies and Occupations

         #    Occupation            Energy/Eh            Energy/eV
      -------------------------------------------------------------
         1        2.0000           -0.7675144             -20.8851
       ...           ...                  ...                  ...
        46        2.0000           -0.4692319             -12.7685
        47        2.0000           -0.4626327             -12.5889
        48        2.0000           -0.4575639             -12.4509
        49        2.0000           -0.4565325             -12.4229
        50        2.0000           -0.4552843             -12.3889
        51        2.0000           -0.4469351             -12.1617
        52        2.0000           -0.4445764             -12.0975
        53        2.0000           -0.4204732             -11.4417
        54        2.0000           -0.4128312             -11.2337
        55        2.0000           -0.4007583             -10.9052
        56        2.0000           -0.3992567             -10.8643
        57        2.0000           -0.3915688             -10.6551
        58        2.0000           -0.3885820             -10.5739 (HOMO)
        59                         -0.2710874              -7.3767 (LUMO)
        60                         -0.2614496              -7.1144
        61                         -0.2244862              -6.1086
        62                         -0.1968217              -5.3558
        63                         -0.1788298              -4.8662
        64                         -0.1758713              -4.7857
        65                         -0.1657544              -4.5104
        66                         -0.1612672              -4.3883
        67                         -0.1319171              -3.5896
        68                         -0.1278029              -3.4777
        69                         -0.0489308              -1.3315
       ...                                ...                  ...
       128                          1.3099171              35.6447
      -------------------------------------------------------------
                  HL-Gap            0.1174946 Eh            3.1972 eV
             Fermi-level           -0.3298347 Eh           -8.9753 eV

     #   Z          covCN         q      C6AA      α(0)
     1   6 C        3.752    -0.133    23.113     6.856
     2   6 C        3.871     0.086    19.118     6.217
     3   8 O        1.655    -0.265    18.405     5.791
     4  15 P        3.872     0.356   145.366    21.658
     5  16 S        0.926    -0.462   159.576    21.366
     6   8 O        1.655    -0.251    18.183     5.756
     7   6 C        3.869     0.088    19.088     6.213
     8   6 C        3.751    -0.124    22.937     6.830
     9  16 S        1.982    -0.139   146.918    20.401
    10   6 C        3.801     0.031    20.061     6.377
    11  16 S        1.984    -0.120   146.104    20.344
    12  15 P        3.817     0.380   144.455    21.590
    13  16 S        0.931    -0.489   160.869    21.453
    14   8 O        1.655    -0.256    18.264     5.769
    15   6 C        3.852     0.082    19.194     6.231
    16   6 C        3.751    -0.132    23.103     6.855
    17   8 O        1.655    -0.260    18.326     5.779
    18   6 C        3.836     0.075    19.298     6.250
    19   6 C        3.751    -0.117    22.808     6.811
    20   1 H        0.925     0.070     2.081     2.256
    21   1 H        0.925     0.075     2.036     2.231
    22   1 H        0.925     0.084     1.934     2.175
    23   1 H        0.924     0.059     2.213     2.326
    24   1 H        0.924     0.058     2.226     2.333
    25   1 H        0.924     0.058     2.218     2.329
    26   1 H        0.924     0.087     1.907     2.159
    27   1 H        0.925     0.086     1.922     2.168
    28   1 H        0.925     0.072     2.059     2.244
    29   1 H        0.925     0.056     2.250     2.346
    30   1 H        0.926     0.134     1.503     1.917
    31   1 H        0.924     0.089     1.891     2.150
    32   1 H        0.924     0.071     2.079     2.255
    33   1 H        0.924     0.059     2.208     2.324
    34   1 H        0.925     0.077     2.015     2.220
    35   1 H        0.925     0.085     1.931     2.173
    36   1 H        0.925     0.067     2.123     2.279
    37   1 H        0.924     0.094     1.837     2.120
    38   1 H        0.924     0.076     2.026     2.226
    39   1 H        0.925     0.053     2.278     2.360
    40   1 H        0.925     0.058     2.219     2.330
    41   1 H        0.925     0.085     1.931     2.173

 Mol. C6AA /au·bohr⁶  :      26408.270716
 Mol. C8AA /au·bohr⁸  :     862810.652277
 Mol. α(0) /au        :        257.641378


Wiberg/Mayer (AO) data.
largest (>0.10) Wiberg bond orders for each atom

 ---------------------------------------------------------------------------
     #   Z sym  total        # sym  WBO       # sym  WBO       # sym  WBO
 ---------------------------------------------------------------------------
     1   6 C    3.982 --     2 C    1.017    20 H    0.983    21 H    0.982
                            22 H    0.976
     2   6 C    3.894 --     1 C    1.017    23 H    0.970    24 H    0.967
                             3 O    0.889
     3   8 O    2.394 --     4 P    1.306     2 C    0.889
     4  15 P    5.313 --     5 S    1.504     6 O    1.340     3 O    1.306
                             9 S    0.998
     5  16 S    1.856 --     4 P    1.504     9 S    0.135
     6   8 O    2.409 --     4 P    1.340     7 C    0.873
     7   6 C    3.884 --     8 C    1.023    25 H    0.967    26 H    0.966
                             6 O    0.873
     8   6 C    3.987 --     7 C    1.023    28 H    0.982    27 H    0.975
                            29 H    0.975
     9  16 S    2.293 --     4 P    0.998    10 C    0.982     5 S    0.135
    10   6 C    3.944 --    11 S    0.986     9 S    0.982    30 H    0.954
                            31 H    0.942
    11  16 S    2.284 --    12 P    0.992    10 C    0.986    13 S    0.137
    12  15 P    5.290 --    13 S    1.480    14 O    1.341    17 O    1.334
                            11 S    0.992
    13  16 S    1.829 --    12 P    1.480    11 S    0.137
    14   8 O    2.413 --    12 P    1.341    15 C    0.883
    15   6 C    3.887 --    16 C    1.018    32 H    0.972    33 H    0.963
                            14 O    0.883
    16   6 C    3.982 --    15 C    1.018    36 H    0.984    34 H    0.982
                            35 H    0.975
    17   8 O    2.397 --    12 P    1.334    18 C    0.866
    18   6 C    3.883 --    19 C    1.024    38 H    0.970    37 H    0.964
                            17 O    0.866
    19   6 C    3.989 --    18 C    1.024    40 H    0.982    41 H    0.975
                            39 H    0.975
    20   1 H    0.995 --     1 C    0.983
    21   1 H    0.994 --     1 C    0.982
    22   1 H    0.991 --     1 C    0.976
    23   1 H    0.996 --     2 C    0.970
    24   1 H    0.997 --     2 C    0.967
    25   1 H    0.997 --     7 C    0.967
    26   1 H    0.992 --     7 C    0.966
    27   1 H    0.992 --     8 C    0.975
    28   1 H    0.995 --     8 C    0.982
    29   1 H    0.997 --     8 C    0.975
    30   1 H    0.982 --    10 C    0.954
    31   1 H    0.992 --    10 C    0.942
    32   1 H    0.995 --    15 C    0.972
    33   1 H    0.996 --    15 C    0.963
    34   1 H    0.994 --    16 C    0.982
    35   1 H    0.992 --    16 C    0.975
    36   1 H    0.996 --    16 C    0.984
    37   1 H    0.991 --    18 C    0.964
    38   1 H    0.994 --    18 C    0.970
    39   1 H    0.997 --    19 C    0.975
    40   1 H    0.997 --    19 C    0.982
    41   1 H    0.992 --    19 C    0.975
 ---------------------------------------------------------------------------

Topologies differ in total number of bonds
Writing topology from bond orders to xtbtopo.mol

molecular dipole:
                 x           y           z       tot (Debye)
 q only:       -0.440       0.338      -0.726
   full:       -0.351       0.523      -0.636       2.276
molecular quadrupole (traceless):
                xx          xy          yy          xz          yz          zz
 q only:       29.461      -3.501     -15.022     -11.861       8.692     -14.438
  q+dip:       29.414      -4.366     -17.659      -8.303       7.103     -11.755
   full:       29.679      -4.371     -17.228      -9.369       7.871     -12.451


           -------------------------------------------------
          | TOTAL ENERGY              -65.022211146066 Eh   |
          | GRADIENT NORM               0.000183177978 Eh/α |
          | HOMO-LUMO GAP               3.197190525034 eV   |
           -------------------------------------------------

------------------------------------------------------------------------
 * finished run on 2025/04/09 at 05:21:31.678     
------------------------------------------------------------------------
 total:
 * wall-time:     0 d,  0 h,  0 min,  0.109 sec
 *  cpu-time:     0 d,  0 h,  0 min,  0.064 sec
 * ratio c/w:     0.593 speedup
 SCF:
 * wall-time:     0 d,  0 h,  0 min,  0.051 sec
 *  cpu-time:     0 d,  0 h,  0 min,  0.051 sec
 * ratio c/w:     0.993 speedup

