41
 energy: -65.032739975467 gnorm: 0.054547813062 xtb: 6.7.1 (edcfbbe)
C            5.29637481899738       -2.39000837309960       -1.69184825042633
C            4.29754950170470       -1.26270270950792       -1.76388742975910
O            3.34969366593339       -1.46043770258618       -0.66212187650863
P            2.43150696686317       -0.27121967941353       -0.08671446285109
S            3.29596111348623        1.42842557903063        0.30877360677210
O            1.72992977483221       -1.03304681800888        1.13657758794161
C            2.15050839094382       -0.85108137015707        2.53063008338800
C            3.43488929417414       -1.58621821976667        2.82718866015693
S            0.87987789886151       -0.20789598767712       -1.53106467284676
C            0.03996404585100        1.34661396886678       -1.03283141056374
S           -0.84931127255371        1.34675687504358        0.57041771928904
P           -2.72888953848654        0.45462396045736        0.09649929215690
S           -3.23479596038442        0.59702594987034       -1.77831237277216
O           -3.69745826121688        1.12886066547783        1.18742753016855
C           -4.27801589596950        2.46098637676576        0.96919737451094
C           -5.74732435361189        2.32682338115318        0.65000932228503
O           -2.74459695978941       -0.99819293458940        0.77910864773165
C           -1.72882085656985       -2.02364718969207        0.50606478643053
C           -1.98927950880765       -2.76085776538209       -0.78591123011300
H            5.84776937419665       -2.35979452957530       -0.74729944123399
H            4.79781623292979       -3.35943406977482       -1.78460775488930
H            6.00997316791366       -2.28760137353350       -2.51530531205692
H            3.73298763899030       -1.27830746779687       -2.70180243223422
H            4.77912731577221       -0.28672230055605       -1.64639101555368
H            2.23643421468647        0.22180694252882        2.72840377327806
H            1.31323703260009       -1.25284443967227        3.10430821797661
H            3.34664099989047       -2.64784873207627        2.57839362729163
H            4.27954528830292       -1.15804533892029        2.27958366143779
H            3.64442874277815       -1.49858179973488        3.89809191512068
H           -0.67429824278354        1.57026117065423       -1.83314821892884
H            0.77885861986430        2.15127752643284       -0.97022659214874
H           -4.11425829822906        2.99566153280879        1.90803078739363
H           -3.73390960940683        2.97508566952906        0.17055665066860
H           -6.27562712994348        1.80395781362803        1.45287524249641
H           -6.17795566524905        3.32874819658233        0.54874303801655
H           -5.89755678350671        1.78694916264377       -0.28930453111151
H           -0.74065767560344       -1.55099232745955        0.52025704508361
H           -1.80537190250528       -2.69255035741680        1.36667997849684
H           -1.81600867638689       -2.12716425504763       -1.65907599020847
H           -1.30408237260591       -3.61427898919239       -0.83722227514466
H           -3.01641690859169       -3.13956206724987       -0.81693125519001
41
 energy: -65.036764010638 gnorm: 0.029703613933 xtb: 6.7.1 (edcfbbe)
C            5.29523156160791       -2.38452196524339       -1.69044627103964
C            4.28654574701032       -1.25956347993646       -1.74845187927987
O            3.34516465040487       -1.45260263889121       -0.65498287527854
P            2.41453579687731       -0.27674244719096       -0.09054191372833
S            3.30062422142543        1.42606202151973        0.31352162153812
O            1.72122582924875       -1.02944891032932        1.13490907980586
C            2.14601155100302       -0.84794646898917        2.51626371849918
C            3.43027475338778       -1.58251085381590        2.81950366255714
S            0.82612142816673       -0.23249907993653       -1.48936262452802
C            0.03023230336117        1.34375898219390       -1.03042985106043
S           -0.78855200566932        1.30007029036758        0.59975873111931
P           -2.69647786965623        0.46516604180224        0.09987998084411
S           -3.22319861521297        0.61235869915865       -1.78430631959022
O           -3.67798375339050        1.12794354642517        1.17451857446914
C           -4.26603489902955        2.44472496231131        0.96127562482844
C           -5.73957969448124        2.32433226439813        0.64428233829320
O           -2.72557979002290       -0.98446157255860        0.77231118601364
C           -1.73145665951989       -2.01386574632378        0.50798721713957
C           -1.98784384012544       -2.75387247190193       -0.78475158414094
H            5.84191679665067       -2.35782650351493       -0.75016247442785
H            4.79408919714880       -3.34622189874234       -1.77786365855095
H            6.00160620856877       -2.27927961975349       -2.51177394436295
H            3.72030877739047       -1.27570200408585       -2.68345099506391
H            4.76172068056328       -0.28135840582216       -1.62937768025562
H            2.24451054230637        0.22483397538638        2.70701516053425
H            1.30930805313425       -1.24763067500094        3.09150733235688
H            3.33890495070248       -2.63614606183696        2.56269359334333
H            4.26109808158477       -1.15253228079582        2.26040351427543
H            3.64469225456695       -1.49473517422517        3.88401773626718
H           -0.70034945673043        1.55490950994586       -1.81485248466591
H            0.78567500670594        2.12808576165451       -0.96406185270608
H           -4.10291214151874        2.97638463499385        1.90128159281419
H           -3.72682184677911        2.95462711317536        0.15805966333527
H           -6.25742080623713        1.79628171774679        1.44244650893832
H           -6.16803447828998        3.32061874870054        0.54458010202364
H           -5.88633749032499        1.78343115848447       -0.28912927294153
H           -0.73897325983261       -1.55298605940058        0.51758785018905
H           -1.82407941367348       -2.67905859639638        1.36907001584842
H           -1.81927803248170       -2.11366011310198       -1.64932203299772
H           -1.30786818504087       -3.60271769201709       -0.84228043329456
H           -3.01257792642809       -3.12087073486731       -0.81351463357007
41
 energy: -65.038518987849 gnorm: 0.012142012567 xtb: 6.7.1 (edcfbbe)
C            5.28405794217350       -2.37411779037907       -1.68320431272445
C            4.26631271340816       -1.25049276445754       -1.73104923873856
O            3.33129616825835       -1.44273693114181       -0.64687657472034
P            2.38561343199224       -0.28600189439681       -0.09162625791790
S            3.27328441152358        1.42411715045137        0.29604556917616
O            1.70528114528021       -1.02617156070752        1.13849448774525
C            2.13596394880570       -0.84241625430613        2.50453095808853
C            3.42369000373830       -1.57842683942599        2.80274932888215
S            0.80425335117300       -0.25915157752236       -1.49638406809563
C            0.04190698439685        1.31813848759480       -1.01514262104895
S           -0.75177211175626        1.27901689921565        0.61800481676537
P           -2.66704145074495        0.46644201865835        0.11315418747985
S           -3.16422982794200        0.65250557400328       -1.77920745782592
O           -3.66115645927270        1.12410206131779        1.16355172190300
C           -4.24642131615560        2.42913751961578        0.95372833652414
C           -5.72437219202951        2.31279646943379        0.63788326123985
O           -2.71192463867242       -0.97967216459283        0.76980822977373
C           -1.73706992752813       -2.00954921962755        0.51812006871496
C           -1.98921747713979       -2.74333892090803       -0.78241719509396
H            5.82991190759432       -2.34920052961098       -0.74658833563754
H            4.78152769264652       -3.33104759293088       -1.76893326062747
H            5.98204005553013       -2.26148917023553       -2.50475232893177
H            3.70423416728306       -1.26684808353906       -2.66757701627098
H            4.74039359974680       -0.27171382132831       -1.61079895147869
H            2.24854321462080        0.23033931486618        2.68881346784970
H            1.30284808367261       -1.23662119505668        3.08807590961164
H            3.32840611457039       -2.62667637667720        2.54007526224154
H            4.24130283646338       -1.14518937899955        2.23072315550921
H            3.64627881653891       -1.48970662185235        3.86090007578967
H           -0.70775456283051        1.52721884135510       -1.77876660451445
H            0.80401711745846        2.09295248906350       -0.96124618421963
H           -4.08608170951812        2.96287652797807        1.89258225215765
H           -3.71576957564921        2.93773625818079        0.14428440731422
H           -6.23495907374155        1.78069303320215        1.43308681225581
H           -6.14810293897202        3.30589443561530        0.54035558702351
H           -5.86789975349382        1.77251746677012       -0.29317067948071
H           -0.73684666132250       -1.56608511017430        0.52910331392522
H           -1.84654902792593       -2.67671897653673        1.37504138835202
H           -1.82192818141903       -2.08993336752891       -1.63519995967297
H           -1.31089923321982       -3.58635859886013       -0.84878522698306
H           -3.01272936017054       -3.10199183293949       -0.81357430078967
41
 energy: -65.039035699508 gnorm: 0.007040307387 xtb: 6.7.1 (edcfbbe)
C            5.27477421635040       -2.36761292139547       -1.67607775593700
C            4.25395970624570       -1.24512660670191       -1.72103540549348
O            3.32668716196948       -1.44439233698791       -0.63827507016480
P            2.37237802319149       -0.29840537023970       -0.09121392028582
S            3.23773200176206        1.42600649158396        0.27718449996529
O            1.69140569718221       -1.02611827033871        1.13926428863672
C            2.12464341688402       -0.83674972638246        2.49874763162676
C            3.41637053306672       -1.57484541232207        2.78569004403945
S            0.78927352882902       -0.27323028951311       -1.49040275313775
C            0.03797088414464        1.30394334577473       -1.00150594855756
S           -0.72886689375317        1.26805061717708        0.64240614838136
P           -2.64522144432975        0.46714038688597        0.11728363155348
S           -3.12695699545575        0.67285304382941       -1.77670122987524
O           -3.64070011493523        1.12547001756495        1.15523645002725
C           -4.22590403691443        2.42517669018858        0.94630842535812
C           -5.70611148168410        2.29950866717132        0.63352148369087
O           -2.70151546041059       -0.97490416805698        0.76762743045149
C           -1.73999256848463       -2.01198513852166        0.52733414816509
C           -1.99123893334593       -2.73531012237674       -0.78202534692626
H            5.82294891205405       -2.34082566985982       -0.74009698552949
H            4.77178910197603       -3.32493476017078       -1.76217754189259
H            5.96778008816398       -2.24841583596884       -2.50074655650473
H            3.69392701902328       -1.25986270646201       -2.65943409339943
H            4.72842908047578       -0.26574248501468       -1.60032595737336
H            2.24466498214576        0.23604194515773        2.68121331271909
H            1.29642475943681       -1.22482604049401        3.09338518612212
H            3.31783302696151       -2.62298349225936        2.52174337692181
H            4.22741093045281       -1.13963658825949        2.20457943473782
H            3.64906591883259       -1.48577023127907        3.84120458557658
H           -0.72203526911274        1.52337663530562       -1.75288114165813
H            0.80958334513322        2.07057664791415       -0.96152542245104
H           -4.06707084432174        2.96590104840617        1.88139152693730
H           -3.70460993638558        2.93602033364677        0.13145601016239
H           -6.21259587880943        1.76376525836047        1.42966906656678
H           -6.13204214772409        3.29161558020319        0.53750637751230
H           -5.84735846530538        1.75946306020801       -0.29889577201676
H           -0.73101565796493       -1.58653426870337        0.54711810476821
H           -1.86302917065774       -2.68429106942386        1.37876108782785
H           -1.82126844462838       -2.06967534432140       -1.62598730102268
H           -1.31273011231677       -3.57721961812138       -0.85700929483292
H           -3.01635025037037       -3.09068332261709       -0.81850273113849
41
 energy: -65.039209281609 gnorm: 0.005375768712 xtb: 6.7.1 (edcfbbe)
C            5.26562112503392       -2.36101167516267       -1.67160779867121
C            4.24378367862937       -1.23978948401679       -1.71497573860185
O            3.31759715911502       -1.44314512745669       -0.63209400622934
P            2.36020969984369       -0.29997492385327       -0.09155184024236
S            3.22175012229104        1.42689115292752        0.27297814154660
O            1.67639011937798       -1.02043499088922        1.13899080021318
C            2.11705239507473       -0.83125499333381        2.49644249334572
C            3.41060605018000       -1.57171628997116        2.77245483962206
S            0.77926496299922       -0.28999313314254       -1.49534474063742
C            0.05127761958802        1.29716784307707       -0.99775659473957
S           -0.71629150294584        1.26267899982421        0.64330651952071
P           -2.63529134323314        0.46517552213583        0.12556943385169
S           -3.11100235210073        0.67785753866156       -1.76860991851677
O           -3.62864345804129        1.12739793403479        1.15790416618941
C           -4.21379226977935        2.42572674484091        0.94316876920597
C           -5.69357852252901        2.29057335344475        0.63119474097648
O           -2.69757173919253       -0.97520634450149        0.77259067752846
C           -1.74406010401834       -2.02035318656860        0.53526709660298
C           -1.99235259739639       -2.73144282875896       -0.78237749731813
H            5.81609900492101       -2.33306033684057       -0.73568671443158
H            4.76416679333080       -3.32035672122394       -1.75784511976190
H            5.95797948520251       -2.24033659479834       -2.49801477282003
H            3.68478545828865       -1.25182226529061       -2.65464463783224
H            4.71868400060287       -0.26016572767782       -1.59368905610110
H            2.23944645896619        0.24139998848938        2.67949455090732
H            1.29324589285181       -1.21585004183611        3.09955875003635
H            3.30831445086034       -2.62055772855603        2.50806881806853
H            4.21779264161193       -1.13633040394354        2.18461211903248
H            3.65395251972189       -1.48455509208839        3.82681783467863
H           -0.71236563330818        1.52857037418438       -1.74287855738323
H            0.82937276366681        2.05882860899562       -0.96438591517559
H           -4.05490687659392        2.97427786886660        1.87372938191802
H           -3.69597488661116        2.93518010549587        0.12456799296774
H           -6.19704006865207        1.75196202799091        1.42872320467494
H           -6.12600315654657        3.28112981226601        0.53426026054322
H           -5.83109057803201        1.74859133105262       -0.30189074738560
H           -0.72968577618730       -1.60687742681628        0.56674495196892
H           -1.87837557528178       -2.69811024283952        1.38108862015097
H           -1.81878494924079       -2.05622121838554       -1.61918043929527
H           -1.31349381286458       -3.57384288301208       -0.86536899742950
H           -3.01864897223208       -3.08617157173779       -0.82581904742707
41
 energy: -65.039300197961 gnorm: 0.003827723779 xtb: 6.7.1 (edcfbbe)
C            5.26127653919374       -2.35779936113199       -1.66966561859676
C            4.23869841977596       -1.23864200834853       -1.71094915211695
O            3.31335433274323       -1.44654268066616       -0.62599558702386
P            2.35383735142042       -0.30339157266846       -0.09058910328841
S            3.21359311625571        1.42514736859794        0.26911881173871
O            1.66545064276045       -1.01802665124905        1.14065988519115
C            2.11309669873753       -0.82849756466140        2.49769774958325
C            3.40738473680318       -1.56963090968955        2.76479837332947
S            0.77802332091054       -0.28726344900620       -1.49941089275789
C            0.05098480692511        1.29919282169050       -0.99866279410133
S           -0.71108340654320        1.26502425629152        0.64505631936591
P           -2.62882760899802        0.46385255947172        0.12930544927939
S           -3.10905401275099        0.67467442933709       -1.76367108982741
O           -3.61685141263812        1.13103456560599        1.16225547824449
C           -4.20532218779717        2.42838582729060        0.94048339004308
C           -5.68394487091247        2.28524818153546        0.63000789404707
O           -2.69336869623291       -0.97521446373171        0.77768259690960
C           -1.74632727159077       -2.02875869501614        0.53967174872564
C           -1.99234877047640       -2.72966591847773       -0.78334933861286
H            5.81325104660705       -2.32921032136333       -0.73405237881963
H            4.76168105707872       -3.31873028898069       -1.75541707837280
H            5.95369499628222       -2.23730749700562       -2.49694432865989
H            3.67773016354871       -1.24840681724806       -2.64975764650035
H            4.71167458728817       -0.25813416603620       -1.58808991722574
H            2.23468728556458        0.24449994226394        2.67950274822877
H            1.29217726221908       -1.21216043110062        3.10516951947452
H            3.30218103746536       -2.61883323320304        2.50073066537849
H            4.21171987779454       -1.13486459784899        2.17203963530868
H            3.65879477606665       -1.48403588955253        3.81809333588814
H           -0.71030064987867        1.53862291095032       -1.74363719547493
H            0.83360097130472        2.05662825026188       -0.96570241938859
H           -4.04572876510368        2.98313679510304        1.86729950036421
H           -3.68857601518527        2.93437853549133        0.11885337902125
H           -6.18428573663037        1.74482181514414        1.42889094001705
H           -6.12394617538103        3.27323810905616        0.53147742649620
H           -5.81881862480385        1.74077182932886       -0.30248357379448
H           -0.72922575237449       -1.62296420489756        0.58144938725827
H           -1.89179814089428       -2.70975156010785        1.38133821870418
H           -1.81537159400939       -2.04913667224228       -1.61527801506993
H           -1.31413280908692       -3.57299602987618       -0.87133574357285
H           -3.01914229808697       -3.08386523972434       -0.83277855584220
41
 energy: -65.039359244716 gnorm: 0.002623395658 xtb: 6.7.1 (edcfbbe)
C            5.25662105201473       -2.35511715041914       -1.66817873802915
C            4.23324001931610       -1.23818920902464       -1.70699256231691
O            3.30810731062662       -1.44937522305864       -0.61984777492156
P            2.34936421154709       -0.30332955250534       -0.08881918544469
S            3.21379006579985        1.42329166714818        0.27041149157363
O            1.65364381763312       -1.01276017318890        1.14219837858146
C            2.10960871994822       -0.82611068788289        2.49916727602794
C            3.40417216105481       -1.56758239493571        2.75705652448455
S            0.77647945075026       -0.28509885044749       -1.50047587021937
C            0.05247658307778        1.30355305280274       -1.00232031185600
S           -0.70701444946868        1.26827629594364        0.64220648207016
P           -2.62449391626377        0.46222257149005        0.13293883096623
S           -3.11192662932483        0.66767158330251       -1.75904568275013
O           -3.60523708391797        1.13527791291363        1.16950689881183
C           -4.19778188100131        2.43114833697187        0.93816336290138
C           -5.67466800101136        2.28016617022423        0.62890602420650
O           -2.68767352560705       -0.97530830263143        0.78521646747604
C           -1.74788976495209       -2.03744316973869        0.54351275138190
C           -1.99160825249911       -2.72730844706151       -0.78449194191070
H            5.81014504398507       -2.32635722934844       -0.73346366360882
H            4.75896328435324       -3.31710960684953       -1.75339374116765
H            5.94850874999004       -2.23453834774261       -2.49608230114441
H            3.66926386464378       -1.24583180036651       -2.64395602135082
H            4.70349946924381       -0.25685620313582       -1.58130003187471
H            2.23024866627659        0.24701119294894        2.68039752389176
H            1.29119324581138       -1.21094734676032        3.10890626417896
H            3.29636521666593       -2.61652392241272        2.49300137473633
H            4.20534502879945       -1.13332777901602        2.15997056391999
H            3.66280751631438       -1.48373709006087        3.80875979696694
H           -0.70636177837606        1.54605737404187       -1.74831055660967
H            0.83747027118631        2.05843768377261       -0.96768830276522
H           -4.03796680033781        2.99198227211718        1.86121179852441
H           -3.68049970475148        2.93120319517440        0.11330047210317
H           -6.17138671653485        1.73868368468589        1.42925097981221
H           -6.12176958196816        3.26485376489732        0.52818464071552
H           -5.80693765112449        1.73267781663606       -0.30212321590395
H           -0.72870114179132       -1.63935098542356        0.59591666666091
H           -1.90701972157975       -2.72149209339105        1.38018958691029
H           -1.81064883586542       -2.04233681257857       -1.61142031973547
H           -1.31477075629775       -3.57146592500190       -0.87631414655670
H           -3.01851932899467       -3.08018829850255       -0.84033776518548
41
 energy: -65.039378302646 gnorm: 0.001957597664 xtb: 6.7.1 (edcfbbe)
C            5.25405913446377       -2.35441909281149       -1.66733980741088
C            4.22986405868649       -1.23847536647260       -1.70421869175589
O            3.30479621906970       -1.45074729091915       -0.61648601536807
P            2.34692204818826       -0.30257767544769       -0.08752301361689
S            3.21542604682997        1.42238020020585        0.27203472318561
O            1.64751565771851       -1.00940116194999        1.14365328843953
C            2.10785651073305       -0.82550262969561        2.50005879098534
C            3.40290277658777       -1.56672214450227        2.75315039992548
S            0.77651622972841       -0.28335720606498       -1.50170334894057
C            0.05299349199173        1.30570608203042       -1.00506020188630
S           -0.70413569859693        1.27198042213533        0.64049898697141
P           -2.62129057280545        0.46204886166013        0.13509488959283
S           -3.11363156156971        0.66353215542768       -1.75625199890728
O           -3.59938522266380        1.13719642547829        1.17385819999096
C           -4.19432193491501        2.43142057034946        0.93691016388807
C           -5.67045754682383        2.27726456904547        0.62781906690910
O           -2.68267763063545       -0.97452344342039        0.79032080598947
C           -1.74789960547372       -2.04089438246650        0.54562111161967
C           -1.99047730175500       -2.72457092201270       -0.78523527035666
H            5.80848627540363       -2.32585725133803       -0.73348755205216
H            4.75697854815813       -3.31639849132742       -1.75239581131520
H            5.94462019954876       -2.23275555029725       -2.49581885900483
H            3.66460188665346       -1.24584167388309       -2.64014164208738
H            4.69882006883658       -0.25685027175983       -1.57724104087750
H            2.22834070473065        0.24739647340155        2.68207508303894
H            1.29079114354894       -1.21238464350875        3.11015822471679
H            3.29436465723193       -2.61512721755730        2.48846222847750
H            4.20165769579713       -1.13188529922495        2.15365745378576
H            3.66473590458979       -1.48352983527422        3.80372837743571
H           -0.70663655598987        1.54586714245664       -1.75077435055707
H            0.83757071737193        2.06082964272691       -0.97093362433608
H           -4.03563437344351        2.99502233141126        1.85829949397278
H           -3.67644529419699        2.92824738661228        0.11068547477536
H           -6.16517961253058        1.73570072170841        1.42895594959018
H           -6.11974276844249        3.26032844860363        0.52591910514770
H           -5.80154475207633        1.72810815190924       -0.30209013569875
H           -0.72744845817924       -1.64782848337136        0.60305000359878
H           -1.91507498733990       -2.72674384691637        1.37887646816944
H           -1.80657725801539       -2.03719199618428       -1.60916553153087
H           -1.31517233567095       -3.56941819787662       -0.87852234598513
H           -3.01764827737385       -3.07519753729345       -0.84468702496816
41
 energy: -65.039389298939 gnorm: 0.001179347156 xtb: 6.7.1 (edcfbbe)
C            5.25139885510439       -2.35490119619065       -1.66621250235075
C            4.22618704656479       -1.23940421811166       -1.70098473177412
O            3.30180034768576       -1.45211147064611       -0.61300516153994
P            2.34517313735088       -0.30145568870761       -0.08569123469395
S            3.21679788989637        1.42197553223011        0.27420540349497
O            1.64237759495789       -1.00606352790690        1.14559857699496
C            2.10584948886201       -0.82597322821995        2.50106534255266
C            3.40236719235884       -1.56621103064492        2.74935769640089
S            0.77661362010972       -0.28216302984375       -1.50108030568201
C            0.05295300913096        1.30812829401616       -1.00959053918597
S           -0.70156240219698        1.27739619852868        0.63715179684860
P           -2.61783066002925        0.46234519765322        0.13787133645530
S           -3.11407335355966        0.65993635696808       -1.75284270883352
O           -3.59505136845446        1.13822102216653        1.17860102851236
C           -4.19173364839644        2.43028712254910        0.93632330686782
C           -5.66745807420928        2.27365520048972        0.62611300904870
O           -2.67561343021328       -0.97294576937796        0.79707915110437
C           -1.74664887708007       -2.04271956813323        0.54854786779815
C           -1.98843181834565       -2.71920379773519       -0.78616717636429
H            5.80712388701689       -2.32671802737130       -0.73349086407398
H            4.75441164414724       -3.31657610793688       -1.75125939170806
H            5.93968055617385       -2.23124497224660       -2.49576194045408
H            3.66023705294773       -1.24727916535932       -2.63620436663683
H            4.69457126894682       -0.25773144132926       -1.57360605063381
H            2.22609008912451        0.24634732478180        2.68587023495149
H            1.29040274450248       -1.21630349118448        3.11114160753363
H            3.29424999006319       -2.61402320957370        2.48342725153721
H            4.19813119627535       -1.12952487683260        2.14755784961926
H            3.66706736891008       -1.48348188101194        3.79879931869327
H           -0.70932471576232        1.54253423106105       -1.75432620393316
H            0.83575768038331        2.06498636597803       -0.97851714004739
H           -4.03575556474414        2.99658792196847        1.85635596993064
H           -3.67333239318797        2.92478938257274        0.10928953504819
H           -6.16109137739449        1.73258224975410        1.42787042218428
H           -6.11727649595333        3.25569923255712        0.52271757907624
H           -5.79731107725842        1.72280793979851       -0.30269372971448
H           -0.72441698645636       -1.65595258878576        0.61054967223525
H           -1.92160541085327       -2.73138226823382        1.37726660336699
H           -1.79981147323290       -2.02894257890279       -1.60645330868121
H           -1.31594117144266       -3.56569806061710       -0.88096226769414
H           -3.01653313437158       -3.06544040458370       -0.85009891270277
41
 energy: -65.039394115607 gnorm: 0.000603413208 xtb: 6.7.1 (edcfbbe)
C            5.25054053849110       -2.35578925845385       -1.66571806134654
C            4.22532447765817       -1.23981916240955       -1.70039973187952
O            3.30118194713067       -1.45168278946950       -0.61261893823901
P            2.34469425215321       -0.30057870361535       -0.08517999440598
S            3.21632207915803        1.42263146268701        0.27480042069729
O            1.64250495642428       -1.00569699139241        1.14626765711933