      -----------------------------------------------------------      
     |                   =====================                   |     
     |                           x T B                           |     
     |                   =====================                   |     
     |                         S. Grimme                         |     
     |          Mulliken Center for Theoretical Chemistry        |     
     |                    University of Bonn                     |     
      -----------------------------------------------------------      

   * xtb version 6.7.1 (edcfbbe) compiled by 'albert@albert-system' on 2024-07-22

   xtb is free software: you can redistribute it and/or modify it under
   the terms of the GNU Lesser General Public License as published by
   the Free Software Foundation, either version 3 of the License, or
   (at your option) any later version.
   
   xtb is distributed in the hope that it will be useful,
   but WITHOUT ANY WARRANTY; without even the implied warranty of
   MERCHANTABILITY or FITNESS FOR A PARTICULAR PURPOSE.  See the
   GNU Lesser General Public License for more details.
   
   Cite this work as:
   * C. Bannwarth, E. Caldeweyher, S. Ehlert, A. Hansen, P. Pracht,
     J. Seibert, S. Spicher, S. Grimme, WIREs Comput. Mol. Sci., 2020, 11,
     e01493. DOI: 10.1002/wcms.1493
   
   for GFN2-xTB:
   * C. Bannwarth, S. Ehlert and S. Grimme., J. Chem. Theory Comput., 2019,
     15, 1652-1671. DOI: 10.1021/acs.jctc.8b01176
   for GFN1-xTB:
   * S. Grimme, C. Bannwarth, P. Shushkov, J. Chem. Theory Comput., 2017,
     13, 1989-2009. DOI: 10.1021/acs.jctc.7b00118
   for GFN0-xTB:
   * P. Pracht, E. Caldeweyher, S. Ehlert, S. Grimme, ChemRxiv, 2019, preprint.
     DOI: 10.26434/chemrxiv.8326202.v1
   for GFN-FF:
   * S. Spicher and S. Grimme, Angew. Chem. Int. Ed., 2020, 59, 15665-15673.
     DOI: 10.1002/anie.202004239
   
   for ALPB and GBSA implicit solvation:
   * S. Ehlert, M. Stahn, S. Spicher, S. Grimme, J. Chem. Theory Comput.,
     2021, 17, 4250-4261. DOI: 10.1021/acs.jctc.1c00471
   
   for ddCOSMO and CPCM-X implicit solvation:
   * M. Stahn, S. Ehlert, S. Grimme, J. Phys. Chem. A,
     2023, XX, XXXX-XXXX. DOI: 10.1021/acs.jpca.3c04382
   
   for DFT-D4:
   * E. Caldeweyher, C. Bannwarth and S. Grimme, J. Chem. Phys., 2017,
     147, 034112. DOI: 10.1063/1.4993215
   * E. Caldeweyher, S. Ehlert, A. Hansen, H. Neugebauer, S. Spicher,
     C. Bannwarth and S. Grimme, J. Chem. Phys., 2019, 150, 154122.
     DOI: 10.1063/1.5090222
   * E. Caldeweyher, J.-M. Mewes, S. Ehlert and S. Grimme, Phys. Chem. Chem. Phys.
     2020, 22, 8499-8512. DOI: 10.1039/D0CP00502A
   
   for sTDA-xTB:
   * S. Grimme and C. Bannwarth, J. Chem. Phys., 2016, 145, 054103.
     DOI: 10.1063/1.4959605
   
   in the mass-spec context:
   * V. Asgeirsson, C. Bauer and S. Grimme, Chem. Sci., 2017, 8, 4879.
     DOI: 10.1039/c7sc00601b
   * J. Koopman and S. Grimme, ACS Omega 2019, 4, 12, 15120-15133.
     DOI: 10.1021/acsomega.9b02011
   
   for metadynamics refer to:
   * S. Grimme, J. Chem. Theory Comput., 2019, 155, 2847-2862
     DOI: 10.1021/acs.jctc.9b00143
   
   for SPH calculations refer to:
   * S. Spicher and S. Grimme, J. Chem. Theory Comput., 2021, 17, 1701-1714
     DOI: 10.1021/acs.jctc.0c01306
   
   for ONIOM refer to:
   * C. Plett, A. Katbashev, S. Ehlert, S. Grimme, M. Bursch,
     Phys. Chem. Chem. Phys., 2023, 25, 17860-17868. DOI: 10.1039/D3CP02178E
   
   for DIPRO refer to:
   * J. Kohn, N. Gildemeister, S. Grimme, D. Fazzi, A. Hansen,
     J. Chem. Phys., 2023, just accepted.
   
   for PTB refer to:
   * S. Grimme, M. Mueller, A. Hansen, J. Chem. Phys., 2023, 158, 124111.
     DOI: 10.1063/5.0137838
   
   with help from (in alphabetical order)
   P. Atkinson, C. Bannwarth, F. Bohle, G. Brandenburg, E. Caldeweyher
   M. Checinski, S. Dohm, S. Ehlert, S. Ehrlich, I. Gerasimov, C. Hölzer
   A. Katbashev, J. Kohn, J. Koopman, C. Lavigne, S. Lehtola, F. März, M. Müller,
   F. Musil, H. Neugebauer, J. Pisarek, C. Plett, P. Pracht, F. Pultar,
   J. Seibert, P. Shushkov, S. Spicher, M. Stahn, M. Steiner, T. Strunk,
   J. Stückrath, T. Rose, and J. Unsleber
   
 * started run on 2025/04/09 at 05:20:47.326     
   ID    Z sym.   atoms
    1    6 C      1, 2, 7, 8, 10, 15, 16, 18, 19
    2    8 O      3, 6, 14, 17
    3   15 P      4, 12
    4   16 S      5, 9, 11, 13
    5    1 H      20-41

           -------------------------------------------------
          |                Calculation Setup                |
           -------------------------------------------------

          program call               : /srv/scratch/z5358697/.xtb/bin/xtb gas.coord --gfn2 --sp --chrg 0 --norestart --parallel 1
          hostname                   : k163
          coordinate file            : gas.coord
          omp threads                :                     1


           -------------------------------------------------
          |                 G F N 2 - x T B                 |
           -------------------------------------------------

        Reference                      10.1021/acs.jctc.8b01176
      * Hamiltonian:
        H0-scaling (s, p, d)           1.850000    2.230000    2.230000
        zeta-weighting                 0.500000
      * Dispersion:
        s8                             2.700000
        a1                             0.520000
        a2                             5.000000
        s9                             5.000000
      * Repulsion:
        kExp                           1.500000    1.000000
        rExp                           1.000000
      * Coulomb:
        alpha                          2.000000
        third order                    shell-resolved
        anisotropic                    true
        a3                             3.000000
        a5                             4.000000
        cn-shift                       1.200000
        cn-exp                         4.000000
        max-rad                        5.000000


          ...................................................
          :                      SETUP                      :
          :.................................................:
          :  # basis functions                 134          :
          :  # atomic orbitals                 128          :
          :  # shells                           66          :
          :  # electrons                       116          :
          :  max. iterations                   250          :
          :  Hamiltonian                  GFN2-xTB          :
          :  restarted?                      false          :
          :  GBSA solvation                  false          :
          :  PC potential                    false          :
          :  electronic temp.          300.0000000     K    :
          :  accuracy                    1.0000000          :
          :  -> integral cutoff          0.2500000E+02      :
          :  -> integral neglect         0.1000000E-07      :
          :  -> SCF convergence          0.1000000E-05 Eh   :
          :  -> wf. convergence          0.1000000E-03 e    :
          :  Broyden damping             0.4000000          :
          :  net charge                          0          :
          :  unpaired electrons                  0          :
          ...................................................

 iter      E             dE          RMSdq      gap      omega  full diag
   1    -65.3848565 -0.653849E+02  0.650E+00    4.17       0.0  T
   2    -65.5538731 -0.169017E+00  0.429E+00    3.24       1.0  T
   3    -65.5729192 -0.190462E-01  0.142E+00    3.04       1.0  T
   4    -65.5751908 -0.227156E-02  0.548E-01    2.83       1.0  T
   5    -65.5758630 -0.672185E-03  0.241E-01    2.94       1.0  T
   6    -65.5760211 -0.158095E-03  0.124E-01    2.91       1.0  T
   7    -65.5760692 -0.481539E-04  0.481E-02    2.93       1.0  T
   8    -65.5760791 -0.982298E-05  0.229E-02    2.93       1.0  T
   9    -65.5760808 -0.176362E-05  0.521E-03    2.93       3.0  T
  10    -65.5760809 -0.102802E-06  0.258E-03    2.93       6.0  T
  11    -65.5760809 -0.622501E-08  0.512E-04    2.93      30.5  T
  12    -65.5760809 -0.520643E-09  0.224E-04    2.93      69.7  T

   *** convergence criteria satisfied after 12 iterations ***

         #    Occupation            Energy/Eh            Energy/eV
      -------------------------------------------------------------
         1        2.0000           -0.7602176             -20.6866
       ...           ...                  ...                  ...
        52        2.0000           -0.4388958             -11.9430
        53        2.0000           -0.4100071             -11.1569
        54        2.0000           -0.4011056             -10.9146
        55        2.0000           -0.3779974             -10.2858
        56        2.0000           -0.3752843             -10.2120
        57        2.0000           -0.3734458             -10.1620
        58        2.0000           -0.3723088             -10.1310 (HOMO)
        59                         -0.2646013              -7.2002 (LUMO)
        60                         -0.2401440              -6.5346
        61                         -0.2032743              -5.5314
        62                         -0.1756658              -4.7801
        63                         -0.1693972              -4.6095
       ...                                ...                  ...
       128                          1.3185354              35.8792
      -------------------------------------------------------------
                  HL-Gap            0.1077075 Eh            2.9309 eV
             Fermi-level           -0.3184550 Eh           -8.6656 eV

 SCC (total)                   0 d,  0 h,  0 min,  0.063 sec
 SCC setup                      ...        0 min,  0.000 sec (  0.427%)
 Dispersion                     ...        0 min,  0.000 sec (  0.492%)
 classical contributions        ...        0 min,  0.000 sec (  0.093%)
 integral evaluation            ...        0 min,  0.015 sec ( 24.253%)
 iterations                     ...        0 min,  0.025 sec ( 39.977%)
 molecular gradient             ...        0 min,  0.022 sec ( 34.336%)
 printout                       ...        0 min,  0.000 sec (  0.400%)

         :::::::::::::::::::::::::::::::::::::::::::::::::::::
         ::                     SUMMARY                     ::
         :::::::::::::::::::::::::::::::::::::::::::::::::::::
         :: total energy             -65.013625781163 Eh    ::
         :: gradient norm              0.032701198955 Eh/a0 ::
         :: HOMO-LUMO gap              2.930871071240 eV    ::
         ::.................................................::
         :: SCC energy               -65.575140349560 Eh    ::
         :: -> isotropic ES            0.104706653169 Eh    ::
         :: -> anisotropic ES         -0.009016850523 Eh    ::
         :: -> anisotropic XC          0.031116745144 Eh    ::
         :: -> dispersion             -0.052662544586 Eh    ::
         :: repulsion energy           0.561514568397 Eh    ::
         :: add. restraining           0.000000000000 Eh    ::
         :: total charge               0.000000000000 e     ::
         :::::::::::::::::::::::::::::::::::::::::::::::::::::

           -------------------------------------------------
          |                Property Printout                |
           -------------------------------------------------

    * Orbital Energies and Occupations

         #    Occupation            Energy/Eh            Energy/eV
      -------------------------------------------------------------
         1        2.0000           -0.7602176             -20.6866
       ...           ...                  ...                  ...
        46        2.0000           -0.4722004             -12.8492
        47        2.0000           -0.4659367             -12.6788
        48        2.0000           -0.4622354             -12.5781
        49        2.0000           -0.4612154             -12.5503
        50        2.0000           -0.4592855             -12.4978
        51        2.0000           -0.4457778             -12.1302
        52        2.0000           -0.4388958             -11.9430
        53        2.0000           -0.4100071             -11.1569
        54        2.0000           -0.4011056             -10.9146
        55        2.0000           -0.3779974             -10.2858
        56        2.0000           -0.3752843             -10.2120
        57        2.0000           -0.3734458             -10.1620
        58        2.0000           -0.3723088             -10.1310 (HOMO)
        59                         -0.2646013              -7.2002 (LUMO)
        60                         -0.2401440              -6.5346
        61                         -0.2032743              -5.5314
        62                         -0.1756658              -4.7801
        63                         -0.1693972              -4.6095
        64                         -0.1653001              -4.4980
        65                         -0.1508213              -4.1041
        66                         -0.1412215              -3.8428
        67                         -0.1290315              -3.5111
        68                         -0.1182615              -3.2181
        69                         -0.0417306              -1.1355
       ...                                ...                  ...
       128                          1.3185354              35.8792
      -------------------------------------------------------------
                  HL-Gap            0.1077075 Eh            2.9309 eV
             Fermi-level           -0.3184550 Eh           -8.6656 eV

     #   Z          covCN         q      C6AA      α(0)
     1   6 C        3.751    -0.115    22.758     6.803
     2   6 C        3.881     0.084    19.137     6.220
     3   8 O        1.654    -0.247    18.102     5.743
     4  15 P        3.887     0.377   144.574    21.599
     5  16 S        0.926    -0.416   157.395    21.220
     6   8 O        1.655    -0.246    18.091     5.742
     7   6 C        3.860     0.085    19.129     6.220
     8   6 C        3.751    -0.118    22.829     6.814
     9  16 S        2.021    -0.136   146.791    20.392
    10   6 C        3.830     0.043    19.829     6.336
    11  16 S        2.019    -0.171   148.275    20.495
    12  15 P        3.863     0.373   144.735    21.611
    13  16 S        0.927    -0.378   155.612    21.099
    14   8 O        1.654    -0.231    17.847     5.703
    15   6 C        3.857     0.086    19.116     6.218
    16   6 C        3.751    -0.116    22.782     6.807
    17   8 O        1.655    -0.248    18.126     5.747
    18   6 C        3.861     0.081    19.191     6.230
    19   6 C        3.751    -0.120    22.858     6.818
    20   1 H        0.925     0.060     2.195     2.317
    21   1 H        0.925     0.065     2.137     2.286
    22   1 H        0.925     0.060     2.201     2.320
    23   1 H        0.924     0.059     2.205     2.322
    24   1 H        0.924     0.067     2.122     2.278
    25   1 H        0.924     0.051     2.311     2.377
    26   1 H        0.924     0.064     2.153     2.295
    27   1 H        0.925     0.059     2.215     2.327
    28   1 H        0.925     0.073     2.058     2.243
    29   1 H        0.925     0.059     2.211     2.325
    30   1 H        0.925     0.089     1.884     2.147
    31   1 H        0.925     0.090     1.878     2.143
    32   1 H        0.924     0.052     2.297     2.370
    33   1 H        0.924     0.069     2.098     2.265
    34   1 H        0.925     0.064     2.157     2.297
    35   1 H        0.925     0.056     2.247     2.344
    36   1 H        0.925     0.065     2.146     2.291
    37   1 H        0.924     0.064     2.157     2.297
    38   1 H        0.924     0.062     2.176     2.307
    39   1 H        0.925     0.065     2.144     2.290
    40   1 H        0.925     0.060     2.201     2.320
    41   1 H        0.925     0.061     2.186     2.312

 Mol. C6AA /au·bohr⁶  :      26543.578276
 Mol. C8AA /au·bohr⁸  :     863328.735979
 Mol. α(0) /au        :        258.290409


Wiberg/Mayer (AO) data.
largest (>0.10) Wiberg bond orders for each atom

 ---------------------------------------------------------------------------
     #   Z sym  total        # sym  WBO       # sym  WBO       # sym  WBO
 ---------------------------------------------------------------------------
     1   6 C    3.991 --     2 C    1.023    22 H    0.984    20 H    0.980
                            21 H    0.974
     2   6 C    3.908 --     1 C    1.023    23 H    0.970    24 H    0.966
                             3 O    0.894
     3   8 O    2.401 --     4 P    1.310     2 C    0.894
     4  15 P    5.275 --     5 S    1.534     3 O    1.310     6 O    1.308
                             9 S    0.989
     5  16 S    1.874 --     4 P    1.534     9 S    0.140
     6   8 O    2.411 --     4 P    1.308     7 C    0.904
     7   6 C    3.911 --     8 C    1.020    26 H    0.970    25 H    0.970
                             6 O    0.904
     8   6 C    3.988 --     7 C    1.020    27 H    0.985    29 H    0.980
                            28 H    0.979
     9  16 S    2.299 --     4 P    0.989    10 C    0.988     5 S    0.140
    10   6 C    3.956 --    11 S    0.989     9 S    0.988    31 H    0.954
                            30 H    0.954
    11  16 S    2.269 --    10 C    0.989    12 P    0.938    13 S    0.141
    12  15 P    5.298 --    13 S    1.589    14 O    1.341    17 O    1.311
                            11 S    0.938
    13  16 S    1.917 --    12 P    1.589    11 S    0.141
    14   8 O    2.420 --    12 P    1.341    15 C    0.889
    15   6 C    3.912 --    16 C    1.021    33 H    0.970    32 H    0.967
                            14 O    0.889
    16   6 C    3.990 --    15 C    1.021    36 H    0.984    34 H    0.982
                            35 H    0.980
    17   8 O    2.411 --    12 P    1.311    18 C    0.903
    18   6 C    3.908 --    19 C    1.021    37 H    0.971    38 H    0.966
                            17 O    0.903
    19   6 C    3.990 --    18 C    1.021    40 H    0.985    41 H    0.980
                            39 H    0.979
    20   1 H    0.995 --     1 C    0.980
    21   1 H    0.996 --     1 C    0.974
    22   1 H    0.996 --     1 C    0.984
    23   1 H    0.996 --     2 C    0.970
    24   1 H    0.996 --     2 C    0.966
    25   1 H    0.997 --     7 C    0.970
    26   1 H    0.996 --     7 C    0.970
    27   1 H    0.996 --     8 C    0.985
    28   1 H    0.995 --     8 C    0.979
    29   1 H    0.996 --     8 C    0.980
    30   1 H    0.992 --    10 C    0.954
    31   1 H    0.992 --    10 C    0.954
    32   1 H    0.997 --    15 C    0.967
    33   1 H    0.995 --    15 C    0.970
    34   1 H    0.996 --    16 C    0.982
    35   1 H    0.995 --    16 C    0.980
    36   1 H    0.996 --    16 C    0.984
    37   1 H    0.996 --    18 C    0.971
    38   1 H    0.996 --    18 C    0.966
    39   1 H    0.996 --    19 C    0.979
    40   1 H    0.996 --    19 C    0.985
    41   1 H    0.995 --    19 C    0.980
 ---------------------------------------------------------------------------

Topologies differ in total number of bonds
Writing topology from bond orders to xtbtopo.mol

molecular dipole:
                 x           y           z       tot (Debye)
 q only:        0.241       0.502       2.218
   full:        0.196       1.040       2.451       6.786
molecular quadrupole (traceless):
                xx          xy          yy          xz          yz          zz
 q only:       17.588      16.090     -12.519     -15.663       8.473      -5.069
  q+dip:       17.244      16.998     -10.285     -18.172      10.683      -6.959
   full:       18.314      17.420     -11.922     -18.188       9.922      -6.392


           -------------------------------------------------
          | TOTAL ENERGY              -65.013625781163 Eh   |
          | GRADIENT NORM               0.032701198955 Eh/α |
          | HOMO-LUMO GAP               2.930871071240 eV   |
           -------------------------------------------------

------------------------------------------------------------------------
 * finished run on 2025/04/09 at 05:20:47.447     
------------------------------------------------------------------------
 total:
 * wall-time:     0 d,  0 h,  0 min,  0.120 sec
 *  cpu-time:     0 d,  0 h,  0 min,  0.069 sec
 * ratio c/w:     0.581 speedup
 SCF:
 * wall-time:     0 d,  0 h,  0 min,  0.064 sec
 *  cpu-time:     0 d,  0 h,  0 min,  0.056 sec
 * ratio c/w:     0.882 speedup

