      -----------------------------------------------------------      
     |                   =====================                   |     
     |                           x T B                           |     
     |                   =====================                   |     
     |                         S. Grimme                         |     
     |          Mulliken Center for Theoretical Chemistry        |     
     |                    University of Bonn                     |     
      -----------------------------------------------------------      

   * xtb version 6.7.1 (edcfbbe) compiled by 'albert@albert-system' on 2024-07-22

   xtb is free software: you can redistribute it and/or modify it under
   the terms of the GNU Lesser General Public License as published by
   the Free Software Foundation, either version 3 of the License, or
   (at your option) any later version.
   
   xtb is distributed in the hope that it will be useful,
   but WITHOUT ANY WARRANTY; without even the implied warranty of
   MERCHANTABILITY or FITNESS FOR A PARTICULAR PURPOSE.  See the
   GNU Lesser General Public License for more details.
   
   Cite this work as:
   * C. Bannwarth, E. Caldeweyher, S. Ehlert, A. Hansen, P. Pracht,
     J. Seibert, S. Spicher, S. Grimme, WIREs Comput. Mol. Sci., 2020, 11,
     e01493. DOI: 10.1002/wcms.1493
   
   for GFN2-xTB:
   * C. Bannwarth, S. Ehlert and S. Grimme., J. Chem. Theory Comput., 2019,
     15, 1652-1671. DOI: 10.1021/acs.jctc.8b01176
   for GFN1-xTB:
   * S. Grimme, C. Bannwarth, P. Shushkov, J. Chem. Theory Comput., 2017,
     13, 1989-2009. DOI: 10.1021/acs.jctc.7b00118
   for GFN0-xTB:
   * P. Pracht, E. Caldeweyher, S. Ehlert, S. Grimme, ChemRxiv, 2019, preprint.
     DOI: 10.26434/chemrxiv.8326202.v1
   for GFN-FF:
   * S. Spicher and S. Grimme, Angew. Chem. Int. Ed., 2020, 59, 15665-15673.
     DOI: 10.1002/anie.202004239
   
   for ALPB and GBSA implicit solvation:
   * S. Ehlert, M. Stahn, S. Spicher, S. Grimme, J. Chem. Theory Comput.,
     2021, 17, 4250-4261. DOI: 10.1021/acs.jctc.1c00471
   
   for ddCOSMO and CPCM-X implicit solvation:
   * M. Stahn, S. Ehlert, S. Grimme, J. Phys. Chem. A,
     2023, XX, XXXX-XXXX. DOI: 10.1021/acs.jpca.3c04382
   
   for DFT-D4:
   * E. Caldeweyher, C. Bannwarth and S. Grimme, J. Chem. Phys., 2017,
     147, 034112. DOI: 10.1063/1.4993215
   * E. Caldeweyher, S. Ehlert, A. Hansen, H. Neugebauer, S. Spicher,
     C. Bannwarth and S. Grimme, J. Chem. Phys., 2019, 150, 154122.
     DOI: 10.1063/1.5090222
   * E. Caldeweyher, J.-M. Mewes, S. Ehlert and S. Grimme, Phys. Chem. Chem. Phys.
     2020, 22, 8499-8512. DOI: 10.1039/D0CP00502A
   
   for sTDA-xTB:
   * S. Grimme and C. Bannwarth, J. Chem. Phys., 2016, 145, 054103.
     DOI: 10.1063/1.4959605
   
   in the mass-spec context:
   * V. Asgeirsson, C. Bauer and S. Grimme, Chem. Sci., 2017, 8, 4879.
     DOI: 10.1039/c7sc00601b
   * J. Koopman and S. Grimme, ACS Omega 2019, 4, 12, 15120-15133.
     DOI: 10.1021/acsomega.9b02011
   
   for metadynamics refer to:
   * S. Grimme, J. Chem. Theory Comput., 2019, 155, 2847-2862
     DOI: 10.1021/acs.jctc.9b00143
   
   for SPH calculations refer to:
   * S. Spicher and S. Grimme, J. Chem. Theory Comput., 2021, 17, 1701-1714
     DOI: 10.1021/acs.jctc.0c01306
   
   for ONIOM refer to:
   * C. Plett, A. Katbashev, S. Ehlert, S. Grimme, M. Bursch,
     Phys. Chem. Chem. Phys., 2023, 25, 17860-17868. DOI: 10.1039/D3CP02178E
   
   for DIPRO refer to:
   * J. Kohn, N. Gildemeister, S. Grimme, D. Fazzi, A. Hansen,
     J. Chem. Phys., 2023, just accepted.
   
   for PTB refer to:
   * S. Grimme, M. Mueller, A. Hansen, J. Chem. Phys., 2023, 158, 124111.
     DOI: 10.1063/5.0137838
   
   with help from (in alphabetical order)
   P. Atkinson, C. Bannwarth, F. Bohle, G. Brandenburg, E. Caldeweyher
   M. Checinski, S. Dohm, S. Ehlert, S. Ehrlich, I. Gerasimov, C. Hölzer
   A. Katbashev, J. Kohn, J. Koopman, C. Lavigne, S. Lehtola, F. März, M. Müller,
   F. Musil, H. Neugebauer, J. Pisarek, C. Plett, P. Pracht, F. Pultar,
   J. Seibert, P. Shushkov, S. Spicher, M. Stahn, M. Steiner, T. Strunk,
   J. Stückrath, T. Rose, and J. Unsleber
   
 * started run on 2025/04/09 at 05:21:06.834     
   ID    Z sym.   atoms
    1    6 C      1, 2, 7, 8, 10, 15, 16, 18, 19
    2    8 O      3, 6, 14, 17
    3   15 P      4, 12
    4   16 S      5, 9, 11, 13
    5    1 H      20-41

           -------------------------------------------------
          |                Calculation Setup                |
           -------------------------------------------------

          program call               : /srv/scratch/z5358697/.xtb/bin/xtb solv.coord --gfn2 --sp --chrg 0 --norestart --parallel 1 --alpb water reference -I xtb_sp-xcontrol-inp
          hostname                   : k163
          coordinate file            : solv.coord
          omp threads                :                     1


           -------------------------------------------------
          |                 G F N 2 - x T B                 |
           -------------------------------------------------

        Reference                      10.1021/acs.jctc.8b01176
      * Hamiltonian:
        H0-scaling (s, p, d)           1.850000    2.230000    2.230000
        zeta-weighting                 0.500000
      * Dispersion:
        s8                             2.700000
        a1                             0.520000
        a2                             5.000000
        s9                             5.000000
      * Repulsion:
        kExp                           1.500000    1.000000
        rExp                           1.000000
      * Coulomb:
        alpha                          2.000000
        third order                    shell-resolved
        anisotropic                    true
        a3                             3.000000
        a5                             4.000000
        cn-shift                       1.200000
        cn-exp                         4.000000
        max-rad                        5.000000

      * Solvation model:               ALPB
        Solvent                        water
        Parameter file                 internal GFN2-xTB/ALPB
        Dielectric constant                8.0200E+01
        Reference state                gsolv=reference [X=1]
        Free energy shift                  2.8945E-03 Eh       1.8164E+00 kcal/mol
        Temperature                        2.9815E+02 K
        Density                            1.0000E+00 kg/L
        Solvent mass                       1.8000E+01 g/mol
        Interaction kernel             P16
        Born radius scaling (c1)           1.4744E+00
        Born radii integrator          GBOBC
        Born offset                        0.0000E+00 a0       0.0000E+00 AA
        H-bond correction              true
        Ion screening                  false
        Surface tension                    1.0000E-05 Eh       1.5569E+01 dyn/cm
        Grid points                               974 per atom

          ...................................................
          :                      SETUP                      :
          :.................................................:
          :  # basis functions                 134          :
          :  # atomic orbitals                 128          :
          :  # shells                           66          :
          :  # electrons                       116          :
          :  max. iterations                   250          :
          :  Hamiltonian                  GFN2-xTB          :
          :  restarted?                      false          :
          :  GBSA solvation                   true          :
          :  PC potential                    false          :
          :  electronic temp.          300.0000000     K    :
          :  accuracy                    1.0000000          :
          :  -> integral cutoff          0.2500000E+02      :
          :  -> integral neglect         0.1000000E-07      :
          :  -> SCF convergence          0.1000000E-05 Eh   :
          :  -> wf. convergence          0.1000000E-03 e    :
          :  Broyden damping             0.4000000          :
          :  net charge                          0          :
          :  unpaired electrons                  0          :
          ...................................................

 iter      E             dE          RMSdq      gap      omega  full diag
   1    -65.4479792 -0.654480E+02  0.636E+00    4.24       0.0  T
   2    -65.5647351 -0.116756E+00  0.357E+00    3.55       1.0  T
   3    -65.5840010 -0.192658E-01  0.110E+00    3.10       1.0  T
   4    -65.5868160 -0.281505E-02  0.494E-01    3.06       1.0  T
   5    -65.5874900 -0.674028E-03  0.255E-01    3.10       1.0  T
   6    -65.5876713 -0.181241E-03  0.111E-01    3.10       1.0  T
   7    -65.5877164 -0.451474E-04  0.396E-02    3.12       1.0  T
   8    -65.5877204 -0.396843E-05  0.165E-02    3.12       1.0  T
   9    -65.5877212 -0.788843E-06  0.509E-03    3.12       3.1  T
  10    -65.5877212 -0.307656E-08  0.230E-03    3.12       6.8  T
  11    -65.5877212 -0.355446E-07  0.554E-04    3.12      28.2  T
  12    -65.5877212 -0.683201E-09  0.270E-04    3.12      57.8  T

   *** convergence criteria satisfied after 12 iterations ***

         #    Occupation            Energy/Eh            Energy/eV
      -------------------------------------------------------------
         1        2.0000           -0.7682128             -20.9041
       ...           ...                  ...                  ...
        52        2.0000           -0.4477146             -12.1829
        53        2.0000           -0.4211113             -11.4590
        54        2.0000           -0.4120624             -11.2128
        55        2.0000           -0.3991305             -10.8609
        56        2.0000           -0.3964744             -10.7886
        57        2.0000           -0.3906049             -10.6289
        58        2.0000           -0.3866905             -10.5224 (HOMO)
        59                         -0.2721729              -7.4062 (LUMO)
        60                         -0.2616596              -7.1201
        61                         -0.2230936              -6.0707
        62                         -0.1957650              -5.3270
        63                         -0.1791137              -4.8739
       ...                                ...                  ...
       128                          1.2685425              34.5188
      -------------------------------------------------------------
                  HL-Gap            0.1145176 Eh            3.1162 eV
             Fermi-level           -0.3294317 Eh           -8.9643 eV

 SCC (total)                   0 d,  0 h,  0 min,  0.064 sec
 SCC setup                      ...        0 min,  0.003 sec (  3.939%)
 Dispersion                     ...        0 min,  0.000 sec (  0.465%)
 classical contributions        ...        0 min,  0.000 sec (  0.088%)
 integral evaluation            ...        0 min,  0.014 sec ( 21.284%)
 iterations                     ...        0 min,  0.026 sec ( 39.707%)
 molecular gradient             ...        0 min,  0.022 sec ( 34.155%)
 printout                       ...        0 min,  0.000 sec (  0.335%)

         :::::::::::::::::::::::::::::::::::::::::::::::::::::
         ::                     SUMMARY                     ::
         :::::::::::::::::::::::::::::::::::::::::::::::::::::
         :: total energy             -65.024831378005 Eh    ::
         :: total w/o Gsasa/hb       -65.027849397218 Eh    ::
         :: gradient norm              0.000088479721 Eh/a0 ::
         :: HOMO-LUMO gap              3.116182886735 eV    ::
         ::.................................................::
         :: SCC energy               -65.586756754177 Eh    ::
         :: -> isotropic ES            0.122140866319 Eh    ::
         :: -> anisotropic ES         -0.016818189285 Eh    ::
         :: -> anisotropic XC          0.030061091407 Eh    ::
         :: -> dispersion             -0.053994962184 Eh    ::
         :: -> Gsolv                  -0.018900762767 Eh    ::
         ::    -> Gelec               -0.021918781979 Eh    ::
         ::    -> Gsasa                0.004205768610 Eh    ::
         ::    -> Ghb                 -0.004082298559 Eh    ::
         ::    -> Gshift               0.002894549160 Eh    ::
         :: repulsion energy           0.561925376171 Eh    ::
         :: add. restraining           0.000000000000 Eh    ::
         :: total charge              -0.000000000000 e     ::
         :::::::::::::::::::::::::::::::::::::::::::::::::::::

           -------------------------------------------------
          |                Property Printout                |
           -------------------------------------------------

    * Orbital Energies and Occupations

         #    Occupation            Energy/Eh            Energy/eV
      -------------------------------------------------------------
         1        2.0000           -0.7682128             -20.9041
       ...           ...                  ...                  ...
        46        2.0000           -0.4669127             -12.7053
        47        2.0000           -0.4589615             -12.4890
        48        2.0000           -0.4556735             -12.3995
        49        2.0000           -0.4548688             -12.3776
        50        2.0000           -0.4537997             -12.3485
        51        2.0000           -0.4505800             -12.2609
        52        2.0000           -0.4477146             -12.1829
        53        2.0000           -0.4211113             -11.4590
        54        2.0000           -0.4120624             -11.2128
        55        2.0000           -0.3991305             -10.8609
        56        2.0000           -0.3964744             -10.7886
        57        2.0000           -0.3906049             -10.6289
        58        2.0000           -0.3866905             -10.5224 (HOMO)
        59                         -0.2721729              -7.4062 (LUMO)
        60                         -0.2616596              -7.1201
        61                         -0.2230936              -6.0707
        62                         -0.1957650              -5.3270
        63                         -0.1791137              -4.8739
        64                         -0.1763301              -4.7982
        65                         -0.1667215              -4.5367
        66                         -0.1567647              -4.2658
        67                         -0.1325094              -3.6058
        68                         -0.1270626              -3.4576
        69                         -0.0525953              -1.4312
       ...                                ...                  ...
       128                          1.2685425              34.5188
      -------------------------------------------------------------
                  HL-Gap            0.1145176 Eh            3.1162 eV
             Fermi-level           -0.3294317 Eh           -8.9643 eV

     #   Z          covCN         q      C6AA      α(0)
     1   6 C        3.751    -0.133    23.128     6.858
     2   6 C        3.843     0.073    19.340     6.256
     3   8 O        1.654    -0.263    18.374     5.786
     4  15 P        3.784     0.364   145.078    21.637
     5  16 S        0.926    -0.458   159.376    21.353
     6   8 O        1.655    -0.249    18.136     5.749
     7   6 C        3.811     0.077    19.286     6.251
     8   6 C        3.751    -0.122    22.892     6.823
     9  16 S        1.998    -0.141   146.992    20.406
    10   6 C        3.806     0.038    19.925     6.354
    11  16 S        2.000    -0.122   146.163    20.348
    12  15 P        3.859     0.369   144.893    21.623
    13  16 S        0.926    -0.470   159.972    21.393
    14   8 O        1.655    -0.262    18.359     5.784
    15   6 C        3.863     0.080    19.214     6.233
    16   6 C        3.751    -0.128    23.029     6.844
    17   8 O        1.655    -0.258    18.288     5.773
    18   6 C        3.867     0.084    19.149     6.223
    19   6 C        3.751    -0.124    22.931     6.829
    20   1 H        0.925     0.088     1.902     2.157
    21   1 H        0.925     0.064     2.157     2.297
    22   1 H        0.925     0.072     2.068     2.249
    23   1 H        0.924     0.089     1.892     2.151
    24   1 H        0.924     0.069     2.096     2.264
    25   1 H        0.924     0.065     2.145     2.290
    26   1 H        0.924     0.094     1.844     2.123
    27   1 H        0.925     0.051     2.308     2.376
    28   1 H        0.925     0.081     1.967     2.193
    29   1 H        0.925     0.068     2.110     2.271
    30   1 H        0.925     0.118     1.627     1.995
    31   1 H        0.924     0.076     2.021     2.223
    32   1 H        0.924     0.087     1.911     2.162
    33   1 H        0.924     0.054     2.268     2.355
    34   1 H        0.925     0.062     2.180     2.309
    35   1 H        0.925     0.070     2.081     2.256
    36   1 H        0.925     0.082     1.955     2.187
    37   1 H        0.924     0.059     2.215     2.327
    38   1 H        0.924     0.085     1.924     2.169
    39   1 H        0.925     0.057     2.232     2.336
    40   1 H        0.925     0.083     1.945     2.181
    41   1 H        0.925     0.072     2.068     2.249

 Mol. C6AA /au·bohr⁶  :      26409.042911
 Mol. C8AA /au·bohr⁸  :     862689.436998
 Mol. α(0) /au        :        257.643514


Wiberg/Mayer (AO) data.
largest (>0.10) Wiberg bond orders for each atom

 ---------------------------------------------------------------------------
     #   Z sym  total        # sym  WBO       # sym  WBO       # sym  WBO
 ---------------------------------------------------------------------------
     1   6 C    3.984 --     2 C    1.021    22 H    0.983    21 H    0.981
                            20 H    0.974
     2   6 C    3.883 --     1 C    1.021    24 H    0.968    23 H    0.967
                             3 O    0.865
     3   8 O    2.399 --     4 P    1.349     2 C    0.865
     4  15 P    5.320 --     5 S    1.522     3 O    1.349     6 O    1.346
                             9 S    0.963
     5  16 S    1.868 --     4 P    1.522     9 S    0.141
     6   8 O    2.426 --     4 P    1.346     7 C    0.882
     7   6 C    3.886 --     8 C    1.022    25 H    0.967    26 H    0.964
                             6 O    0.882
     8   6 C    3.987 --     7 C    1.022    29 H    0.983    27 H    0.980
                            28 H    0.976
     9  16 S    2.273 --    10 C    0.982     4 P    0.963     5 S    0.141
    10   6 C    3.953 --    11 S    0.990     9 S    0.982    30 H    0.959
                            31 H    0.945
    11  16 S    2.297 --    12 P    1.001    10 C    0.990    13 S    0.136
    12  15 P    5.306 --    13 S    1.503    17 O    1.334    14 O    1.322
                            11 S    1.001
    13  16 S    1.835 --    12 P    1.503    11 S    0.136
    14   8 O    2.402 --    12 P    1.322    15 C    0.884
    15   6 C    3.891 --    16 C    1.020    33 H    0.970    32 H    0.967
                            14 O    0.884
    16   6 C    3.985 --    15 C    1.020    35 H    0.983    34 H    0.980
                            36 H    0.976
    17   8 O    2.405 --    12 P    1.334    18 C    0.877
    18   6 C    3.890 --    19 C    1.023    37 H    0.966    38 H    0.966
                            17 O    0.877
    19   6 C    3.987 --    18 C    1.023    41 H    0.982    40 H    0.976
                            39 H    0.974
    20   1 H    0.991 --     1 C    0.974
    21   1 H    0.996 --     1 C    0.981
    22   1 H    0.995 --     1 C    0.983
    23   1 H    0.992 --     2 C    0.967
    24   1 H    0.995 --     2 C    0.968
    25   1 H    0.996 --     7 C    0.967
    26   1 H    0.991 --     7 C    0.964
    27   1 H    0.997 --     8 C    0.980
    28   1 H    0.992 --     8 C    0.976
    29   1 H    0.995 --     8 C    0.983
    30   1 H    0.986 --    10 C    0.959
    31   1 H    0.994 --    10 C    0.945
    32   1 H    0.992 --    15 C    0.967
    33   1 H    0.997 --    15 C    0.970
    34   1 H    0.996 --    16 C    0.980
    35   1 H    0.995 --    16 C    0.983
    36   1 H    0.992 --    16 C    0.976
    37   1 H    0.997 --    18 C    0.966
    38   1 H    0.992 --    18 C    0.966
    39   1 H    0.997 --    19 C    0.974
    40   1 H    0.992 --    19 C    0.976
    41   1 H    0.995 --    19 C    0.982
 ---------------------------------------------------------------------------

Topologies differ in total number of bonds
Writing topology from bond orders to xtbtopo.mol

molecular dipole:
                 x           y           z       tot (Debye)
 q only:        0.162      -1.321       0.832
   full:        0.314      -0.985       0.454       2.869
molecular quadrupole (traceless):
                xx          xy          yy          xz          yz          zz
 q only:       25.752     -12.033     -14.163      -5.647       7.268     -11.589
  q+dip:       29.912      -7.972     -18.900      -3.134       6.132     -11.012
   full:       29.652      -8.446     -17.847      -4.235       6.236     -11.804


           -------------------------------------------------
          | TOTAL ENERGY              -65.024831378005 Eh   |
          | GRADIENT NORM               0.000088479721 Eh/α |
          | HOMO-LUMO GAP               3.116182886735 eV   |
           -------------------------------------------------

------------------------------------------------------------------------
 * finished run on 2025/04/09 at 05:21:06.963     
------------------------------------------------------------------------
 total:
 * wall-time:     0 d,  0 h,  0 min,  0.128 sec
 *  cpu-time:     0 d,  0 h,  0 min,  0.073 sec
 * ratio c/w:     0.566 speedup
 SCF:
 * wall-time:     0 d,  0 h,  0 min,  0.065 sec
 *  cpu-time:     0 d,  0 h,  0 min,  0.059 sec
 * ratio c/w:     0.907 speedup

