41
 energy: -2932.482693298654 gnorm: 0.001529009432 xtb: 6.7.1 (edcfbbe)
C            4.19722117464595       -2.03011868985381       -2.24855515099350
C            4.57966541363229       -1.66568504476805       -0.83676638898380
O            3.40531449057537       -1.35685330302173       -0.00582181321170
P            2.63406932957383        0.05309096094707       -0.05377991712845
S            3.63222294193686        1.64891167795691       -0.53810872848605
O            2.04355730630945        0.17170570696240        1.43038992825190
C            1.31958596578213       -0.93896395124927        2.07637129081144
C            2.17097636429669       -1.51483900836607        3.17894159540853
S            1.02177860810721       -0.45449283168888       -1.34864356402501
C            0.26048244958981        1.19886028673147       -1.59922288960061
S           -0.63488427439181        1.92793930290691       -0.17848965132075
P           -2.32091634232105        0.64129714192764       -0.10190187960657
S           -3.07072154249074        0.13610844642083       -1.82980160679330
O           -3.16533661690336        1.59404498632084        0.87862875551632
C           -4.29277411905409        1.08576344480855        1.68005133344030
C           -5.59102643562073        1.16874196822179        0.91654454063616
O           -1.90295897039803       -0.58574260470378        0.85183600377595
C           -2.03250294828544       -2.00020172690931        0.48570576274612
C           -3.35225349771461       -2.54834523083497        0.96643676504646
H            3.47346140462836       -2.85002176633048       -2.26039581554700
H            3.77986718871081       -1.17538979216885       -2.78809669287447
H            5.09863966527680       -2.35849216827781       -2.77662237144098
H            5.25586357354105       -0.80655348328077       -0.80285021055355
H            5.04276869308619       -2.50584035256520       -0.31565787611848
H            0.40038642500808       -0.49186323952999        2.46094442320392
H            1.05861947548133       -1.69195019952431        1.32749854838659
H            1.60290452639320       -2.29849039490017        3.69055559469994
H            3.08856545479083       -1.95608650816231        2.78047573902790
H            2.43215694944424       -0.74628494329586        3.91169241717409
H           -0.42803967635920        1.08153975421314       -2.44113045353592
H            1.03911796058359        1.91944956012289       -1.86595529357286
H           -4.06639591716856        0.06537275536366        2.00123870612834
H           -4.29940668022031        1.73611456753955        2.55712945528818
H           -5.77626122722685        2.18917803214201        0.57014962383765
H           -5.59704176060677        0.49368565832176        0.05688390711721
H           -6.40702717879626        0.88027661958921        1.58772924906321
H           -1.91970821978743       -2.09913163931870       -0.59708988610869
H           -1.18642595128822       -2.48448127075031        0.97853337497112
H           -4.19019322065867       -2.04538452997155        0.47394216603998
H           -3.40080178374131       -3.61495990421868        0.72455812115235
H           -3.45361438137573       -2.43648471546745        2.04950201786397
41
 energy: -2932.482687901763 gnorm: 0.001950206413 xtb: 6.7.1 (edcfbbe)
C            4.19643926897205       -2.03104025571159       -2.24971206331355
C            4.57897228552309       -1.66682487076631       -0.83774435648001
O            3.40427272682572       -1.35689955391824       -0.00752189097839
P            2.63454702388567        0.05382011755347       -0.05541998523748
S            3.63684488082665        1.64922152435679       -0.53375738151391
O            2.04472356017961        0.17226435934883        1.42931077396435
C            1.32002514186756       -0.93824042763705        2.07618875802573
C            2.17166453780069       -1.51468906783818        3.17865717646490
S            1.01859833980269       -0.45347550339828       -1.34591085025491
C            0.25668812557407        1.19996408480060       -1.59440947346756
S           -0.63433241003811        1.93266855341611       -0.17161029214969
P           -2.31814068676002        0.64096590235979       -0.10397275686934
S           -3.07135132625297        0.13219006389095       -1.82942533238441
O           -3.16454332559436        1.59374407589064        0.87473455530028
C           -4.29244697131347        1.08575626921691        1.67710083832034
C           -5.59084438303044        1.16794245679046        0.91427535758014
O           -1.90218338724106       -0.58503887127845        0.85177310235979
C           -2.03194359815746       -2.00002684100480        0.48649882191005
C           -3.35166245873205       -2.54848411743716        0.96738179776570
H            3.47197869849841       -2.85056136401177       -2.26177865320960
H            3.78020983649554       -1.17583827748489       -2.78930485936990
H            5.09774410534614       -2.36016089478113       -2.77730558654178
H            5.25599180447095       -0.80815331539288       -0.80388083988866
H            5.04155164171016       -2.50695492818816       -0.31637337220886
H            0.40121863852569       -0.49057628580271        2.46132961195804
H            1.05775423774526       -1.69168074215238        1.32792717488983
H            1.60280769882479       -2.29796811911665        3.69040358648383
H            3.08872335325890       -1.95722623224380        2.78010544683317
H            2.43363532523321       -0.74626234472952        3.91149496641541
H           -0.43142162845028        1.08498593579489       -2.43776694931092
H            1.03628442345070        1.92045408005729       -1.86083698196942
H           -4.06603958713761        0.06575207048948        1.99928097137389
H           -4.29935662195780        1.73686365789002        2.55371032751418
H           -5.77615132908525        2.18883950233454        0.56779506195596
H           -5.59709417579697        0.49193938067622        0.05555643733373
H           -6.40624049615693        0.87983515931943        1.58614888833657
H           -1.91875948368320       -2.09976157107216       -0.59625584807031
H           -1.18598644616540       -2.48437421779040        0.97958396766428
H           -4.18979564361986       -2.04595347931762        0.47456978500218
H           -3.39968057262479       -3.61564367576090        0.72577512517962
H           -3.45326700761396       -2.43626396151231        2.05063364830607
41
 energy: -2932.482701775129 gnorm: 0.000559592031 xtb: 6.7.1 (edcfbbe)
C            4.19592361064904       -2.03163468202446       -2.25033318754443
C            4.57856399498229       -1.66769347972498       -0.83826896484607
O            3.40405080955103       -1.35738449907086       -0.00786541728327
P            2.63515825553094        0.05380665691678       -0.05484275989172
S            3.63682033641747        1.64895890810594       -0.53521455391981
O            2.04552532564915        0.17233726696339        1.43007767136422
C            1.32020007549259       -0.93798505890272        2.07676785663720
C            2.17198376940863       -1.51494942417138        3.17893193223835
S            1.02059422444502       -0.45181157964761       -1.34751121789467
C            0.26014569637336        1.20209560549478       -1.59629955390512
S           -0.63492127657160        1.93044381230112       -0.17382311231561
P           -2.31955964368047        0.64119767678827       -0.10152984759733
S           -3.06734109221829        0.13425612615925       -1.82972393918549
O           -3.16685854969751        1.59386842354261        0.87636006704787
C           -4.29497627562528        1.08538188258901        1.67789565612104
C           -5.59236095498216        1.16729272429275        0.91358156940209
O           -1.90293143316296       -0.58485072436812        0.85381555468926
C           -2.03161287937183       -1.99983559324841        0.48765119978986
C           -3.35129703312502       -2.54877078927299        0.96814715763959
H            3.47102311471200       -2.85081704667147       -2.26253562739475
H            3.78026697216541       -1.17612440238575       -2.78987617890189
H            5.09708049470685       -2.36118965125472       -2.77787425323662
H            5.25596102250942       -0.80926719695889       -0.80437689490988
H            5.04086830311534       -2.50796675654251       -0.31694386006997
H            0.40168028838176       -0.48988992626549        2.46211806214741
H            1.05745817489280       -1.69115492139001        1.32834114649366
H            1.60274357009885       -2.29801757989732        3.69066870197876
H            3.08867804308286       -1.95801659228170        2.78006696307217
H            2.43452912615051       -0.74670570349748        3.91179139901586
H           -0.42834459849915        1.08747556712476       -2.43948842084668
H            1.03927359182609        1.92352940152694       -1.86162826870246
H           -4.06794058546815        0.06546298892827        1.99982100190719
H           -4.30226358969805        1.73670214581135        2.55432560840385
H           -5.77733029597515        2.18826318369949        0.56681213214980
H           -5.59766439440705        0.49108918016133        0.05504820210914
H           -6.40816435430492        0.87923970627764        1.58488226176926
H           -1.91824127835309       -2.09914350220925       -0.59515017174886
H           -1.18551426440635       -2.48405205473368        0.98065508726686
H           -4.18952538010999       -2.04650687370783        0.47517804050686
H           -3.39877281958347       -3.61601490898869        0.72639299135223
H           -3.45318426710865       -2.43669179559435        2.05143781782020
41
 energy: -2932.482705122076 gnorm: 0.000417979770 xtb: 6.7.1 (edcfbbe)
C            4.19493556287668       -2.03272048406557       -2.25143765654812
C            4.57775725770423       -1.66922516669839       -0.83933699923650
O            3.40360061364251       -1.35827040081027       -0.00865738080810
P            2.63608180690694        0.05375806108020       -0.05402410519861
S            3.63765981760267        1.64788305987984       -0.53701430413067
O            2.04708956464907        0.17244229206330        1.43114171237497
C            1.32096218753605       -0.93736341102666        2.07748323337299
C            2.17240868029818       -1.51545595081168        3.17923466434300
S            1.02217290214832       -0.44848642316243       -1.34906265741652
C            0.26110149573415        1.20534214589582       -1.59465924771987
S           -0.63511087933000        1.93117859502966       -0.17138823423451
P           -2.31945808738897        0.64152678054294       -0.10092322641028
S           -3.06521809924344        0.13322592003732       -1.82981743998495
O           -3.16818399693239        1.59395658611796        0.87572539339958
C           -4.29660652976384        1.08509331113432        1.67679492828425
C           -5.59360988207241        1.16613967209720        0.91167964447664
O           -1.90312529366259       -0.58420704721745        0.85504459576917
C           -2.03090787785889       -1.99942977078410        0.48918359415389
C           -3.35041809380554       -2.54895957912326        0.96937150067603
H            3.46921264528563       -2.85109698923847       -2.26374876713344
H            3.78010899287254       -1.17677744598920       -2.79095745728192
H            5.09582021960299       -2.36317943255737       -2.77897501265541
H            5.25566139833982       -0.81125342597665       -0.80529034232002
H            5.03933546216795       -2.50998444605778       -0.31805569946462
H            0.40302335197171       -0.48847833574826        2.46313619271881
H            1.05760907826255       -1.68977598071369        1.32863559676916
H            1.60260341681119       -2.29798678673972        3.69106804726702
H            3.08845176724825       -1.95925232110117        2.77982244984930
H            2.43602849575233       -0.74762630416355        3.91201914297984
H           -0.42707548480145        1.09156243098414       -2.43799755981995
H            1.04012952487355        1.92720078338956       -1.85862685965685
H           -4.06933094301874        0.06537304812209        1.99918925894450
H           -4.30478168353924        1.73662525486762        2.55301086578399
H           -5.77884492455094        2.18656295456642        0.56404372282059
H           -5.59825309098122        0.48959602216247        0.05338822234239
H           -6.41000888541203        0.87833507910742        1.58247596002914
H           -1.91721629044601       -2.09849084944901       -0.59356939845620
H           -1.18459181136038       -2.48286459566594        0.98256883487144
H           -4.18882131249655       -2.04743203500505        0.47604503894517
H           -3.39716698231382       -3.61616071619575        0.72792687241562
H           -3.45269650351962       -2.43677569785597        2.05252709809456
41
 energy: -2932.482705122076 gnorm: 0.000417979770 xtb: 6.7.1 (edcfbbe)
C            4.19493556287668       -2.03272048406557       -2.25143765654812
C            4.57775725770423       -1.66922516669839       -0.83933699923650
O            3.40360061364251       -1.35827040081027       -0.00865738080810
P            2.63608180690694        0.05375806108020       -0.05402410519861
S            3.63765981760267        1.64788305987984       -0.53701430413067
O            2.04708956464907        0.17244229206330        1.43114171237497
C            1.32096218753605       -0.93736341102666        2.07748323337299
C            2.17240868029818       -1.51545595081168        3.17923466434300
S            1.02217290214832       -0.44848642316243       -1.34906265741652
C            0.26110149573415        1.20534214589582       -1.59465924771987
S           -0.63511087933000        1.93117859502966       -0.17138823423451
P           -2.31945808738897        0.64152678054294       -0.10092322641028
S           -3.06521809924344        0.13322592003732       -1.82981743998495
O           -3.16818399693239        1.59395658611796        0.87572539339958
C           -4.29660652976384        1.08509331113432        1.67679492828425
C           -5.59360988207241        1.16613967209720        0.91167964447664
O           -1.90312529366259       -0.58420704721745        0.85504459576917
C           -2.03090787785889       -1.99942977078410        0.48918359415389
C           -3.35041809380554       -2.54895957912326        0.96937150067603
H            3.46921264528563       -2.85109698923847       -2.26374876713344
H            3.78010899287254       -1.17677744598920       -2.79095745728192
H            5.09582021960299       -2.36317943255737       -2.77897501265541
H            5.25566139833982       -0.81125342597665       -0.80529034232002
H            5.03933546216795       -2.50998444605778       -0.31805569946462
H            0.40302335197171       -0.48847833574826        2.46313619271881
H            1.05760907826255       -1.68977598071369        1.32863559676916
H            1.60260341681119       -2.29798678673972        3.69106804726702
H            3.08845176724825       -1.95925232110117        2.77982244984930
H            2.43602849575233       -0.74762630416355        3.91201914297984
H           -0.42707548480145        1.09156243098414       -2.43799755981995
H            1.04012952487355        1.92720078338956       -1.85862685965685
H           -4.06933094301874        0.06537304812209        1.99918925894450
H           -4.30478168353924        1.73662525486762        2.55301086578399
H           -5.77884492455094        2.18656295456642        0.56404372282059
H           -5.59825309098122        0.48959602216247        0.05338822234239
H           -6.41000888541203        0.87833507910742        1.58247596002914
H           -1.91721629044601       -2.09849084944901       -0.59356939845620
H           -1.18459181136038       -2.48286459566594        0.98256883487144
H           -4.18882131249655       -2.04743203500505        0.47604503894517
H           -3.39716698231382       -3.61616071619575        0.72792687241562
H           -3.45269650351962       -2.43677569785597        2.05252709809456
