
                                 *****************
                                 * O   R   C   A *
                                 *****************

                                            #,                                       
                                            ###                                      
                                            ####                                     
                                            #####                                    
                                            ######                                   
                                           ########,                                 
                                     ,,################,,,,,                         
                               ,,#################################,,                 
                          ,,##########################################,,             
                       ,#########################################, ''#####,          
                    ,#############################################,,   '####,        
                  ,##################################################,,,,####,       
                ,###########''''           ''''###############################       
              ,#####''   ,,,,##########,,,,          '''####'''          '####       
            ,##' ,,,,###########################,,,                        '##       
           ' ,,###''''                  '''############,,,                           
         ,,##''                                '''############,,,,        ,,,,,,###''
      ,#''                                            '''#######################'''  
     '                                                          ''''####''''         
             ,#######,   #######,   ,#######,      ##                                
            ,#'     '#,  ##    ##  ,#'     '#,    #''#        ,####,   ,####,        
            ##       ##  ##   ,#'  ##            #'  '#       #'       #'  '#        
            ##       ##  #######   ##           ,######,      #####,   #    #        
            '#,     ,#'  ##    ##  '#,     ,#' ,#      #,     #,   #   #,  ,#        
             '#######'   ##     ##  '#######'  #'      '#     '####' # '####'        



                #########################################################
                #                        -***-                          #
                #          Department of theory and spectroscopy        #
                #                                                       #
                #                      Frank Neese                      #
                #                                                       #
                #     Directorship, Architecture, Infrastructure        #
                #                    SHARK, DRIVERS                     #
                #        Core code/Algorithms in most modules           #
                #                                                       #
                #        Max Planck Institute fuer Kohlenforschung      #
                #                Kaiser Wilhelm Platz 1                 #
                #                 D-45470 Muelheim/Ruhr                 #
                #                      Germany                          #
                #                                                       #
                #                  All rights reserved                  #
                #                        -***-                          #
                #########################################################


                         Program Version 6.0.0  -   RELEASE  -


 With contributions from (in alphabetic order):
   Daniel Aravena         : Magnetic Suceptibility
   Michael Atanasov       : Ab Initio Ligand Field Theory (pilot matlab implementation)
   Alexander A. Auer      : GIAO ZORA, VPT2 properties, NMR spectrum
   Ute Becker             : All parallelization in ORCA, NUMFREQ, NUMCALC
   Giovanni Bistoni       : ED, misc. LED, open-shell LED, HFLD
   Martin Brehm           : Molecular dynamics
   Dmytro Bykov           : pre 5.0 version of the SCF Hessian
   Marcos Casanova-Páez   : Triplet and SCS-CIS(D). UHF-(DLPNO)-IP/EA/STEOM-CCSD. UHF-CVS-IP/STEOM-CCSD
   Vijay G. Chilkuri      : MRCI spin determinant printing, contributions to CSF-ICE
   Pauline Colinet        : FMM embedding
   Dipayan Datta          : RHF DLPNO-CCSD density
   Achintya Kumar Dutta   : EOM-CC, STEOM-CC
   Nicolas Foglia         : Exact transition moments, OPA infrastructure, MCD improvements
   Dmitry Ganyushin       : Spin-Orbit,Spin-Spin,Magnetic field MRCI
   Miquel Garcia          : C-PCM and meta-GGA Hessian, CCSD/C-PCM, Gaussian charge scheme
   Tiago L. C. Gouveia    : GS-ROHF, GS-ROCIS
   Yang Guo               : DLPNO-NEVPT2, F12-NEVPT2, CIM, IAO-localization
   Andreas Hansen         : Spin unrestricted coupled pair/coupled cluster methods
   Ingolf Harden          : AUTO-CI MPn and infrastructure 
   Benjamin Helmich-Paris : MC-RPA, TRAH-(SCF,CASSCF), AVAS, COSX integrals, SCF dyn. polar.
   Lee Huntington         : MR-EOM, pCC
   Robert Izsak           : Overlap fitted RIJCOSX, COSX-SCS-MP3, EOM
   Riya Kayal             : Wick's Theorem for AUTO-CI, AUTO-CI UHF-CCSDT
   Emily Kempfer          : AUTO-CI, RHF CISDT and CCSDT
   Christian Kollmar      : KDIIS, OOCD, Brueckner-CCSD(T), CCSD density, CASPT2, CASPT2-K, improved NEVPT2
   Axel Koslowski         : Symmetry handling
   Simone Kossmann        : Meta GGA functionals, TD-DFT gradient, OOMP2, (MP2 Hessian; deprecated post 5.0)
   Lucas Lang             : DCDCAS
   Marvin Lechner         : AUTO-CI (C++ implementation), FIC-MRCC
   Spencer Leger          : CASSCF response
   Dagmar Lenk            : GEPOL surface, SMD, ORCA-2-JSON
   Dimitrios Liakos       : Extrapolation schemes; Compound Job, initial MDCI parallelization
   Dimitrios Manganas     : Further ROCIS development; embedding schemes. LFT, Crystal Embedding
   Dimitrios Pantazis     : SARC Basis sets
   Anastasios Papadopoulos: AUTO-CI, single reference methods and gradients
   Taras Petrenko         : pre 6.0 DFT Hessian and TD-DFT gradient, (ASA, deprecated), ECA, 1-Electron XAS/XES, NRVS
   Peter Pinski           : DLPNO-MP2, DLPNO-MP2 Gradient
   Christoph Reimann      : Effective Core Potentials
   Marius Retegan         : Local ZFS, SOC
   Christoph Riplinger    : Optimizer, TS searches, QM/MM, DLPNO-CCSD(T), (RO)-DLPNO pert. Triples
   Michael Roemelt        : Original ROCIS implementation
   Masaaki Saitow         : Open-shell DLPNO-CCSD energy and density
   Barbara Sandhoefer     : DKH picture change effects
   Kantharuban Sivalingam : CASSCF convergence/infrastructure, NEVPT2 and variants, FIC-MRCI
   Bernardo de Souza      : ESD, SOC TD-DFT
   Georgi Stoychev        : AutoAux, RI-MP2 NMR, DLPNO-MP2 response, X2C
   Van Anh Tran           : RI-MP2 g-tensors
   Willem Van den Heuvel  : Paramagnetic NMR
   Zikuan Wang            : NOTCH, Electric field optimization 
   Frank Wennmohs         : Technical directorship and infrastructure
   Hang Xu                : AUTO-CI-Response properties 


 We gratefully acknowledge several colleagues who have allowed us to
 interface, adapt or use parts of their codes:
   Stefan Grimme, W. Hujo, H. Kruse, P. Pracht,  : VdW corrections, initial TS optimization,
                  C. Bannwarth, S. Ehlert,         DFT functionals, gCP, sTDA/sTD-DF
                  L. Wittmann, M. Mueller
   Ed Valeev, F. Pavosevic, A. Kumar             : LibInt (2-el integral package), F12 methods
   Garnet Chan, S. Sharma, J. Yang, R. Olivares  : DMRG
   Ulf Ekstrom                                   : XCFun DFT Library
   Mihaly Kallay                                 : mrcc  (arbitrary order and MRCC methods)
   Frank Weinhold                                : gennbo (NPA and NBO analysis)
   Simon Mueller                                 : openCOSMO-RS
   Christopher J. Cramer and Donald G. Truhlar   : smd solvation model
   Lars Goerigk                                  : TD-DFT with DH, B97 family of functionals
   V. Asgeirsson, H. Jonsson                     : NEB implementation
   FAccTs GmbH                                   : IRC, NEB, NEB-TS, DLPNO-Multilevel, CI-OPT
                                                   MM, QMMM, 2- and 3-layer-ONIOM, Crystal-QMMM,
                                                   LR-CPCM, SF, NACMEs, symmetry and pop. for TD-DFT,
                                                   nearIR, NL-DFT gradient (VV10), updates on ESD,
                                                   ML-optimized integration grids, MBIS, APM,
                                                   GOAT, DOCKER, SOLVATOR, interface openCOSMO-RS
   S Lehtola, MJT Oliveira, MAL Marques          : LibXC Library
   Liviu Ungur et al                             : ANISO software


 Your calculation uses the libint2 library for the computation of 2-el integrals
 For citations please refer to: http://libint.valeyev.net

 Your ORCA version has been built with support for libXC version: 6.2.2
 For citations please refer to: https://libxc.gitlab.io

 This ORCA versions uses:
   CBLAS   interface :  Fast vector & matrix operations
   LAPACKE interface :  Fast linear algebra routines
   SCALAPACK package :  Parallel linear algebra routines
   Shared memory     :  Shared parallel matrices
   BLAS/LAPACK       :  OpenBLAS 0.3.27  USE64BITINT DYNAMIC_ARCH NO_AFFINITY SapphireRapids SINGLE_THREADED
        Core in use  :  SapphireRapids
   Copyright (c) 2011-2014, The OpenBLAS Project


Your calculation utilizes the geometrical counterpoise correction gCP
Please cite in your paper:
H.Kruse, S. Grimme J.Chem.Phys., 136, (2012), 154101 
   

Your calculation utilizes the atom-pairwise dispersion correction
based on EEQ partial charges (D4)


================================================================================

----- Orbital basis set information -----
Your calculation utilizes the basis: def2-SV(P)
   F. Weigend and R. Ahlrichs, Phys. Chem. Chem. Phys. 7, 3297 (2005).

----- AuxJ basis set information -----
Your calculation utilizes the auxiliary basis: def2/J
   F. Weigend, Phys. Chem. Chem. Phys. 8, 1057 (2006).

================================================================================
                                        WARNINGS
                       Please study these warnings very carefully!
================================================================================


================================================================================
                                       INPUT FILE
================================================================================
NAME = sp.inp
|  1> ! pbe def2-sv(p) def2/J RI DEFGRID1 loosescf d4 GCP(DFT/SV(P)) printgap
|  2> %output
|  3>     printlevel normal
|  4> end
|  5> * xyz 0 1
|  6> C 4.2242656457 -0.8179372471 -2.3288424982
|  7> C 4.4743478749 0.2722730868 -1.307463945
|  8> O 3.5711148813 0.2056530198 -0.1882412816
|  9> P 2.0034800677 0.4566530376 -0.3257467371
| 10> S 1.5190248335 1.8655999865 -1.5880353366
| 11> O 1.6236134877 0.8004285168 1.1639240693
| 12> C 2.176278287 0.1067198304 2.3124061763
| 13> C 1.6434600699 0.7917157989 3.5518838553
| 14> S 1.2506823617 -1.4976683541 -0.7566503859
| 15> C 0.0032705318 -1.0849748256 -2.0054125885
| 16> S -1.7185761807 -1.3570877818 -1.4870365545
| 17> P -1.7331908347 -0.3738774881 0.4097883334
| 18> S -0.948254386 -1.3238610148 1.9266068495
| 19> O -3.284387146 -0.0853647617 0.5847334995
| 20> C -4.20653119 -1.1545250744 0.8805576926
| 21> C -5.5176688546 -0.530726214 1.312497425
| 22> O -1.1257929926 1.0594940258 0.1633689308
| 23> C -1.8234017047 2.0717486358 -0.6140288488
| 24> C -2.5629999303 3.0204346944 0.3037915233
| 25> H 3.2740337938 -0.6475663382 -2.8323291774
| 26> H 5.0200126232 -0.8011741303 -3.0665891308
| 27> H 4.198853284 -1.7918473228 -1.8464938779
| 28> H 4.3761335039 1.2600084419 -1.7681924102
| 29> H 5.4586079044 0.1738235987 -0.8473891439
| 30> H 1.8561760694 -0.9380303515 2.2698284856
| 31> H 3.2647164722 0.160830954 2.2541256936
| 32> H 2.0701891202 0.3167967321 4.4291686548
| 33> H 1.9077474223 1.84528156 3.5406388993
| 34> H 0.5611798061 0.6970515282 3.5868490222
| 35> H 0.1496253432 -1.75137374 -2.8521627601
| 36> H 0.1389717133 -0.0393603942 -2.297920461
| 37> H -4.3276094517 -1.758582404 -0.0228610552
| 38> H -3.7749917123 -1.776704204 1.6715462007
| 39> H -5.9068416514 0.103126987 0.521038956
| 40> H -6.2316248076 -1.3195106592 1.5248661862
| 41> H -5.3703652582 0.0684982494 2.206664151
| 42> H -1.0342087135 2.5851415769 -1.1676538055
| 43> H -2.5041561899 1.5769227907 -1.3107463131
| 44> H -3.0176829034 3.8044258783 -0.2936257116
| 45> H -3.3361537611 2.4889237855 0.8524785121
| 46> H -1.8695165504 3.4654221931 1.0123689429
| 47> *
| 48> 
| 49>                          ****END OF INPUT****
================================================================================

                       ****************************
                       * Single Point Calculation *
                       ****************************

---------------------------------
CARTESIAN COORDINATES (ANGSTROEM)
---------------------------------
  C      4.224266   -0.817937   -2.328842
  C      4.474348    0.272273   -1.307464
  O      3.571115    0.205653   -0.188241
  P      2.003480    0.456653   -0.325747
  S      1.519025    1.865600   -1.588035
  O      1.623613    0.800429    1.163924
  C      2.176278    0.106720    2.312406
  C      1.643460    0.791716    3.551884
  S      1.250682   -1.497668   -0.756650
  C      0.003271   -1.084975   -2.005413
  S     -1.718576   -1.357088   -1.487037
  P     -1.733191   -0.373877    0.409788
  S     -0.948254   -1.323861    1.926607
  O     -3.284387   -0.085365    0.584733
  C     -4.206531   -1.154525    0.880558
  C     -5.517669   -0.530726    1.312497
  O     -1.125793    1.059494    0.163369
  C     -1.823402    2.071749   -0.614029
  C     -2.563000    3.020435    0.303792
  H      3.274034   -0.647566   -2.832329
  H      5.020013   -0.801174   -3.066589
  H      4.198853   -1.791847   -1.846494
  H      4.376134    1.260008   -1.768192
  H      5.458608    0.173824   -0.847389
  H      1.856176   -0.938030    2.269828
  H      3.264716    0.160831    2.254126
  H      2.070189    0.316797    4.429169
  H      1.907747    1.845282    3.540639
  H      0.561180    0.697052    3.586849
  H      0.149625   -1.751374   -2.852163
  H      0.138972   -0.039360   -2.297920
  H     -4.327609   -1.758582   -0.022861
  H     -3.774992   -1.776704    1.671546
  H     -5.906842    0.103127    0.521039
  H     -6.231625   -1.319511    1.524866
  H     -5.370365    0.068498    2.206664
  H     -1.034209    2.585142   -1.167654
  H     -2.504156    1.576923   -1.310746
  H     -3.017683    3.804426   -0.293626
  H     -3.336154    2.488924    0.852479
  H     -1.869517    3.465422    1.012369

----------------------------
CARTESIAN COORDINATES (A.U.)
----------------------------
  NO LB      ZA    FRAG     MASS         X           Y           Z
   0 C     6.0000    0    12.011    7.982705   -1.545677   -4.400875
   1 C     6.0000    0    12.011    8.455292    0.514522   -2.470749
   2 O     8.0000    0    15.999    6.748429    0.388628   -0.355724
   3 P    15.0000    0    30.974    3.786029    0.862949   -0.615572
   4 S    16.0000    0    32.060    2.870541    3.525473   -3.000952
   5 O     8.0000    0    15.999    3.068185    1.512591    2.199498
   6 C     6.0000    0    12.011    4.112570    0.201671    4.369814
   7 C     6.0000    0    12.011    3.105689    1.496126    6.712088
   8 S    16.0000    0    32.060    2.363447   -2.830183   -1.429862
   9 C     6.0000    0    12.011    0.006180   -2.050305   -3.789681
  10 S    16.0000    0    32.060   -3.247638   -2.564524   -2.810092
  11 P    15.0000    0    30.974   -3.275256   -0.706526    0.774388
  12 S    16.0000    0    32.060   -1.791941   -2.501735    3.640759
  13 O     8.0000    0    15.999   -6.206592   -0.161316    1.104986
  14 C     6.0000    0    12.011   -7.949192   -2.181736    1.664013
  15 C     6.0000    0    12.011  -10.426883   -1.002927    2.480261
  16 O     8.0000    0    15.999   -2.127440    2.002154    0.308723
  17 C     6.0000    0    12.011   -3.445730    3.915038   -1.160346
  18 C     6.0000    0    12.011   -4.843368    5.707794    0.574083
  19 H     1.0000    0     1.008    6.187027   -1.223723   -5.352326
  20 H     1.0000    0     1.008    9.486449   -1.514000   -5.795014
  21 H     1.0000    0     1.008    7.934683   -3.386101   -3.489368
  22 H     1.0000    0     1.008    8.269694    2.381071   -3.341399
  23 H     1.0000    0     1.008   10.315274    0.328479   -1.601333
  24 H     1.0000    0     1.008    3.507664   -1.772620    4.289354
  25 H     1.0000    0     1.008    6.169420    0.303926    4.259680
  26 H     1.0000    0     1.008    3.912090    0.598659    8.369916
  27 H     1.0000    0     1.008    3.605120    3.487077    6.690838
  28 H     1.0000    0     1.008    1.060476    1.317236    6.778162
  29 H     1.0000    0     1.008    0.282751   -3.309617   -5.389807
  30 H     1.0000    0     1.008    0.262618   -0.074380   -4.342440
  31 H     1.0000    0     1.008   -8.177997   -3.323239   -0.043201
  32 H     1.0000    0     1.008   -7.133700   -3.357484    3.158765
  33 H     1.0000    0     1.008  -11.162313    0.194882    0.984621
  34 H     1.0000    0     1.008  -11.776064   -2.493514    2.881579
  35 H     1.0000    0     1.008  -10.148520    0.129443    4.169991
  36 H     1.0000    0     1.008   -1.954371    4.885210   -2.206546
  37 H     1.0000    0     1.008   -4.732169    2.979952   -2.476952
  38 H     1.0000    0     1.008   -5.702594    7.189323   -0.554872
  39 H     1.0000    0     1.008   -6.304417    4.703384    1.610951
  40 H     1.0000    0     1.008   -3.532874    6.548699    1.913100

--------------------------------
INTERNAL COORDINATES (ANGSTROEM)
--------------------------------
 C      0   0   0     0.000000000000     0.00000000     0.00000000
 C      1   0   0     1.514699258084     0.00000000     0.00000000
 O      2   1   0     1.439766454785   112.78684867     0.00000000
 P      3   2   1     1.593545627850   122.87309471   294.20352445
 S      4   3   2     1.952741889546   114.42375279   322.25325380
 O      4   3   2     1.575309274441   100.95231215   200.34041214
 C      6   4   3     1.451096575722   123.52267530   319.58715294
 C      7   6   4     1.513082828557   107.32556853   175.98063161
 S      4   3   2     2.138166140122   102.69576729    89.10599306
 C      9   4   3     1.812666340087    99.96377605   220.16574244
 S     10   9   4     1.818657547452   114.90439775   247.64397220
 P     11  10   9     2.136553468815   100.99203558    49.14567901
 S     12  11  10     1.954311218891   117.55581465   281.56757401
 O     12  11  10     1.587468236100   100.84533608   157.93041742
 C     14  12  11     1.442555151584   120.83290780    72.67934957
 C     15  14  12     1.514852773769   107.85154958   166.54451968
 O     12  11  10     1.576137226711   106.08506776    50.62937470
 C     17  12  11     1.454532439786   122.11542655    68.50095713
 C     18  17  12     1.513077991557   110.27799530    97.43023175
 H      1   2   3     1.088790914316   110.07728922    68.75649840
 H      1   2   3     1.085248519095   109.03922648   188.10402959
 H      1   2   3     1.087109385105   110.45523084   308.38538627
 H      2   1   3     1.094320754181   110.54456004   238.68797784
 H      2   1   3     1.090930304825   111.61586082   116.06959163
 H      7   6   4     1.093517824289   108.32662815   296.11757927
 H      7   6   4     1.091339686515   108.29311174    55.04293543
 H      8   7   6     1.085022774790   109.00714167   182.10095966
 H      8   7   6     1.086266572549   110.17761435   302.53608873
 H      8   7   6     1.086974910683   109.72729833    62.66410943
 H     10   9   4     1.087424984557   107.71571559   131.12141966
 H     10   9   4     1.094205284801   108.44409849    10.73939454
 H     15  14  12     1.093485544841   108.10640075   287.28792669
 H     15  14  12     1.094986762509   108.50204651    45.43400599
 H     16  15  14     1.086108583126   110.03964926    59.19343788
 H     16  15  14     1.084902988542   109.02659635   179.10396085
 H     16  15  14     1.086417249925   110.14835869   298.93033564
 H     18  17  12     1.092198920532   104.56557039   217.37005349
 H     18  17  12     1.092563275586   108.93345104   334.78134411
 H     19  18  17     1.085488892166   108.88934566   176.13026883
 H     19  18  17     1.086889186642   110.32340216   296.27102379
 H     19  18  17     1.086745154930   109.89647160    56.44588141

---------------------------
INTERNAL COORDINATES (A.U.)
---------------------------
 C      0   0   0     0.000000000000     0.00000000     0.00000000
 C      1   0   0     2.862366773033     0.00000000     0.00000000
 O      2   1   0     2.720764296350   112.78684867     0.00000000
 P      3   2   1     3.011364818543   122.87309471   294.20352445
 S      4   3   2     3.690147381477   114.42375279   322.25325380
 O      4   3   2     2.976903104920   100.95231215   200.34041214
 C      6   4   3     2.742175121985   123.52267530   319.58715294
 C      7   6   4     2.859312163912   107.32556853   175.98063161
 S      4   3   2     4.040548433654   102.69576729    89.10599306
 C      9   4   3     3.425442954941    99.96377605   220.16574244
 S     10   9   4     3.436764696073   114.90439775   247.64397220
 P     11  10   9     4.037500926540   100.99203558    49.14567901
 S     12  11  10     3.693112984154   117.55581465   281.56757401
 O     12  11  10     2.999880212529   100.84533608   157.93041742
 C     14  12  11     2.726034169570   120.83290780    72.67934957
 C     15  14  12     2.862656875634   107.85154958   166.54451968
 O     12  11  10     2.978467707963   106.08506776    50.62937470
 C     17  12  11     2.748667964101   122.11542655    68.50095713
 C     18  17  12     2.859303023307   110.27799530    97.43023175
 H      1   2   3     2.057516645159   110.07728922    68.75649840
 H      1   2   3     2.050822488333   109.03922648   188.10402959
 H      1   2   3     2.054339015463   110.45523084   308.38538627
 H      2   1   3     2.067966528068   110.54456004   238.68797784
 H      2   1   3     2.061559507315   111.61586082   116.06959163
 H      7   6   4     2.066449210468   108.32662815   296.11757927
 H      7   6   4     2.062333126593   108.29311174    55.04293543
 H      8   7   6     2.050395893421   109.00714167   182.10095966
 H      8   7   6     2.052746330550   110.17761435   302.53608873
 H      8   7   6     2.054084895635   109.72729833    62.66410943
 H     10   9   4     2.054935411996   107.71571559   131.12141966
 H     10   9   4     2.067748322564   108.44409849    10.73939454
 H     15  14  12     2.066388211151   108.10640075   287.28792669
 H     15  14  12     2.069225101411   108.50204651    45.43400599
 H     16  15  14     2.052447773808   110.03964926    59.19343788
 H     16  15  14     2.050169530217   109.02659635   179.10396085
 H     16  15  14     2.053031069526   110.14835869   298.93033564
 H     18  17  12     2.063956843570   104.56557039   217.37005349
 H     18  17  12     2.064645374838   108.93345104   334.78134411
 H     19  18  17     2.051276727607   108.88934566   176.13026883
 H     19  18  17     2.053922900673   110.32340216   296.27102379
 H     19  18  17     2.053650720183   109.89647160    56.44588141

---------------------
BASIS SET INFORMATION
---------------------
There are 5 groups of distinct atoms

 Group   1 Type C   : 7s4p1d contracted to 3s2p1d pattern {511/31/1}
 Group   2 Type O   : 7s4p1d contracted to 3s2p1d pattern {511/31/1}
 Group   3 Type P   : 10s7p1d contracted to 4s3p1d pattern {5311/511/1}
 Group   4 Type S   : 10s7p1d contracted to 4s3p1d pattern {5311/511/1}
 Group   5 Type H   : 4s contracted to 2s pattern {31}

Atom   0C    basis set group =>   1
Atom   1C    basis set group =>   1
Atom   2O    basis set group =>   2
Atom   3P    basis set group =>   3
Atom   4S    basis set group =>   4
Atom   5O    basis set group =>   2
Atom   6C    basis set group =>   1
Atom   7C    basis set group =>   1
Atom   8S    basis set group =>   4
Atom   9C    basis set group =>   1
Atom  10S    basis set group =>   4
Atom  11P    basis set group =>   3
Atom  12S    basis set group =>   4
Atom  13O    basis set group =>   2
Atom  14C    basis set group =>   1
Atom  15C    basis set group =>   1
Atom  16O    basis set group =>   2
Atom  17C    basis set group =>   1
Atom  18C    basis set group =>   1
Atom  19H    basis set group =>   5
Atom  20H    basis set group =>   5
Atom  21H    basis set group =>   5
Atom  22H    basis set group =>   5
Atom  23H    basis set group =>   5
Atom  24H    basis set group =>   5
Atom  25H    basis set group =>   5
Atom  26H    basis set group =>   5
Atom  27H    basis set group =>   5
Atom  28H    basis set group =>   5
Atom  29H    basis set group =>   5
Atom  30H    basis set group =>   5
Atom  31H    basis set group =>   5
Atom  32H    basis set group =>   5
Atom  33H    basis set group =>   5
Atom  34H    basis set group =>   5
Atom  35H    basis set group =>   5
Atom  36H    basis set group =>   5
Atom  37H    basis set group =>   5
Atom  38H    basis set group =>   5
Atom  39H    basis set group =>   5
Atom  40H    basis set group =>   5
---------------------------------
AUXILIARY/J BASIS SET INFORMATION
---------------------------------
There are 5 groups of distinct atoms

 Group   1 Type C   : 12s5p4d2f1g contracted to 6s4p3d1f1g pattern {711111/2111/211/2/1}
 Group   2 Type O   : 12s5p4d2f1g contracted to 6s4p3d1f1g pattern {711111/2111/211/2/1}
 Group   3 Type P   : 14s5p5d2f1g contracted to 8s4p3d1f1g pattern {71111111/2111/311/2/1}
 Group   4 Type S   : 14s5p5d2f1g contracted to 8s4p3d1f1g pattern {71111111/2111/311/2/1}
 Group   5 Type H   : 5s2p1d contracted to 3s1p1d pattern {311/2/1}

Atom   0C    basis set group =>   1
Atom   1C    basis set group =>   1
Atom   2O    basis set group =>   2
Atom   3P    basis set group =>   3
Atom   4S    basis set group =>   4
Atom   5O    basis set group =>   2
Atom   6C    basis set group =>   1
Atom   7C    basis set group =>   1
Atom   8S    basis set group =>   4
Atom   9C    basis set group =>   1
Atom  10S    basis set group =>   4
Atom  11P    basis set group =>   3
Atom  12S    basis set group =>   4
Atom  13O    basis set group =>   2
Atom  14C    basis set group =>   1
Atom  15C    basis set group =>   1
Atom  16O    basis set group =>   2
Atom  17C    basis set group =>   1
Atom  18C    basis set group =>   1
Atom  19H    basis set group =>   5
Atom  20H    basis set group =>   5
Atom  21H    basis set group =>   5
Atom  22H    basis set group =>   5
Atom  23H    basis set group =>   5
Atom  24H    basis set group =>   5
Atom  25H    basis set group =>   5
Atom  26H    basis set group =>   5
Atom  27H    basis set group =>   5
Atom  28H    basis set group =>   5
Atom  29H    basis set group =>   5
Atom  30H    basis set group =>   5
Atom  31H    basis set group =>   5
Atom  32H    basis set group =>   5
Atom  33H    basis set group =>   5
Atom  34H    basis set group =>   5
Atom  35H    basis set group =>   5
Atom  36H    basis set group =>   5
Atom  37H    basis set group =>   5
Atom  38H    basis set group =>   5
Atom  39H    basis set group =>   5
Atom  40H    basis set group =>   5
------------------------------------------------------------------------------
                             ORCA STARTUP CALCULATIONS
                           -- RI-GTO INTEGRALS CHOSEN --
------------------------------------------------------------------------------
------------------------------------------------------------------------------
                   ___                                                        
                  /   \      - P O W E R E D   B Y -                         
                 /     \                                                     
                 |  |  |   _    _      __       _____    __    __             
                 |  |  |  | |  | |    /  \     |  _  \  |  |  /  |          
                  \  \/   | |  | |   /    \    | | | |  |  | /  /          
                 / \  \   | |__| |  /  /\  \   | |_| |  |  |/  /          
                |  |  |   |  __  | /  /__\  \  |    /   |      \           
                |  |  |   | |  | | |   __   |  |    \   |  |\   \          
                \     /   | |  | | |  |  |  |  | |\  \  |  | \   \       
                 \___/    |_|  |_| |__|  |__|  |_| \__\ |__|  \__/        
                                                                              
                      - O R C A' S   B I G   F R I E N D -                    
                                      &                                       
                       - I N T E G R A L  F E E D E R -                       
                                                                              
 v1 FN, 2020, v2 2021, v3 2022-2024                                           
------------------------------------------------------------------------------


----------------------
SHARK INTEGRAL PACKAGE
----------------------

Number of atoms                             ...     41
Number of basis functions                   ...    334
Number of shells                            ...    170
Maximum angular momentum                    ...      2
Integral batch strategy                     ... SHARK/LIBINT Hybrid
RI-J (if used) integral strategy            ... SPLIT-RIJ (Revised 2003 algorithm where possible)
Printlevel                                  ...      1
Contraction scheme used                     ... SEGMENTED contraction
Prescreening option                         ... SCHWARTZ
   Thresh                                   ... 1.000e-09
   Tcut                                     ... 1.000e-10
   Tpresel                                  ... 1.000e-10 
Coulomb Range Separation                    ... NOT USED
Exchange Range Separation                   ... NOT USED
Multipole approximations                    ... NOT USED
Finite Nucleus Model                        ... NOT USED
CABS basis                                  ... NOT available
Auxiliary Coulomb fitting basis             ... AVAILABLE
   # of basis functions in Aux-J            ...   1185
   # of shells in Aux-J                     ...    407
   Maximum angular momentum in Aux-J        ...      4
Auxiliary J/K fitting basis                 ... NOT available
Auxiliary Correlation fitting basis         ... NOT available
Auxiliary 'external' fitting basis          ... NOT available

Checking pre-screening integrals            ... done (  0.0 sec) Dimension = 170
Check shell pair data                       ... done (  0.0 sec)
Shell pair information
Shell pair cut-off parameter TPreSel        ...   1.0e-10
Total number of shell pairs                 ...     14535
Shell pairs after pre-screening             ...     10486
Total number of primitive shell pairs       ...     62501
Primitive shell pairs kept                  ...     25972
          la=0 lb=0:   4031 shell pairs
          la=1 lb=0:   3569 shell pairs
          la=1 lb=1:    832 shell pairs
          la=2 lb=0:   1328 shell pairs
          la=2 lb=1:    609 shell pairs
          la=2 lb=2:    117 shell pairs

Calculating one electron integrals          ... done (  0.1 sec)
Calculating RI/J V-Matrix + Cholesky decomp.... done (  0.1 sec)
Calculating Nuclear repulsion               ... done (  0.0 sec) ENN=   2821.074383385880 Eh

Diagonalization of the overlap matrix:
Smallest eigenvalue                        ... 3.200e-03
Time for diagonalization                   ...    0.010 sec
Threshold for overlap eigenvalues          ... 1.000e-07
Number of eigenvalues below threshold      ... 0
Time for construction of square roots      ...    0.028 sec
Total time needed                          ...    0.047 sec

-------------------
DFT GRID GENERATION
-------------------

General Integration Accuracy     IntAcc      ... 4.159
Radial Grid Type                 RadialGrid  ... OptM3 with GC (2021)
Angular Grid (max. ang.)         AngularGrid ... 3 (Lebedev-194)
Angular grid pruning method      GridPruning ... 4 (adaptive)
Weight generation scheme         WeightScheme... mBecke (2022)
Basis function cutoff            BFCut       ... 1.0000e-10
Integration weight cutoff        WCut        ... 1.0000e-14
Partially contracted basis set               ... off
Rotationally invariant grid construction     ... off
Angular grids for H and He will be reduced by one unit

Total number of grid points                  ...    97456
Total number of batches                      ...     1544
Average number of points per batch           ...       63
Average number of grid points per atom       ...     2377
Initializing property integral containers    ... done (  0.0 sec)

SHARK setup successfully completed in   1.6 seconds

Maximum memory used throughout the entire STARTUP-calculation: 51.9 MB
-------------------------------------------------------------------------------
                                 ORCA GUESS
                   Start orbitals & Density for SCF / CASSCF
-------------------------------------------------------------------------------

------------
SCF SETTINGS
------------
Hamiltonian:
 Density Functional     Method          .... DFT(GTOs)
 Exchange Functional    Exchange        .... PBE
   PBE kappa parameter   XKappa         ....  0.804000
   PBE mue parameter    XMuePBE         ....  0.219520
 Correlation Functional Correlation     .... PBE
   PBE beta parameter  CBetaPBE         ....  0.066725
 LDA part of GGA corr.  LDAOpt          .... PW91-LDA
 Gradients option       PostSCFGGA      .... off
   NL short-range parameter             ....  6.400000
 RI-approximation to the Coulomb term is turned on
   Number of AuxJ basis functions       .... 1185


General Settings:
 Integral files         IntName         .... sp
 Hartree-Fock type      HFTyp           .... RHF
 Total Charge           Charge          ....    0
 Multiplicity           Mult            ....    1
 Number of Electrons    NEL             ....  202
 Basis Dimension        Dim             ....  334
 Nuclear Repulsion      ENuc            ....   2821.0743833859 Eh

Convergence Acceleration:
 AO-DIIS                CNVDIIS         .... on
   Start iteration      DIISMaxIt       ....    12
   Startup error        DIISStart       ....  0.200000
   # of expansion vecs  DIISMaxEq       ....     5
   Bias factor          DIISBfac        ....   1.050
   Max. coefficient     DIISMaxC        ....  10.000
 MO-DIIS                CNVKDIIS        .... off
 Trust-Rad. Augm. Hess. CNVTRAH         .... auto
   Auto Start mean grad. ratio tolernc. ....  1.125000
   Auto Start start iteration           ....    50
   Auto Start num. interpolation iter.  ....    10
   Max. Number of Micro iterations      ....    24
   Max. Number of Macro iterations      .... Maxiter - #DIIS iter
   Number of Davidson start vectors     ....     2
   Converg. threshold    (grad. norm)   ....   1.000e-04
   Grad. Scal. Fac. for Micro threshold ....   0.100
   Minimum threshold for Micro iter.    ....   1.000e-02
   NR start threshold (gradient norm)   ....   1.000e-04
   Initial trust radius                 ....   0.400
   Minimum AH scaling param. (alpha)    ....   1.000
   Maximum AH scaling param. (alpha)    .... 1000.000
   Quad. conv. algorithm                .... NR
   White noise on init. David. guess    .... on
   Maximum white noise                  ....   0.010
   Pseudo random numbers                .... off
   Inactive MOs                         .... canonical
   Orbital update algorithm             .... Taylor
   Preconditioner                       .... Diag
   Full preconditioner red. dimension   ....   250
 SOSCF                  CNVSOSCF        .... on
   Start iteration      SOSCFMaxIt      ....   150
   Startup grad/error   SOSCFStart      ....  0.003300
   Hessian update       SOSCFHessUp     .... L-BFGS
 Level Shifting         CNVShift        .... on
   Level shift para.    LevelShift      ....    0.2500
   Turn off err/grad.   ShiftErr        ....    0.0010
 Zerner damping         CNVZerner       .... off
 Static damping         CNVDamp         .... on
   Fraction old density DampFac         ....    0.7000
   Max. Damping (<1)    DampMax         ....    0.9800
   Min. Damping (>=0)   DampMin         ....    0.0000
   Turn off err/grad.   DampErr         ....    0.1000

SCF Procedure:
 Maximum # iterations   MaxIter         ....   125
 SCF integral mode      SCFMode         .... Direct
   Integral package                     .... SHARK and LIBINT hybrid scheme
 Reset frequency        DirectResetFreq ....    20
 Integral Threshold     Thresh          ....  1.000e-09 Eh
 Primitive CutOff       TCut            ....  1.000e-10 Eh

Convergence Tolerance:
 Convergence Check Mode ConvCheckMode   .... Total+1el-Energy
 Convergence forced     ConvForced      .... 0
 Energy Change          TolE            ....  1.000e-05 Eh
 1-El. energy change                    ....  1.000e-02 Eh
 Orbital Gradient       TolG            ....  1.000e-04
 Orbital Rotation angle TolX            ....  1.000e-04
 DIIS Error             TolErr          ....  5.000e-04

------------------------------
INITIAL GUESS: MODEL POTENTIAL
------------------------------
Loading Hartree-Fock densities                     ... done
Calculating cut-offs                               ... done
Initializing the effective Hamiltonian             ... done
Setting up the integral package (SHARK)            ... done
Starting the Coulomb interaction                   ... done (   0.6 sec)
Making the grid                                    ... done (   0.6 sec)
Mapping shells                                     ... done
Starting the XC term evaluation                    ... done (   0.4 sec)
  promolecular density results
     # of electrons  =    201.993330856
     EX              =   -229.997467755
     EC              =     -7.287826289
     EX+EC           =   -237.285294044
Transforming the Hamiltonian                       ... done (   0.0 sec)
Diagonalizing the Hamiltonian                      ... done (   0.0 sec)
Back transforming the eigenvectors                 ... done (   0.0 sec)
Now organizing SCF variables                       ... done
                      ------------------
                      INITIAL GUESS DONE (   1.6 sec)
                      ------------------
             **** ENERGY FILE WAS UPDATED (sp.en.tmp) ****
Finished Guess after   1.9 sec
Maximum memory used throughout the entire GUESS-calculation: 39.5 MB

-------------------------------------------------------------------------------------------
                                      ORCA LEAN-SCF
                              memory conserving SCF solver
-------------------------------------------------------------------------------------------

----------------------------------------D-I-I-S--------------------------------------------
Iteration    Energy (Eh)           Delta-E    RMSDP     MaxDP     DIISErr   Damp  Time(sec)
-------------------------------------------------------------------------------------------
               ***  Starting incremental Fock matrix formation  ***
    1    -2929.1837261437162852     0.00e+00  2.73e-03  1.41e-01  1.78e-01  0.700   2.3
    2    -2929.4109102855359197    -2.27e-01  1.74e-03  7.27e-02  7.38e-02  0.700   2.0
                               ***Turning on AO-DIIS***
    3    -2929.4814824956442862    -7.06e-02  6.84e-04  1.88e-02  2.09e-02  0.700   2.0
    4    -2929.5267595644813809    -4.53e-02  1.06e-03  3.44e-02  1.15e-02  0.000   2.0
    5    -2929.6329122899901449    -1.06e-01  3.14e-04  1.22e-02  8.43e-03  0.000   1.9
                              *** Initializing SOSCF ***
---------------------------------------S-O-S-C-F--------------------------------------
Iteration    Energy (Eh)           Delta-E    RMSDP     MaxDP     MaxGrad    Time(sec)
--------------------------------------------------------------------------------------
    6    -2929.6340085065689891    -1.10e-03  1.10e-04  3.45e-03  2.07e-03     1.9
               *** Restarting incremental Fock matrix formation ***
    7    -2929.6341435112494764    -1.35e-04  7.21e-05  2.05e-03  2.12e-04     2.3
    8    -2929.6341469431158657    -3.43e-06  3.44e-05  8.32e-04  1.99e-04     1.8
                 **** Energy Check signals convergence ****

               *****************************************************
               *                     SUCCESS                       *
               *           SCF CONVERGED AFTER   8 CYCLES          *
               *****************************************************

             **** ENERGY FILE WAS UPDATED (sp.en.tmp) ****

----------------
TOTAL SCF ENERGY
----------------

Total Energy       :      -2929.63414694311587 Eh          -79719.39799 eV

Components:
Nuclear Repulsion  :       2821.07438338588008 Eh           76765.33665 eV
Electronic Energy  :      -5750.70853032899595 Eh         -156484.73464 eV
One Electron Energy:      -9661.36168676446505 Eh         -262899.01702 eV
Two Electron Energy:       3910.65315643546910 Eh          106414.28238 eV

Virial components:
Potential Energy   :      -5848.92891800392135 Eh         -159157.44727 eV
Kinetic Energy     :       2919.29477106080503 Eh           79438.04927 eV
Virial Ratio       :          2.00354173754045

DFT components:
N(Alpha)           :      101.000049897035 electrons
N(Beta)            :      101.000049897035 electrons
N(Total)           :      202.000099794070 electrons
E(X)               :     -231.805538618991 Eh       
E(C)               :       -7.296297251869 Eh       
E(XC)              :     -239.101835870860 Eh       

---------------
SCF CONVERGENCE
---------------

  Last Energy change         ...    3.4319e-06  Tolerance :   1.0000e-05
  Last MAX-Density change    ...    8.3241e-04  Tolerance :   1.0000e-03
  Last RMS-Density change    ...    3.4379e-05  Tolerance :   1.0000e-04
  Last DIIS Error            ...    2.0676e-03  Tolerance :   5.0000e-04
  Last Orbital Gradient      ...    1.9948e-04  Tolerance :   1.0000e-04
  Last Orbital Rotation      ...    3.9145e-04  Tolerance :   1.0000e-04


----------------
ORBITAL ENERGIES
----------------

  NO   OCC          E(Eh)            E(eV) 
   0   2.0000     -88.040199     -2395.6956 
   1   2.0000     -88.036231     -2395.5876 
   2   2.0000     -87.989203     -2394.3079 
   3   2.0000     -87.980094     -2394.0601 
   4   2.0000     -76.424663     -2079.6208 
   5   2.0000     -76.423471     -2079.5884 
   6   2.0000     -18.793222      -511.3896 
   7   2.0000     -18.791057      -511.3307 
   8   2.0000     -18.789347      -511.2841 
   9   2.0000     -18.782627      -511.1013 
  10   2.0000      -9.954892      -270.8864 
  11   2.0000      -9.953931      -270.8602 
  12   2.0000      -9.952571      -270.8232 
  13   2.0000      -9.944907      -270.6147 
  14   2.0000      -9.942914      -270.5604 
  15   2.0000      -9.890376      -269.1308 
  16   2.0000      -9.883628      -268.9472 
  17   2.0000      -9.879398      -268.8321 
  18   2.0000      -9.873847      -268.6810 
  19   2.0000      -7.684706      -209.1115 
  20   2.0000      -7.681621      -209.0275 
  21   2.0000      -7.634286      -207.7395 
  22   2.0000      -7.625205      -207.4924 
  23   2.0000      -6.422073      -174.7535 
  24   2.0000      -6.420997      -174.7242 
  25   2.0000      -5.712528      -155.4458 
  26   2.0000      -5.709462      -155.3623 
  27   2.0000      -5.709318      -155.3584 
  28   2.0000      -5.706101      -155.2709 
  29   2.0000      -5.701667      -155.1503 
  30   2.0000      -5.698659      -155.0684 
  31   2.0000      -5.663094      -154.1006 
  32   2.0000      -5.654910      -153.8779 
  33   2.0000      -5.654449      -153.8654 
  34   2.0000      -5.654212      -153.8589 
  35   2.0000      -5.645776      -153.6294 
  36   2.0000      -5.645251      -153.6151 
  37   2.0000      -4.644890      -126.3939 
  38   2.0000      -4.644190      -126.3748 
  39   2.0000      -4.643497      -126.3560 
  40   2.0000      -4.642842      -126.3382 
  41   2.0000      -4.642694      -126.3341 
  42   2.0000      -4.640809      -126.2828 
  43   2.0000      -0.988056       -26.8864 
  44   2.0000      -0.983674       -26.7671 
  45   2.0000      -0.944005       -25.6877 
  46   2.0000      -0.937676       -25.5155 
  47   2.0000      -0.757746       -20.6193 
  48   2.0000      -0.718159       -19.5421 
  49   2.0000      -0.707773       -19.2595 
  50   2.0000      -0.690193       -18.7811 
  51   2.0000      -0.685651       -18.6575 
  52   2.0000      -0.670068       -18.2335 
  53   2.0000      -0.646953       -17.6045 
  54   2.0000      -0.637206       -17.3392 
  55   2.0000      -0.593238       -16.1428 
  56   2.0000      -0.584144       -15.8954 
  57   2.0000      -0.566939       -15.4272 
  58   2.0000      -0.564666       -15.3654 
  59   2.0000      -0.560588       -15.2544 
  60   2.0000      -0.508824       -13.8458 
  61   2.0000      -0.499015       -13.5789 
  62   2.0000      -0.478399       -13.0179 
  63   2.0000      -0.470411       -12.8005 
  64   2.0000      -0.450776       -12.2662 
  65   2.0000      -0.443323       -12.0634 
  66   2.0000      -0.440771       -11.9940 
  67   2.0000      -0.435817       -11.8592 
  68   2.0000      -0.426383       -11.6025 
  69   2.0000      -0.416023       -11.3205 
  70   2.0000      -0.405139       -11.0244 
  71   2.0000      -0.389278       -10.5928 
  72   2.0000      -0.387044       -10.5320 
  73   2.0000      -0.386481       -10.5167 
  74   2.0000      -0.378562       -10.3012 
  75   2.0000      -0.362585        -9.8664 
  76   2.0000      -0.361200        -9.8288 
  77   2.0000      -0.356949        -9.7131 
  78   2.0000      -0.350903        -9.5485 
  79   2.0000      -0.349807        -9.5187 
  80   2.0000      -0.346183        -9.4201 
  81   2.0000      -0.341172        -9.2838 
  82   2.0000      -0.336820        -9.1653 
  83   2.0000      -0.335856        -9.1391 
  84   2.0000      -0.325918        -8.8687 
  85   2.0000      -0.317255        -8.6329 
  86   2.0000      -0.309271        -8.4157 
  87   2.0000      -0.301571        -8.2062 
  88   2.0000      -0.298877        -8.1328 
  89   2.0000      -0.293265        -7.9801 
  90   2.0000      -0.288486        -7.8501 
  91   2.0000      -0.268687        -7.3113 
  92   2.0000      -0.263938        -7.1821 
  93   2.0000      -0.257044        -6.9945 
  94   2.0000      -0.255458        -6.9514 
  95   2.0000      -0.237431        -6.4608 
  96   2.0000      -0.221748        -6.0341 
  97   2.0000      -0.209223        -5.6933 
  98   2.0000      -0.206524        -5.6198 
  99   2.0000      -0.192441        -5.2366 
 100   2.0000      -0.185575        -5.0497 
 101   0.0000      -0.046221        -1.2577 
 102   0.0000      -0.032074        -0.8728 
 103   0.0000      -0.011445        -0.3114 
 104   0.0000       0.006796         0.1849 
 105   0.0000       0.016145         0.4393 
 106   0.0000       0.031046         0.8448 
 107   0.0000       0.037513         1.0208 
 108   0.0000       0.042254         1.1498 
 109   0.0000       0.045978         1.2511 
 110   0.0000       0.051355         1.3975 
 111   0.0000       0.057156         1.5553 
*Only the first 10 virtual orbitals were printed.

                    ********************************
                    * MULLIKEN POPULATION ANALYSIS *
                    ********************************

-----------------------
MULLIKEN ATOMIC CHARGES
-----------------------
   0 C :   -0.311418
   1 C :    0.001626
   2 O :   -0.389963
   3 P :    0.637740
   4 S :   -0.319036
   5 O :   -0.354767
   6 C :   -0.016080
   7 C :   -0.281867
   8 S :   -0.096504
   9 C :   -0.342020
  10 S :   -0.123569
  11 P :    0.603908
  12 S :   -0.302825
  13 O :   -0.384125
  14 C :   -0.016526
  15 C :   -0.282770
  16 O :   -0.350184
  17 C :   -0.018456
  18 C :   -0.290882
  19 H :    0.118704
  20 H :    0.111760
  21 H :    0.120096
  22 H :    0.111994
  23 H :    0.103821
  24 H :    0.113780
  25 H :    0.105668
  26 H :    0.103798
  27 H :    0.111710
  28 H :    0.127522
  29 H :    0.179824
  30 H :    0.193377
  31 H :    0.106356
  32 H :    0.108230
  33 H :    0.116622
  34 H :    0.113746
  35 H :    0.123518
  36 H :    0.123150
  37 H :    0.096800
  38 H :    0.107438
  39 H :    0.117666
  40 H :    0.122139
Sum of atomic charges:    0.0000000

--------------------------------
MULLIKEN REDUCED ORBITAL CHARGES
--------------------------------
  0 C s       :     3.102182  s :     3.102182
      pz      :     1.049584  p :     3.181096
      px      :     1.082129
      py      :     1.049383
      dz2     :     0.002407  d :     0.028140
      dxz     :     0.009020
      dyz     :     0.006289
      dx2y2   :     0.008979
      dxy     :     0.001445

  1 C s       :     3.074780  s :     3.074780
      pz      :     0.855979  p :     2.863178
      px      :     0.928963
      py      :     1.078237
      dz2     :     0.011687  d :     0.060416
      dxz     :     0.017933
      dyz     :     0.012691
      dx2y2   :     0.013417
      dxy     :     0.004688

  2 O s       :     3.758453  s :     3.758453
      pz      :     1.549449  p :     4.618711
      px      :     1.289810
      py      :     1.779452
      dz2     :     0.003301  d :     0.012799
      dxz     :     0.003170
      dyz     :     0.001533
      dx2y2   :     0.002705
      dxy     :     0.002090

  3 P s       :     5.197695  s :     5.197695
      pz      :     2.860401  p :     8.578395
      px      :     2.810262
      py      :     2.907731
      dz2     :     0.148690  d :     0.586170
      dxz     :     0.106153
      dyz     :     0.105075
      dx2y2   :     0.120385
      dxy     :     0.105868

  4 S s       :     5.910315  s :     5.910315
      pz      :     3.431072  p :    10.365381
      px      :     3.649622
      py      :     3.284687
      dz2     :     0.006665  d :     0.043341
      dxz     :     0.005144
      dyz     :     0.016496
      dx2y2   :     0.007821
      dxy     :     0.007216

  5 O s       :     3.765594  s :     3.765594
      pz      :     1.214309  p :     4.575879
      px      :     1.705089
      py      :     1.656481
      dz2     :     0.002990  d :     0.013295
      dxz     :     0.003124
      dyz     :     0.003576
      dx2y2   :     0.001676
      dxy     :     0.001929

  6 C s       :     3.073560  s :     3.073560
      pz      :     0.831333  p :     2.883049
      px      :     1.026114
      py      :     1.025602
      dz2     :     0.016282  d :     0.059471
      dxz     :     0.010849
      dyz     :     0.012721
      dx2y2   :     0.014605
      dxy     :     0.005014

  7 C s       :     3.087742  s :     3.087742
      pz      :     1.011081  p :     3.166410
      px      :     1.099726
      py      :     1.055603
      dz2     :     0.006092  d :     0.027715
      dxz     :     0.004540
      dyz     :     0.005222
      dx2y2   :     0.009289
      dxy     :     0.002573

  8 S s       :     5.893268  s :     5.893268
      pz      :     3.455596  p :    10.128395
      px      :     3.368300
      py      :     3.304499
      dz2     :     0.012048  d :     0.074841
      dxz     :     0.017151
      dyz     :     0.013038
      dx2y2   :     0.017626
      dxy     :     0.014978

  9 C s       :     3.206809  s :     3.206809
      pz      :     1.038385  p :     3.095307
      px      :     0.888539
      py      :     1.168383
      dz2     :     0.007032  d :     0.039904
      dxz     :     0.007917
      dyz     :     0.007546
      dx2y2   :     0.011638
      dxy     :     0.005771

 10 S s       :     5.872785  s :     5.872785
      pz      :     3.289182  p :    10.178883
      px      :     3.176518
      py      :     3.713183
      dz2     :     0.018194  d :     0.071900
      dxz     :     0.012626
      dyz     :     0.013306
      dx2y2   :     0.017477
      dxy     :     0.010297

 11 P s       :     5.217340  s :     5.217340
      pz      :     2.934702  p :     8.586331
      px      :     2.806056
      py      :     2.845573
      dz2     :     0.125141  d :     0.592421
      dxz     :     0.096079
      dyz     :     0.117683
      dx2y2   :     0.146486
      dxy     :     0.107033

 12 S s       :     5.909085  s :     5.909085
      pz      :     3.215277  p :    10.351170
      px      :     3.577297
      py      :     3.558597
      dz2     :     0.010345  d :     0.042570
      dxz     :     0.010457
      dyz     :     0.012579
      dx2y2   :     0.004027
      dxy     :     0.005162

 13 O s       :     3.769499  s :     3.769499
      pz      :     1.768234  p :     4.601637
      px      :     1.289563
      py      :     1.543840
      dz2     :     0.001796  d :     0.012990
      dxz     :     0.002029
      dyz     :     0.001738
      dx2y2   :     0.003867
      dxy     :     0.003560

 14 C s       :     3.074623  s :     3.074623
      pz      :     1.075265  p :     2.881870
      px      :     0.913363
      py      :     0.893242
      dz2     :     0.007928  d :     0.060033
      dxz     :     0.009063
      dyz     :     0.015501
      dx2y2   :     0.010549
      dxy     :     0.016993

 15 C s       :     3.092644  s :     3.092644
      pz      :     1.084416  p :     3.162304
      px      :     1.020153
      py      :     1.057735
      dz2     :     0.004611  d :     0.027822
      dxz     :     0.004336
      dyz     :     0.008445
      dx2y2   :     0.002629
      dxy     :     0.007801

 16 O s       :     3.766564  s :     3.766564
      pz      :     1.644487  p :     4.570085
      px      :     1.636656
      py      :     1.288942
      dz2     :     0.001836  d :     0.013535
      dxz     :     0.002456
      dyz     :     0.002517
      dx2y2   :     0.002778
      dxy     :     0.003947

 17 C s       :     3.086237  s :     3.086237
      pz      :     0.991298  p :     2.873671
      px      :     1.005214
      py      :     0.877159
      dz2     :     0.006514  d :     0.058548
      dxz     :     0.013997
      dyz     :     0.014863
      dx2y2   :     0.007942
      dxy     :     0.015231

 18 C s       :     3.091283  s :     3.091283
      pz      :     1.056151  p :     3.171624
      px      :     1.075292
      py      :     1.040180
      dz2     :     0.001300  d :     0.027975
      dxz     :     0.008941
      dyz     :     0.008194
      dx2y2   :     0.002918
      dxy     :     0.006622

 19 H s       :     0.881296  s :     0.881296

 20 H s       :     0.888240  s :     0.888240

 21 H s       :     0.879904  s :     0.879904

 22 H s       :     0.888006  s :     0.888006

 23 H s       :     0.896179  s :     0.896179

 24 H s       :     0.886220  s :     0.886220

 25 H s       :     0.894332  s :     0.894332

 26 H s       :     0.896202  s :     0.896202

 27 H s       :     0.888290  s :     0.888290

 28 H s       :     0.872478  s :     0.872478

 29 H s       :     0.820176  s :     0.820176

 30 H s       :     0.806623  s :     0.806623

 31 H s       :     0.893644  s :     0.893644

 32 H s       :     0.891770  s :     0.891770

 33 H s       :     0.883378  s :     0.883378

 34 H s       :     0.886254  s :     0.886254

 35 H s       :     0.876482  s :     0.876482

 36 H s       :     0.876850  s :     0.876850

 37 H s       :     0.903200  s :     0.903200

 38 H s       :     0.892562  s :     0.892562

 39 H s       :     0.882334  s :     0.882334

 40 H s       :     0.877861  s :     0.877861


------------------------
MULLIKEN OVERLAP CHARGES
------------------------
B(  0-C ,  1-C ) :   0.9261 B(  0-C ,  2-O ) :  -0.0946 B(  0-C , 19-H ) :   0.7297 
B(  0-C , 20-H ) :   0.6886 B(  0-C , 21-H ) :   0.7296 B(  0-C , 22-H ) :  -0.0685 
B(  0-C , 23-H ) :  -0.0516 B(  1-C ,  2-O ) :   0.5762 B(  1-C ,  3-P ) :  -0.0945 
B(  1-C , 22-H ) :   0.7301 B(  1-C , 23-H ) :   0.7283 B(  2-O ,  3-P ) :   0.6269 
B(  2-O ,  4-S ) :  -0.0661 B(  2-O ,  5-O ) :  -0.0659 B(  2-O ,  8-S ) :  -0.0733 
B(  2-O , 22-H ) :  -0.0677 B(  2-O , 23-H ) :  -0.0599 B(  3-P ,  4-S ) :   0.9091 
B(  3-P ,  5-O ) :   0.6624 B(  3-P ,  8-S ) :   0.5577 B(  3-P ,  9-C ) :  -0.0687 
B(  4-S ,  5-O ) :  -0.0595 B(  4-S ,  8-S ) :  -0.0866 B(  4-S ,  9-C ) :  -0.0658 
B(  4-S , 22-H ) :   0.0567 B(  4-S , 30-H ) :   0.1357 B(  4-S , 36-H ) :   0.0563 
B(  5-O ,  6-C ) :   0.5216 B(  5-O ,  7-C ) :  -0.1085 B(  5-O ,  8-S ) :  -0.0651 
B(  5-O , 24-H ) :  -0.0628 B(  5-O , 25-H ) :  -0.0592 B(  6-C ,  7-C ) :   0.8785 
B(  6-C , 24-H ) :   0.7171 B(  6-C , 25-H ) :   0.7310 B(  7-C , 25-H ) :  -0.0529 
B(  7-C , 26-H ) :   0.6934 B(  7-C , 27-H ) :   0.7354 B(  7-C , 28-H ) :   0.7246 
B(  8-S ,  9-C ) :   0.4988 B(  8-S , 10-S ) :  -0.1444 B(  8-S , 29-H ) :  -0.0544 
B(  8-S , 30-H ) :  -0.0669 B(  9-C , 10-S ) :   0.4319 B(  9-C , 11-P ) :  -0.0729 
B(  9-C , 29-H ) :   0.7240 B(  9-C , 30-H ) :   0.6306 B( 10-S , 11-P ) :   0.5914 
B( 10-S , 12-S ) :  -0.0762 B( 10-S , 13-O ) :  -0.0758 B( 10-S , 16-O ) :  -0.0790 
B( 10-S , 29-H ) :  -0.0759 B( 10-S , 30-H ) :  -0.0502 B( 11-P , 12-S ) :   0.9560 
B( 11-P , 13-O ) :   0.5741 B( 11-P , 14-C ) :  -0.0801 B( 11-P , 16-O ) :   0.6165 
B( 11-P , 17-C ) :  -0.0751 B( 12-S , 13-O ) :  -0.0727 B( 12-S , 16-O ) :  -0.0613 
B( 12-S , 32-H ) :   0.0719 B( 13-O , 14-C ) :   0.5610 B( 13-O , 15-C ) :  -0.1154 
B( 13-O , 16-O ) :  -0.0506 B( 13-O , 31-H ) :  -0.0660 B( 13-O , 32-H ) :  -0.0723 
B( 14-C , 15-C ) :   0.8535 B( 14-C , 31-H ) :   0.7343 B( 14-C , 32-H ) :   0.6947 
B( 15-C , 31-H ) :  -0.0556 B( 15-C , 33-H ) :   0.7452 B( 15-C , 34-H ) :   0.7030 
B( 15-C , 35-H ) :   0.7467 B( 16-O , 17-C ) :   0.5282 B( 16-O , 18-C ) :  -0.1013 
B( 16-O , 36-H ) :  -0.0630 B( 16-O , 37-H ) :  -0.0623 B( 17-C , 18-C ) :   0.8935 
B( 17-C , 36-H ) :   0.7130 B( 17-C , 37-H ) :   0.6912 B( 18-C , 36-H ) :  -0.0540 
B( 18-C , 37-H ) :  -0.0571 B( 18-C , 38-H ) :   0.6955 B( 18-C , 39-H ) :   0.7374 
B( 18-C , 40-H ) :   0.7344 B( 19-H , 21-H ) :  -0.0547 B( 22-H , 23-H ) :  -0.0667 
B( 24-H , 25-H ) :  -0.0840 B( 31-H , 32-H ) :  -0.0748 B( 33-H , 35-H ) :  -0.0563 
B( 36-H , 37-H ) :  -0.0670 B( 39-H , 40-H ) :  -0.0509 


                     *******************************
                     * LOEWDIN POPULATION ANALYSIS *
                     *******************************

----------------------
LOEWDIN ATOMIC CHARGES
----------------------
   0 C :   -0.370736
   1 C :   -0.115837
   2 O :   -0.249861
   3 P :    0.580639
   4 S :   -0.289859
   5 O :   -0.227893
   6 C :   -0.118168
   7 C :   -0.353086
   8 S :    0.086144
   9 C :   -0.482376
  10 S :    0.042627
  11 P :    0.565154
  12 S :   -0.298582
  13 O :   -0.248636
  14 C :   -0.121276
  15 C :   -0.350646
  16 O :   -0.228135
  17 C :   -0.121709
  18 C :   -0.357799
  19 H :    0.118644
  20 H :    0.130096
  21 H :    0.124302
  22 H :    0.111553
  23 H :    0.118249
  24 H :    0.107262
  25 H :    0.109241
  26 H :    0.127969
  27 H :    0.125301
  28 H :    0.126392
  29 H :    0.136942
  30 H :    0.118500
  31 H :    0.109324
  32 H :    0.110067
  33 H :    0.126377
  34 H :    0.131872
  35 H :    0.129612
  36 H :    0.111759
  37 H :    0.104626
  38 H :    0.129116
  39 H :    0.122903
  40 H :    0.129926

-------------------------------
LOEWDIN REDUCED ORBITAL CHARGES
-------------------------------
  0 C s       :     2.953604  s :     2.953604
      pz      :     1.104604  p :     3.347691
      px      :     1.137681
      py      :     1.105406
      dz2     :     0.005140  d :     0.069441
      dxz     :     0.021480
      dyz     :     0.017764
      dx2y2   :     0.021988
      dxy     :     0.003070

  1 C s       :     2.926497  s :     2.926497
      pz      :     0.940667  p :     3.054093
      px      :     0.987768
      py      :     1.125658
      dz2     :     0.023438  d :     0.135247
      dxz     :     0.039420
      dyz     :     0.032656
      dx2y2   :     0.031383
      dxy     :     0.008349

  2 O s       :     3.496899  s :     3.496899
      pz      :     1.573477  p :     4.729352
      px      :     1.379419
      py      :     1.776456
      dz2     :     0.005920  d :     0.023610
      dxz     :     0.006286
      dyz     :     0.002046
      dx2y2   :     0.005774
      dxy     :     0.003584

  3 P s       :     5.055775  s :     5.055775
      pz      :     2.835968  p :     8.551500
      px      :     2.794781
      py      :     2.920751
      dz2     :     0.212444  d :     0.812085
      dxz     :     0.136386
      dyz     :     0.145282
      dx2y2   :     0.175257
      dxy     :     0.142716

  4 S s       :     5.751665  s :     5.751665
      pz      :     3.474614  p :    10.480305
      px      :     3.639871
      py      :     3.365820
      dz2     :     0.007228  d :     0.057889
      dxz     :     0.006308
      dyz     :     0.024982
      dx2y2   :     0.010613
      dxy     :     0.008758

  5 O s       :     3.502414  s :     3.502414
      pz      :     1.307958  p :     4.701641
      px      :     1.714781
      py      :     1.678903
      dz2     :     0.007006  d :     0.023837
      dxz     :     0.005761
      dyz     :     0.006753
      dx2y2   :     0.001917
      dxy     :     0.002400

  6 C s       :     2.931468  s :     2.931468
      pz      :     0.898841  p :     3.055223
      px      :     1.088305
      py      :     1.068077
      dz2     :     0.035335  d :     0.131477
      dxz     :     0.023150
      dyz     :     0.029108
      dx2y2   :     0.033784
      dxy     :     0.010100

  7 C s       :     2.950162  s :     2.950162
      pz      :     1.077847  p :     3.334092
      px      :     1.141022
      py      :     1.115223
      dz2     :     0.016022  d :     0.068832
      dxz     :     0.010991
      dyz     :     0.013588
      dx2y2   :     0.022124
      dxy     :     0.006108

  8 S s       :     5.648297  s :     5.648297
      pz      :     3.460805  p :    10.171053
      px      :     3.383317
      py      :     3.326931
      dz2     :     0.014443  d :     0.094507
      dxz     :     0.023702
      dyz     :     0.015649
      dx2y2   :     0.021856
      dxy     :     0.018858

  9 C s       :     3.061720  s :     3.061720
      pz      :     1.103448  p :     3.332339
      px      :     1.024716
      py      :     1.204175
      dz2     :     0.015354  d :     0.088316
      dxz     :     0.017992
      dyz     :     0.016852
      dx2y2   :     0.026884
      dxy     :     0.011234

 10 S s       :     5.641886  s :     5.641886
      pz      :     3.295900  p :    10.224102
      px      :     3.223045
      py      :     3.705158
      dz2     :     0.024188  d :     0.091385
      dxz     :     0.015409
      dyz     :     0.016865
      dx2y2   :     0.023256
      dxy     :     0.011667

 11 P s       :     5.059387  s :     5.059387
      pz      :     2.928966  p :     8.554045
      px      :     2.786012
      py      :     2.839067
      dz2     :     0.178608  d :     0.821413
      dxz     :     0.124779
      dyz     :     0.161986
      dx2y2   :     0.209500
      dxy     :     0.146541

 12 S s       :     5.760752  s :     5.760752
      pz      :     3.312191  p :    10.480236
      px      :     3.587394
      py      :     3.580651
      dz2     :     0.013685  d :     0.057593
      dxz     :     0.014898
      dyz     :     0.017894
      dx2y2   :     0.004413
      dxy     :     0.006704

 13 O s       :     3.503711  s :     3.503711
      pz      :     1.769388  p :     4.721179
      px      :     1.371970
      py      :     1.579821
      dz2     :     0.003186  d :     0.023746
      dxz     :     0.003367
      dyz     :     0.002363
      dx2y2   :     0.007867
      dxy     :     0.006962

 14 C s       :     2.930354  s :     2.930354
      pz      :     1.122958  p :     3.057346
      px      :     0.976881
      py      :     0.957507
      dz2     :     0.016934  d :     0.133576
      dxz     :     0.018950
      dyz     :     0.036263
      dx2y2   :     0.022352
      dxy     :     0.039076

 15 C s       :     2.950239  s :     2.950239
      pz      :     1.130876  p :     3.331316
      px      :     1.081471
      py      :     1.118969
      dz2     :     0.011253  d :     0.069090
      dxz     :     0.010190
      dyz     :     0.020483
      dx2y2   :     0.006989
      dxy     :     0.020176

 16 O s       :     3.506329  s :     3.506329
      pz      :     1.663148  p :     4.697642
      px      :     1.660999
      py      :     1.373495
      dz2     :     0.003378  d :     0.024164
      dxz     :     0.003416
      dyz     :     0.004598
      dx2y2   :     0.005180
      dxy     :     0.007592

 17 C s       :     2.933213  s :     2.933213
      pz      :     1.031699  p :     3.058504
      px      :     1.070242
      py      :     0.956564
      dz2     :     0.012086  d :     0.129992
      dxz     :     0.033316
      dyz     :     0.035546
      dx2y2   :     0.014496
      dxy     :     0.034548

 18 C s       :     2.951295  s :     2.951295
      pz      :     1.112745  p :     3.337076
      px      :     1.120543
      py      :     1.103789
      dz2     :     0.002875  d :     0.069428
      dxz     :     0.022236
      dyz     :     0.021160
      dx2y2   :     0.006114
      dxy     :     0.017044

 19 H s       :     0.881356  s :     0.881356

 20 H s       :     0.869904  s :     0.869904

 21 H s       :     0.875698  s :     0.875698

 22 H s       :     0.888447  s :     0.888447

 23 H s       :     0.881751  s :     0.881751

 24 H s       :     0.892738  s :     0.892738

 25 H s       :     0.890759  s :     0.890759

 26 H s       :     0.872031  s :     0.872031

 27 H s       :     0.874699  s :     0.874699

 28 H s       :     0.873608  s :     0.873608

 29 H s       :     0.863058  s :     0.863058

 30 H s       :     0.881500  s :     0.881500

 31 H s       :     0.890676  s :     0.890676

 32 H s       :     0.889933  s :     0.889933

 33 H s       :     0.873623  s :     0.873623

 34 H s       :     0.868128  s :     0.868128

 35 H s       :     0.870388  s :     0.870388

 36 H s       :     0.888241  s :     0.888241

 37 H s       :     0.895374  s :     0.895374

 38 H s       :     0.870884  s :     0.870884

 39 H s       :     0.877097  s :     0.877097

 40 H s       :     0.870074  s :     0.870074


---------------------------------
LOEWDIN BOND ORDERS (THRESH 0.050000)
---------------------------------
B(  0-C ,  1-C ) :   1.1572 B(  0-C ,  2-O ) :   0.0575 B(  0-C , 19-H ) :   0.9301 
B(  0-C , 20-H ) :   0.9243 B(  0-C , 21-H ) :   0.9344 B(  1-C ,  2-O ) :   1.0927 
B(  1-C ,  3-P ) :   0.0624 B(  1-C , 22-H ) :   0.9089 B(  1-C , 23-H ) :   0.9172 
B(  2-O ,  3-P ) :   1.2518 B(  2-O ,  4-S ) :   0.0838 B(  2-O ,  5-O ) :   0.0552 
B(  2-O ,  8-S ) :   0.0610 B(  3-P ,  4-S ) :   1.7087 B(  3-P ,  5-O ) :   1.3219 
B(  3-P ,  6-C ) :   0.0640 B(  3-P ,  8-S ) :   1.0370 B(  4-S ,  5-O ) :   0.0663 
B(  4-S ,  8-S ) :   0.1333 B(  4-S , 30-H ) :   0.0828 B(  5-O ,  6-C ) :   1.0600 
B(  5-O ,  7-C ) :   0.0573 B(  5-O ,  8-S ) :   0.0696 B(  6-C ,  7-C ) :   1.1559 
B(  6-C , 24-H ) :   0.9092 B(  6-C , 25-H ) :   0.9151 B(  7-C , 26-H ) :   0.9282 
B(  7-C , 27-H ) :   0.9366 B(  7-C , 28-H ) :   0.9286 B(  8-S ,  9-C ) :   1.1788 
B(  8-S , 10-S ) :   0.0944 B(  9-C , 10-S ) :   1.1619 B(  9-C , 29-H ) :   0.9252 
B(  9-C , 30-H ) :   0.8928 B( 10-S , 11-P ) :   1.0280 B( 10-S , 12-S ) :   0.1198 
B( 10-S , 13-O ) :   0.0610 B( 10-S , 16-O ) :   0.0750 B( 11-P , 12-S ) :   1.7703 
B( 11-P , 13-O ) :   1.2526 B( 11-P , 14-C ) :   0.0678 B( 11-P , 16-O ) :   1.3146 
B( 11-P , 17-C ) :   0.0660 B( 12-S , 13-O ) :   0.0890 B( 12-S , 16-O ) :   0.0737 
B( 13-O , 14-C ) :   1.0795 B( 13-O , 15-C ) :   0.0582 B( 14-C , 15-C ) :   1.1560 
B( 14-C , 31-H ) :   0.9162 B( 14-C , 32-H ) :   0.9047 B( 15-C , 33-H ) :   0.9372 
B( 15-C , 34-H ) :   0.9286 B( 15-C , 35-H ) :   0.9366 B( 16-O , 17-C ) :   1.0566 
B( 16-O , 18-C ) :   0.0577 B( 17-C , 18-C ) :   1.1583 B( 17-C , 36-H ) :   0.9031 
B( 17-C , 37-H ) :   0.9107 B( 18-C , 38-H ) :   0.9266 B( 18-C , 39-H ) :   0.9332 
B( 18-C , 40-H ) :   0.9353 

------------------------------------------
LOEWDIN REDUCED ORBITAL POPULATIONS PER MO
-------------------------------------------
THRESHOLD FOR PRINTING IS 0.1%%
                      0         1         2         3         4         5   
                 -88.04020 -88.03623 -87.98920 -87.98009 -76.42466 -76.42347
                   2.00000   2.00000   2.00000   2.00000   2.00000   2.00000
                  --------  --------  --------  --------  --------  --------
 3 P  s               0.0       0.0       0.0       0.0     100.0       0.0
 4 S  s               0.0       0.0     100.0       0.0       0.0       0.0
 8 S  s             100.0       0.0       0.0       0.0       0.0       0.0
10 S  s               0.0     100.0       0.0       0.0       0.0       0.0
11 P  s               0.0       0.0       0.0       0.0       0.0     100.0
12 S  s               0.0       0.0       0.0     100.0       0.0       0.0

                      6         7         8         9        10        11   
                 -18.79322 -18.79106 -18.78935 -18.78263  -9.95489  -9.95393
                   2.00000   2.00000   2.00000   2.00000   2.00000   2.00000
                  --------  --------  --------  --------  --------  --------
 2 O  s               0.0      99.9       0.0       0.0       0.0       0.0
 5 O  s               0.0       0.0       0.0      99.9       0.0       0.0
 9 C  s               0.0       0.0       0.0       0.0       0.0      99.8
13 O  s              99.9       0.0       0.0       0.0       0.0       0.0
14 C  s               0.0       0.0       0.0       0.0      99.7       0.0
16 O  s               0.0       0.0      99.9       0.0       0.0       0.0

                     12        13        14        15        16        17   
                  -9.95257  -9.94491  -9.94291  -9.89038  -9.88363  -9.87940
                   2.00000   2.00000   2.00000   2.00000   2.00000   2.00000
                  --------  --------  --------  --------  --------  --------
 0 C  s               0.0       0.0       0.0       0.0      99.7       0.0
 1 C  s              99.7       0.0       0.0       0.0       0.0       0.0
 6 C  s               0.0       0.0      99.7       0.0       0.0       0.0
15 C  s               0.0       0.0       0.0      99.7       0.0       0.0
17 C  s               0.0      99.7       0.0       0.0       0.0       0.0
18 C  s               0.0       0.0       0.0       0.0       0.0      99.7

                     18        19        20        21        22        23   
                  -9.87385  -7.68471  -7.68162  -7.63429  -7.62521  -6.42207
                   2.00000   2.00000   2.00000   2.00000   2.00000   2.00000
                  --------  --------  --------  --------  --------  --------
 2 O  px              0.0       0.0       0.0       0.0       0.0       0.2
 3 P  s               0.0       0.0       0.0       0.0       0.0      99.3
 4 S  s               0.0       0.0       0.0      99.9       0.0       0.0
 5 O  pz              0.0       0.0       0.0       0.0       0.0       0.2
 7 C  s              99.7       0.0       0.0       0.0       0.0       0.0
 8 S  s               0.0      99.7       0.0       0.0       0.0       0.0
 9 C  px              0.0       0.1       0.1       0.0       0.0       0.0
10 S  s               0.0       0.0      99.8       0.0       0.0       0.0
12 S  s               0.0       0.0       0.0       0.0      99.9       0.0

                     24        25        26        27        28        29   
                  -6.42100  -5.71253  -5.70946  -5.70932  -5.70610  -5.70167
                   2.00000   2.00000   2.00000   2.00000   2.00000   2.00000
                  --------  --------  --------  --------  --------  --------
 8 S  pz              0.0      33.9       0.0      11.7       0.0      54.4
 8 S  px              0.0      45.7       0.0       9.0       0.0      45.3
 8 S  py              0.0      20.4       0.0      79.2       0.0       0.3
10 S  pz              0.0       0.0      56.0       0.0      25.0       0.0
10 S  px              0.0       0.0      40.1       0.0      53.9       0.0
10 S  py              0.0       0.0       3.9       0.0      21.1       0.0
11 P  s              99.3       0.0       0.0       0.0       0.0       0.0
13 O  px              0.2       0.0       0.0       0.0       0.0       0.0
16 O  py              0.2       0.0       0.0       0.0       0.0       0.0

                     30        31        32        33        34        35   
                  -5.69866  -5.66309  -5.65491  -5.65445  -5.65421  -5.64578
                   2.00000   2.00000   2.00000   2.00000   2.00000   2.00000
                  --------  --------  --------  --------  --------  --------
 4 S  pz              0.0      36.7      25.7      37.6       0.0       0.0
 4 S  px              0.0       2.9      44.8      52.2       0.0       0.0
 4 S  py              0.0      60.3      29.5      10.2       0.0       0.0
10 S  pz             18.9       0.0       0.0       0.0       0.0       0.0
10 S  px              6.0       0.0       0.0       0.0       0.0       0.0
10 S  py             75.0       0.0       0.0       0.0       0.0       0.0
12 S  pz              0.0       0.0       0.0       0.0      68.5       2.3
12 S  px              0.0       0.0       0.0       0.0      11.2      82.1
12 S  py              0.0       0.0       0.0       0.0      20.3      15.7

                     36        37        38        39        40        41   
                  -5.64525  -4.64489  -4.64419  -4.64350  -4.64284  -4.64269
                   2.00000   2.00000   2.00000   2.00000   2.00000   2.00000
                  --------  --------  --------  --------  --------  --------
 3 P  pz              0.0      19.3       0.0      49.3       0.0      31.2
 3 P  px              0.0      65.2       0.0      33.8       0.0       0.9
 3 P  py              0.0      15.3       0.0      16.8       0.0      67.8
11 P  pz              0.0       0.0       0.5       0.0      14.2       0.0
11 P  px              0.0       0.0      77.8       0.0      16.5       0.0
11 P  py              0.0       0.0      21.6       0.0      69.1       0.0
12 S  pz             29.2       0.0       0.0       0.0       0.0       0.0
12 S  px              6.8       0.0       0.0       0.0       0.0       0.0
12 S  py             64.0       0.0       0.0       0.0       0.0       0.0

                     42        43        44        45        46        47   
                  -4.64081  -0.98806  -0.98367  -0.94400  -0.93768  -0.75775
                   2.00000   2.00000   2.00000   2.00000   2.00000   2.00000
                  --------  --------  --------  --------  --------  --------
 0 C  s               0.0       0.0       0.2       0.0       0.3       0.0
 0 C  pz              0.0       0.0       0.3       0.0       0.3       0.0
 0 C  py              0.0       0.0       0.2       0.0       0.2       0.0
 1 C  s               0.0       0.1       3.7       0.1       4.3       0.3
 1 C  pz              0.0       0.0       2.1       0.1       2.0       0.0
 1 C  px              0.0       0.0       1.9       0.0       1.6       0.0
 1 C  dxz             0.0       0.0       0.2       0.0       0.3       0.0
 2 O  s               0.0       0.7      32.0       0.7      25.9       0.2
 2 O  pz              0.0       0.0       0.6       0.0       1.2       0.0
 2 O  px              0.0       0.0       0.9       0.0       0.1       0.4
 3 P  s               0.0       0.4      13.7       0.0       0.1       2.7
 3 P  pz              0.0       0.1       2.7       0.1       4.3       0.6
 3 P  px              0.0       0.0       2.3       0.2       5.6       0.7
 3 P  py              0.0       0.0       0.0       0.0       0.5       0.9
 3 P  dz2             0.0       0.0       0.1       0.0       2.3       0.0
 3 P  dxz             0.0       0.0       0.0       0.0       0.2       0.0
 3 P  dyz             0.0       0.0       0.1       0.0       0.1       0.0
 3 P  dx2y2           0.0       0.0       0.7       0.0       0.6       0.1
 3 P  dxy             0.0       0.0       0.1       0.0       0.0       0.1
 4 S  s               0.0       0.0       0.3       0.0       0.0       0.7
 4 S  pz              0.0       0.0       0.2       0.0       0.0       0.1
 4 S  py              0.0       0.0       0.2       0.0       0.0       0.2
 5 O  s               0.0       0.7      23.4       0.5      34.3       0.2
 5 O  pz              0.0       0.0       0.5       0.0       0.0       0.5
 5 O  px              0.0       0.0       0.6       0.0       0.4       0.0
 5 O  py              0.0       0.0       0.6       0.0       0.7       0.0
 6 C  s               0.0       0.1       2.7       0.1       4.5       0.4
 6 C  pz              0.0       0.1       2.4       0.0       2.5       0.0
 6 C  px              0.0       0.0       0.3       0.0       0.7       0.0
 6 C  py              0.0       0.0       0.6       0.0       0.9       0.0
 6 C  dz2             0.0       0.0       0.1       0.0       0.1       0.0
 6 C  dxz             0.0       0.0       0.1       0.0       0.1       0.0
 6 C  dyz             0.0       0.0       0.1       0.0       0.2       0.0
 7 C  s               0.0       0.0       0.2       0.0       0.3       0.1
 7 C  pz              0.0       0.0       0.3       0.0       0.6       0.0
 8 S  s               0.0       0.0       0.3       0.0       0.0      19.8
 8 S  pz              0.0       0.0       0.0       0.0       0.0       1.0
 8 S  px              0.0       0.0       0.1       0.0       0.0       1.1
 8 S  py              0.0       0.0       0.3       0.0       0.0       0.9
 8 S  dxz             0.0       0.0       0.0       0.0       0.0       0.2
 9 C  s               0.0       0.0       0.0       0.0       0.0      27.0
 9 C  pz              0.0       0.0       0.0       0.0       0.0       2.1
 9 C  py              0.0       0.0       0.0       0.0       0.0       0.2
10 S  s               0.0       0.3       0.0       0.0       0.0      17.2
10 S  pz              0.0       0.3       0.0       0.0       0.0       0.0
10 S  px              0.0       0.0       0.0       0.0       0.0       2.5
10 S  py              0.0       0.1       0.0       0.0       0.0       0.2
10 S  dx2y2           0.0       0.0       0.0       0.0       0.0       0.2
11 P  s               0.0      13.8       0.3       0.1       0.0       2.3
11 P  pz             85.2       0.0       0.0       0.4       0.0       0.9
11 P  px              5.5       1.6       0.1       7.4       0.1       0.2
11 P  py              9.2       3.2       0.1       3.2       0.1       0.8
11 P  dz2             0.0       0.8       0.0       0.0       0.0       0.1
11 P  dyz             0.0       0.1       0.0       0.1       0.0       0.1
11 P  dx2y2           0.0       0.1       0.0       2.4       0.0       0.0
11 P  dxy             0.0       0.1       0.0       0.8       0.0       0.0
12 S  s               0.0       0.3       0.0       0.0       0.0       0.4
[...]
 1 C  pz              0.0       0.5       0.8       0.1
 1 C  px              0.0       0.3       0.6       0.1
 1 C  dz2             0.0       0.1       0.3       0.0
 1 C  dxz             0.0       1.9       3.4       0.3
 1 C  dx2y2           0.0       0.5       0.6       0.1
 2 O  s               0.0       0.0       0.1       0.0
 2 O  pz              0.0       0.5       0.7       0.1
 2 O  px              0.0       1.9       2.8       0.3
 2 O  dz2             0.1       9.0      11.0       1.0
 2 O  dxz             0.3       8.9      21.9       1.7
 2 O  dx2y2           0.0       0.8       0.9       0.2
 2 O  dxy             0.0       1.1       0.6       0.1
 3 P  s               0.0       0.6       0.1       0.0
 3 P  pz              0.0       0.1       1.4       0.2
 3 P  px              0.0       0.7       1.2       0.1
 3 P  py              0.0       0.1       0.1       0.0
 3 P  dz2             0.0       0.0       1.7       0.2
 3 P  dx2y2           0.0       0.2       0.3       0.0
 5 O  s               0.0       3.4       0.3       0.1
 5 O  pz              0.0       2.1       3.7       0.4
 5 O  px              0.0       0.2       0.0       0.0
 5 O  py              0.0       0.4       0.0       0.0
 5 O  dz2             0.0      11.9       3.9       0.8
 5 O  dxz             0.2      12.0      13.8       1.4
 5 O  dyz             0.2      20.9      14.1       1.4
 5 O  dx2y2           0.0       0.2       0.2       0.0
 5 O  dxy             0.1       5.3       0.4       0.0
 6 C  s               0.0       1.2       0.4       0.0
 6 C  pz              0.0       1.9       0.7       0.1
 6 C  px              0.0       0.3       0.1       0.0
 6 C  py              0.0       0.4       0.1       0.0
 6 C  dz2             0.0       1.2       1.1       0.1
 6 C  dxz             0.0       3.3       0.7       0.1
 6 C  dyz             0.0       4.7       1.4       0.1
 6 C  dxy             0.0       0.8       0.0       0.0
 7 C  pz              0.0       0.1       0.1       0.0
 7 C  dz2             0.0       0.2       0.3       0.0
11 P  s               0.8       0.0       0.0       0.0
11 P  pz              0.0       0.0       0.0       0.1
11 P  px              0.3       0.0       0.2       2.3
11 P  py              0.3       0.0       0.1       0.9
11 P  dx2y2           0.0       0.0       0.2       2.0
11 P  dxy             0.0       0.0       0.0       0.1
13 O  pz              0.0       0.0       0.0       0.2
13 O  px              1.5       0.0       0.4       4.0
13 O  py              0.3       0.0       0.1       0.5
13 O  dz2             0.4       0.0       0.1       0.1
13 O  dxz             0.2       0.0       0.0       0.1
13 O  dyz             0.9       0.0       0.2       1.7
13 O  dx2y2           5.0       0.1       1.0      12.9
13 O  dxy             8.6       0.0       3.0      27.0
14 C  s               0.4       0.0       0.1       0.8
14 C  pz              0.0       0.0       0.0       0.1
14 C  px              0.4       0.0       0.1       1.0
14 C  py              0.2       0.0       0.1       0.6
14 C  dz2             0.3       0.0       0.1       0.5
14 C  dxz             0.1       0.0       0.0       0.2
14 C  dyz             0.1       0.0       0.0       0.3
14 C  dxy             1.9       0.0       0.5       4.4
15 C  s               0.0       0.0       0.0       0.1
15 C  dx2y2           0.1       0.0       0.0       0.3
16 O  s               2.3       0.1       0.0       0.4
16 O  pz              0.8       0.0       0.0       0.3
16 O  px              0.4       0.0       0.0       0.0
16 O  py              2.7       0.0       0.2       2.7
16 O  dz2             0.0       0.0       0.3       2.3
16 O  dxz            11.1       0.0       0.4       2.3
16 O  dyz            21.1       0.2       0.1       0.3
16 O  dx2y2           0.8       0.0       0.0       2.6
16 O  dxy            21.6       0.1       1.6      17.0
17 C  s               1.4       0.0       0.0       0.4
17 C  pz              0.6       0.0       0.0       0.1
17 C  px              0.7       0.0       0.0       0.1
17 C  py              1.6       0.0       0.0       0.3
17 C  dxz             2.3       0.0       0.0       0.1
17 C  dyz             4.9       0.0       0.1       0.8
17 C  dx2y2           0.6       0.0       0.0       0.3
17 C  dxy             2.9       0.0       0.0       0.4
18 C  dz2             0.1       0.0       0.0       0.0
18 C  dxy             0.1       0.0       0.0       0.0


                      *****************************
                      * MAYER POPULATION ANALYSIS *
                      *****************************

  NA   - Mulliken gross atomic population
  ZA   - Total nuclear charge
  QA   - Mulliken gross atomic charge
  VA   - Mayer's total valence
  BVA  - Mayer's bonded valence
  FA   - Mayer's free valence

  ATOM       NA         ZA         QA         VA         BVA        FA
  0 C      6.3114     6.0000    -0.3114     3.9954     3.9954     0.0000
  1 C      5.9984     6.0000     0.0016     4.0098     4.0098     0.0000
  2 O      8.3900     8.0000    -0.3900     2.1706     2.1706     0.0000
  3 P     14.3623    15.0000     0.6377     4.9494     4.9494    -0.0000
  4 S     16.3190    16.0000    -0.3190     2.0747     2.0747    -0.0000
  5 O      8.3548     8.0000    -0.3548     2.1840     2.1840     0.0000
  6 C      6.0161     6.0000    -0.0161     3.9863     3.9863     0.0000
  7 C      6.2819     6.0000    -0.2819     4.0012     4.0012    -0.0000
  8 S     16.0965    16.0000    -0.0965     2.3181     2.3181     0.0000
  9 C      6.3420     6.0000    -0.3420     3.8242     3.8242     0.0000
 10 S     16.1236    16.0000    -0.1236     2.2380     2.2380    -0.0000
 11 P     14.3961    15.0000     0.6039     4.9811     4.9811    -0.0000
 12 S     16.3028    16.0000    -0.3028     2.0570     2.0570     0.0000
 13 O      8.3841     8.0000    -0.3841     2.1540     2.1540     0.0000
 14 C      6.0165     6.0000    -0.0165     3.9708     3.9708     0.0000
 15 C      6.2828     6.0000    -0.2828     4.0038     4.0038     0.0000
 16 O      8.3502     8.0000    -0.3502     2.1927     2.1927    -0.0000
 17 C      6.0185     6.0000    -0.0185     3.9796     3.9796     0.0000
 18 C      6.2909     6.0000    -0.2909     3.9978     3.9978     0.0000
 19 H      0.8813     1.0000     0.1187     0.9811     0.9811    -0.0000
 20 H      0.8882     1.0000     0.1118     0.9539     0.9539     0.0000
 21 H      0.8799     1.0000     0.1201     0.9653     0.9653     0.0000
 22 H      0.8880     1.0000     0.1120     0.9771     0.9771    -0.0000
 23 H      0.8962     1.0000     0.1038     0.9489     0.9489    -0.0000
 24 H      0.8862     1.0000     0.1138     0.9669     0.9669    -0.0000
 25 H      0.8943     1.0000     0.1057     0.9632     0.9632    -0.0000
 26 H      0.8962     1.0000     0.1038     0.9550     0.9550    -0.0000
 27 H      0.8883     1.0000     0.1117     0.9607     0.9607    -0.0000
 28 H      0.8725     1.0000     0.1275     0.9859     0.9859    -0.0000
 29 H      0.8202     1.0000     0.1798     0.9313     0.9313     0.0000
 30 H      0.8066     1.0000     0.1934     0.9916     0.9916    -0.0000
 31 H      0.8936     1.0000     0.1064     0.9512     0.9512     0.0000
 32 H      0.8918     1.0000     0.1082     0.9936     0.9936    -0.0000
 33 H      0.8834     1.0000     0.1166     0.9575     0.9575     0.0000
 34 H      0.8863     1.0000     0.1137     0.9542     0.9542     0.0000
 35 H      0.8765     1.0000     0.1235     0.9583     0.9583    -0.0000
 36 H      0.8769     1.0000     0.1231     0.9737     0.9737     0.0000
 37 H      0.9032     1.0000     0.0968     0.9796     0.9796    -0.0000
 38 H      0.8926     1.0000     0.1074     0.9555     0.9555    -0.0000
 39 H      0.8823     1.0000     0.1177     0.9797     0.9797    -0.0000
 40 H      0.8779     1.0000     0.1221     0.9576     0.9576     0.0000

  Mayer bond orders larger than 0.100000
B(  0-C ,  1-C ) :   1.1670 B(  0-C , 19-H ) :   0.9386 B(  0-C , 20-H ) :   0.9366 
B(  0-C , 21-H ) :   0.9420 B(  1-C ,  2-O ) :   0.9129 B(  1-C , 22-H ) :   0.9188 
B(  1-C , 23-H ) :   0.9344 B(  2-O ,  3-P ) :   1.0748 B(  3-P ,  4-S ) :   1.5914 
B(  3-P ,  5-O ) :   1.1567 B(  3-P ,  8-S ) :   0.9509 B(  4-S ,  8-S ) :   0.1164 
B(  4-S , 30-H ) :   0.1203 B(  5-O ,  6-C ) :   0.8845 B(  6-C ,  7-C ) :   1.1710 
B(  6-C , 24-H ) :   0.9106 B(  6-C , 25-H ) :   0.9236 B(  7-C , 26-H ) :   0.9405 
B(  7-C , 27-H ) :   0.9497 B(  7-C , 28-H ) :   0.9394 B(  8-S ,  9-C ) :   1.0204 
B(  9-C , 10-S ) :   0.9828 B(  9-C , 29-H ) :   0.9119 B(  9-C , 30-H ) :   0.8512 
B( 10-S , 11-P ) :   0.9582 B( 10-S , 12-S ) :   0.1097 B( 11-P , 12-S ) :   1.6598 
B( 11-P , 13-O ) :   1.0630 B( 11-P , 16-O ) :   1.1380 B( 13-O , 14-C ) :   0.9087 
B( 14-C , 15-C ) :   1.1605 B( 14-C , 31-H ) :   0.9273 B( 14-C , 32-H ) :   0.9082 
B( 15-C , 33-H ) :   0.9509 B( 15-C , 34-H ) :   0.9415 B( 15-C , 35-H ) :   0.9506 
B( 16-O , 17-C ) :   0.8839 B( 17-C , 18-C ) :   1.1687 B( 17-C , 36-H ) :   0.9076 
B( 17-C , 37-H ) :   0.9141 B( 18-C , 38-H ) :   0.9401 B( 18-C , 39-H ) :   0.9436 
B( 18-C , 40-H ) :   0.9465 

-------
TIMINGS
-------

Total SCF time: 0 days 0 hours 0 min 16 sec 

Total time                  ....      16.898 sec
Sum of individual times     ....      16.360 sec  ( 96.8%)

SCF preparation             ....       0.224 sec  (  1.3%)
Fock matrix formation       ....      14.920 sec  ( 88.3%)
  Startup                   ....       0.062 sec  (  0.4% of F)
  Split-RI-J                ....       8.895 sec  ( 59.6% of F)
  XC integration            ....       5.464 sec  ( 36.6% of F)
    Basis function eval.    ....       2.059 sec  ( 37.7% of XC)
    Density eval.           ....       1.061 sec  ( 19.4% of XC)
    XC-Functional eval.     ....       0.394 sec  (  7.2% of XC)
    XC-Potential eval.      ....       1.201 sec  ( 22.0% of XC)
Diagonalization             ....       0.000 sec  (  0.0%)
Density matrix formation    ....       0.225 sec  (  1.3%)
Total Energy calculation    ....       0.032 sec  (  0.2%)
Population analysis         ....       0.217 sec  (  1.3%)
Orbital Transformation      ....       0.081 sec  (  0.5%)
Orbital Orthonormalization  ....       0.000 sec  (  0.0%)
DIIS solution               ....       0.507 sec  (  3.0%)
  MO trafo                  ....       0.000 sec  (  0.0 % of DIIS)
  Orb grad                  ....       0.000 sec  (  0.0 % of DIIS)
  Energy W gradient         ....       0.000 sec  (  0.0 % of DIIS)
  DIIS error                ....       0.020 sec  (  4.0 % of DIIS)
  DIIS work                 ....       0.427 sec  ( 84.2 % of DIIS)
  Form Q                    ....       0.000 sec  (  0.0 % of DIIS)
  Form QpQm                 ....       0.000 sec  (  0.0 % of DIIS)
  Exp/Cayley                ....       0.000 sec  (  0.0 % of DIIS)
  Orb update                ....       0.000 sec  (  0.0 % of DIIS)
  Wake-sleep                ....       0.018 sec  (  3.6 % of DIIS)
SOSCF solution              ....       0.154 sec  (  0.9%)
  MO trafo                  ....       0.084 sec  ( 54.2 % of SOSCF)
  Orb grad                  ....       0.002 sec  (  1.2 % of SOSCF)
  Rot update                ....       0.027 sec  ( 17.7 % of SOSCF)
  Step                      ....       0.041 sec  ( 26.8 % of SOSCF)
Finished LeanSCF after  17.0 sec

Maximum memory used throughout the entire LEANSCF-calculation: 34.9 MB


-------------------------------------------------------------------------------
                          DFT DISPERSION CORRECTION                            
                                                                               
                                DFTD4 V3.4.0                                   
-------------------------------------------------------------------------------
The PBE functional is recognized
Active option DFTDOPT                   ...         5   

-------------------------   ----------------
Dispersion correction           -0.067347041
-------------------------   ----------------

------------------   -----------------
gCP correction             0.186638214
------------------   -----------------

-------------------------   --------------------
FINAL SINGLE POINT ENERGY     -2929.514855770244
-------------------------   --------------------


------------------------------------------------------------------------------
                              ORCA PROPERTY CALCULATIONS
------------------------------------------------------------------------------

GBWName                                 ... sp.gbw
Number of atoms                         ...     41
Number of basis functions               ...    334
Max core memory                         ...   1024 MB

Electric properties:
Dipole moment                           ... YES
Quadrupole moment                       ...  NO
Static polarizability (Dipole/Dipole)   ...  NO
Static polarizability (Dipole/Quad.)    ...  NO
Static polarizability (Quad./Quad.)     ...  NO
Static polarizability (Velocity)        ...  NO

Atomic electric properties:
Dipole moment                           ...  NO
Quadrupole moment                       ...  NO
Static polarizability                   ...  NO

Choice of electric origin               ... Center of mass
Position of electric origin             ...    -0.000004    -0.000000    -0.000001

General magnetic properties:
Magnetizability                         ...  NO

EPR properties:
g-Tensor (aka g-matrix)                 ...  NO
Zero-Field splitting spin-orbit         ...  NO
Zero-field splitting spin-spin          ...  NO
Hyperfine couplings                     ...  NO (   0 nuclei)
Quadrupole couplings                    ...  NO (   0 nuclei)
Contact density                         ...  NO (   0 nuclei)

NMR properties:
Chemical shifts                         ...  NO (   0 nuclei)
Spin-rotation constants                 ...  NO (   0 nuclei)
Spin-spin couplings                     ...  NO (   0 nuclei,    0 pairs)

Choice of magnetic origin               ... GIAO
Position of magnetic origin             ...     0.000000     0.000000     0.000000

Properties with geometric perturbations:
SCF Hessian                             ...  NO
IR spectrum                             ...  NO
VCD spectrum                            ...  NO
X-ray spectroscopy properties:
SCF XES/XAS/RIXS spectra                ...  NO


-------------
DIPOLE MOMENT
-------------

Method             : SCF
Type of density    : Electron Density
Multiplicity       :   1
Irrep              :   0
Energy             : -2929.6341469431158657 Eh
Relativity type    : 
Basis              : AO
                                X                 Y                 Z
Electronic contribution:      4.868938643      -7.334853476      -5.561930510
Nuclear contribution   :     -5.014635041       7.266983171       5.225207694
                        -----------------------------------------
Total Dipole Moment    :     -0.145696397      -0.067870306      -0.336722816
                        -----------------------------------------
Magnitude (a.u.)       :      0.373116702
Magnitude (Debye)      :      0.948387288



--------------------
Rotational spectrum 
--------------------
 
Rotational constants in cm-1:             0.012555             0.005390             0.005144 
Rotational constants in MHz :           376.381568           161.597841           154.220783 

Dipole components along the rotational axes: 
x,y,z [a.u.] :    -0.075485    -0.364946     0.018233 
x,y,z [Debye]:    -0.191866    -0.927620     0.046344 

 

Dipole moment calculation done in   0.0 sec 

Maximum memory used throughout the entire PROP-calculation: 24.3 MB

--------------------------------
SUGGESTED CITATIONS FOR THIS RUN
--------------------------------

Below you find a list of papers that are relevant to this ORCA run
We neither can nor want to force you to cite these papers, but we appreciate if you do
You receive ORCA, which is the product of decades of hard work by many enthusiastic individuals, for free
The only thing we kindly ask in return is that you cite our papers,
We deeply appreciate it, if you show your appreciation for ORCA by not just citing the generic ORCA reference.

Please note that relegating all ORCA citations to the supporting information does *not* help us.
SI sections are not indexed - citations you put there will not count into any citation statistics
But we need these citations in order to attract the funding resources that allow us to do what we are doing

Therefore, if you are a happy ORCA user, please consider citing a few of the papers listed below in the main body of your paper

In addition to the list printed below, the program has created the file sp.bibtex that contains the list in bibtex format
You can import this file easily into all common literature databanks and citation aid programs


List of essential papers. We consider these as the minimum necessary citations

  1. Neese,F.
     Software update: the ORCA program system, version 5.0
     WIRES Comput. Molec. Sci., 2022 12(1)e1606
     doi.org/10.1002/wcms.1606

List of papers to cite with high priority. The work reported in these papers was absolutely
necessary for this run to complete.
Our perspective: the developers of density functionals and basis sets usually get cited in chemistry papers
Good! But without the algorithms to do something with them, the functionals or basis sets would not do anything.
Hence, in our opinion, the algorithm design and method developments papers are equally worthy of getting cited

  1. Neese,F.
     An improvement of the resolution of the identity approximation for the formation of the Coulomb matrix
     J. Comp. Chem., 2003 24(14)1740-1747
     doi.org/10.1002/jcc.10318
  2. Neese,F.
     The SHARK Integral Generation and Digestion System
     J. Comp. Chem., 2022  1-16
     doi.org/10.1002/jcc.26942
  3. Caldeweyher,E.; Bannwarth,C.; Grimme,S.
     Extension of the D3 dispersion coefficient model
     J. Chem. Phys., 2017 147 034112-XXXX
     doi.org/10.1063/1.4993215
  4. Caldeweyher,E.; Ehlert,S.; Hansen,A.; Neugebauer,H.; Spicher,S.; Bannwarth,C.; Grimme,S.
     A generally applicable atomic-charge dependent London dispersion correction
     J. Chem. Phys., 2019 150 154122-XXXX
     doi.org/10.1063/1.5090222
  5. Caldeweyher,E.; Mewes,J.; Ehlert,S.; Grimme,S.
     Extension and evaluation of the D4 London-dispersion model for periodic systems
     Phys. Chem. Chem. Phys., 2020 22(16)8499-8512
     doi.org/10.1039/D0CP00502A

List of suggested additional citations. These are papers that are important in the 'surrounding' of 
of this run, or papers that preceded the highly important papers. If you like your results we are grateful for a citation.

  1. Neese,F.
     The ORCA program system
     WIRES Comput. Molec. Sci., 2012 2(1)73-78
     doi.org/10.1002/wcms.81
  2. Neese,F.
     Software update: the ORCA program system, version 4.0
     WIRES Comput. Molec. Sci., 2018 8(1)1-6
     doi.org/10.1002/wcms.1327
  3. Neese,F.; Wennmohs,F.; Becker,U.; Riplinger,C.
     The ORCA quantum chemistry program package
     J. Chem. Phys., 2020 152 Art. No. L224108
     doi.org/10.1063/5.0004608

List of optional additional citations

  1. Neese,F.
     Approximate second-order SCF convergence for spin unrestricted wavefunctions
     Chem. Phys. Lett., 2000 325(1-3)93-98
     doi.org/10.1016/s0009-2614(00)00662-x

Timings for individual modules:

Sum of individual times          ...       20.717 sec (=   0.345 min)
Startup calculation              ...        1.616 sec (=   0.027 min)   7.8 %
SCF iterations                   ...       18.975 sec (=   0.316 min)  91.6 %
Property calculations            ...        0.127 sec (=   0.002 min)   0.6 %
                             ****ORCA TERMINATED NORMALLY****
TOTAL RUN TIME: 0 days 0 hours 0 minutes 21 seconds 563 msec
