 Entering Gaussian System
 *********************************************
 Gaussian 98:
 frequency output generated by the xtb code
 *********************************************
                         Standard orientation:
 --------------------------------------------------------------------
  Center     Atomic     Atomic              Coordinates (Angstroms)
  Number     Number      Type              X           Y           Z
 --------------------------------------------------------------------
    1          6             0        5.832496   -1.040491   -0.397286
    2          6             0        5.035275   -0.322622   -1.467570
    3          8             0        3.632373   -0.669345   -1.442244
    4         15             0        2.672845   -0.234137   -0.258558
    5         16             0        2.974300    1.565439    0.466638
    6          8             0        2.890076   -1.425508    0.774461
    7          6             0        2.509773   -1.343946    2.156226
    8          6             0        1.010271   -1.458477    2.339635
    9         16             0        0.812910   -0.637879   -1.195090
   10          6             0        0.094598    1.034350   -1.207573
   11         16             0       -0.798138    1.474161    0.311740
   12         15             0       -2.510021    0.277457   -0.010029
   13         16             0       -3.176844    0.142028   -1.852556
   14          8             0       -3.560698    0.803477    1.060288
   15          6             0       -4.561970    1.795104    0.771156
   16          6             0       -3.974291    3.183100    0.614647
   17          8             0       -2.017995   -1.074432    0.652808
   18          6             0       -2.600787   -2.353434    0.331239
   19          6             0       -4.003012   -2.498569    0.885644
   20          1             0        5.537921   -0.689509    0.590336
   21          1             0        5.663439   -2.112476   -0.455431
   22          1             0        6.888822   -0.833886   -0.541945
   23          1             0        5.355384   -0.615423   -2.468523
   24          1             0        5.124626    0.762083   -1.350541
   25          1             0        3.033899   -2.179142    2.623662
   26          1             0        2.877906   -0.396581    2.564011
   27          1             0        0.779333   -1.516386    3.398373
   28          1             0        0.508485   -0.587000    1.920827
   29          1             0        0.637675   -2.348680    1.838936
   30          1             0       -0.599837    1.062531   -2.047084
   31          1             0        0.885698    1.773592   -1.318348
   32          1             0       -5.091636    1.498110   -0.139883
   33          1             0       -5.236547    1.741877    1.627147
   34          1             0       -4.781755    3.901980    0.513783
   35          1             0       -3.369745    3.439757    1.480690
   36          1             0       -3.348241    3.228406   -0.275295
   37          1             0       -2.599552   -2.470343   -0.757235
   38          1             0       -1.915181   -3.073831    0.779116
   39          1             0       -4.673403   -1.795163    0.393639
   40          1             0       -4.356705   -3.508577    0.701381
   41          1             0       -4.008757   -2.302270    1.954426
 --------------------------------------------------------------------
     1 basis functions        1 primitive gaussians
     1 alpha electrons        1 beta electrons
 
 Harmonic frequencies (cm**-1), IR intensities (km*mol⁻¹),
 Raman scattering activities (A**4/amu), Raman depolarization ratios,
 reduced masses (AMU), force constants (mDyne/A) and normal coordinates:
                      1                      2                      3
                        a                      a                      a 
 Frequencies --    47.7407                50.0352                53.7495
 Red. masses --    24.2717                23.5449                22.5212
 Frc consts  --     0.0000                 0.0000                 0.0000
 IR Inten    --     4.5339                 2.4327                 1.1459
 Raman Activ --     0.0000                 0.0000                 0.0000
 Depolar     --     0.0000                 0.0000                 0.0000
 Atom AN      X      Y      Z        X      Y      Z        X      Y      Z
   1   6    -0.01   0.12   0.04     0.11   0.02   0.03     0.03   0.06  -0.28
   2   6    -0.02   0.17   0.07     0.07  -0.02   0.03    -0.09   0.05  -0.20
   3   8    -0.01   0.15   0.03     0.10  -0.08   0.08    -0.09   0.03  -0.06
   4  15    -0.11  -0.06   0.06     0.13  -0.01   0.06     0.08  -0.07   0.12
   5  16    -0.40  -0.12   0.32     0.02   0.13  -0.24     0.17  -0.13   0.22
   6   8    -0.02  -0.10  -0.04     0.18   0.11   0.15     0.21  -0.10   0.00
   7   6     0.01  -0.13  -0.02     0.07   0.11   0.11     0.18  -0.13   0.01
   8   6     0.01  -0.07  -0.01     0.06   0.06   0.03     0.17  -0.04   0.00
   9  16    -0.01  -0.21  -0.08     0.12  -0.28   0.19    -0.11  -0.11   0.51
  10   6     0.02  -0.12  -0.23     0.01  -0.20  -0.03     0.01  -0.03   0.09
  11  16     0.12   0.12  -0.41    -0.02  -0.14  -0.12    -0.21   0.22  -0.06
  12  15     0.09   0.06  -0.05    -0.14   0.03  -0.08    -0.10   0.09  -0.10
  13  16    -0.22  -0.07   0.07    -0.42   0.34  -0.00     0.01  -0.04  -0.13
  14   8     0.19   0.09   0.06     0.02  -0.02   0.08    -0.13   0.02  -0.11
  15   6     0.11   0.04   0.09     0.00  -0.00   0.16    -0.11   0.02  -0.10
  16   6     0.06   0.06   0.06     0.00  -0.00   0.16    -0.10   0.02  -0.07
  17   8     0.14   0.08  -0.03    -0.07  -0.05  -0.22    -0.02   0.11  -0.02
  18   6     0.13   0.05   0.03    -0.09  -0.02  -0.20     0.06   0.05  -0.01
  19   6     0.14   0.05   0.06    -0.06  -0.02  -0.12     0.07  -0.02  -0.01
  20   1    -0.01   0.02   0.02     0.03   0.01   0.01     0.03   0.01  -0.07
  21   1     0.00   0.04  -0.01     0.04   0.00   0.01     0.01   0.02  -0.08
  22   1    -0.00   0.04   0.01     0.03   0.01   0.00     0.00   0.03  -0.11
  23   1     0.00   0.07   0.02     0.02  -0.00   0.01    -0.05   0.02  -0.07
  24   1    -0.01   0.05   0.04     0.01  -0.00   0.01    -0.03   0.02  -0.06
  25   1    -0.00  -0.05  -0.02     0.02   0.04   0.04     0.04  -0.05  -0.01
  26   1     0.01  -0.04   0.00     0.00   0.04   0.03     0.07  -0.05   0.01
  27   1     0.01  -0.02  -0.00     0.00   0.01   0.00     0.05  -0.02   0.00
  28   1     0.01  -0.01  -0.00     0.01   0.01   0.00     0.07   0.00   0.01
  29   1    -0.01  -0.02  -0.00     0.04   0.01   0.00     0.03   0.00  -0.01
  30   1    -0.00  -0.06  -0.06     0.00  -0.08  -0.01     0.03  -0.02   0.01
  31   1     0.01  -0.04  -0.10    -0.00  -0.05  -0.03     0.02  -0.02   0.03
  32   1     0.02   0.01   0.03    -0.02   0.01   0.05    -0.03   0.01  -0.03
  33   1     0.04   0.01   0.03     0.02  -0.01   0.06    -0.03   0.00  -0.03
  34   1     0.01   0.01   0.02     0.00   0.00   0.06    -0.03   0.01  -0.02
  35   1     0.02   0.03   0.01     0.01  -0.00   0.04    -0.03  -0.00  -0.02
  36   1     0.01   0.02   0.01    -0.01   0.00   0.04    -0.03   0.01  -0.02
  37   1     0.03   0.01   0.01    -0.05   0.00  -0.06     0.02   0.01  -0.00
  38   1     0.04   0.02   0.01    -0.02  -0.01  -0.08     0.03   0.03  -0.00
  39   1     0.04   0.01   0.02    -0.02  -0.00  -0.02     0.01  -0.02   0.00
  40   1     0.04   0.01   0.02    -0.02  -0.00  -0.03     0.04  -0.01  -0.00
  41   1     0.05   0.02   0.02     0.00  -0.02  -0.03     0.02  -0.01  -0.00
                      4                      5                      6
                        a                      a                      a 
 Frequencies --    53.1592                71.8380                68.3242
 Red. masses --    16.6378                26.7754                16.6301
 Frc consts  --     0.0000                 0.0000                 0.0000
 IR Inten    --     1.2707                 0.5532                 1.0448
 Raman Activ --     0.0000                 0.0000                 0.0000
 Depolar     --     0.0000                 0.0000                 0.0000
 Atom AN      X      Y      Z        X      Y      Z        X      Y      Z
   1   6    -0.08  -0.09   0.05     0.05  -0.20   0.07    -0.07  -0.36  -0.15
   2   6    -0.10  -0.16   0.01     0.14  -0.09   0.08    -0.03  -0.08   0.01
   3   8    -0.11  -0.21   0.05     0.13   0.04   0.02    -0.09   0.11   0.03
   4  15    -0.12  -0.07   0.02     0.17   0.09   0.01    -0.06   0.17   0.08
   5  16     0.12  -0.03  -0.17     0.39  -0.02   0.19    -0.18   0.26  -0.06
   6   8    -0.18  -0.00   0.09    -0.02  -0.02  -0.06     0.06   0.17   0.08
   7   6    -0.12   0.08   0.08    -0.04  -0.06  -0.06    -0.02   0.06   0.05
   8   6    -0.11   0.07   0.12    -0.04  -0.02  -0.09    -0.02  -0.08  -0.02
   9  16    -0.17   0.10   0.06     0.19   0.27  -0.13    -0.06   0.01   0.16
  10   6     0.01   0.11  -0.02     0.01   0.13  -0.07    -0.02   0.00  -0.02
  11  16    -0.04   0.30  -0.11    -0.23   0.12  -0.22    -0.09   0.07  -0.09
  12  15     0.12   0.06  -0.05    -0.16  -0.04  -0.08     0.02  -0.09  -0.06
  13  16     0.01   0.12  -0.02    -0.43  -0.26   0.03     0.14  -0.28  -0.09
  14   8     0.08  -0.13   0.04    -0.04  -0.01   0.01    -0.02  -0.07  -0.07
  15   6    -0.03  -0.19   0.12    -0.04  -0.00   0.06     0.14   0.13   0.03
  16   6    -0.14  -0.14   0.12    -0.05  -0.00   0.08     0.34   0.08   0.28
  17   8     0.26   0.06  -0.14    -0.01   0.02  -0.03     0.00  -0.04   0.03
  18   6     0.29   0.02  -0.11    -0.02  -0.00   0.08     0.03  -0.03  -0.03
  19   6     0.32  -0.07  -0.07     0.01   0.02   0.14    -0.01  -0.03  -0.14
  20   1    -0.03  -0.01   0.01     0.01  -0.06   0.02     0.01  -0.14  -0.02
  21   1    -0.01  -0.03   0.03    -0.01  -0.05   0.01    -0.06  -0.10  -0.09
  22   1    -0.02  -0.02   0.01     0.02  -0.08   0.03    -0.01  -0.14  -0.05
  23   1    -0.03  -0.06   0.01     0.04  -0.02   0.02    -0.03   0.01  -0.01
  24   1    -0.03  -0.05  -0.01     0.07  -0.03   0.04     0.03  -0.03   0.05
  25   1    -0.03   0.03   0.03    -0.02  -0.03  -0.02     0.01   0.02   0.01
  26   1    -0.03   0.03   0.00    -0.00  -0.02  -0.00    -0.03   0.02   0.03
  27   1    -0.02   0.03   0.04    -0.02  -0.01  -0.03    -0.02  -0.05  -0.01
  28   1    -0.04   0.01   0.02    -0.00   0.00  -0.02    -0.02  -0.03   0.00
  29   1    -0.03   0.01   0.05    -0.02   0.00  -0.03     0.02  -0.02  -0.03
  30   1     0.01   0.04  -0.01     0.02   0.03  -0.03     0.00  -0.01  -0.01
  31   1     0.02   0.02  -0.00    -0.01   0.05   0.01    -0.00  -0.00  -0.01
  32   1    -0.01  -0.06   0.04    -0.02   0.00   0.02     0.04   0.10  -0.01
  33   1     0.01  -0.08   0.04    -0.00  -0.01   0.02     0.03   0.03  -0.00
  34   1    -0.06  -0.06   0.05    -0.01   0.00   0.04     0.12   0.06   0.11
  35   1    -0.04  -0.03   0.03    -0.00  -0.01   0.02     0.10  -0.04   0.10
  36   1    -0.05  -0.02   0.03    -0.02   0.01   0.02     0.10   0.04   0.09
  37   1     0.08   0.01  -0.03    -0.02  -0.02   0.02     0.03  -0.01  -0.01
  38   1     0.10   0.02  -0.04     0.00   0.01   0.02    -0.00  -0.01   0.00
  39   1     0.07  -0.03  -0.01    -0.00  -0.00   0.04     0.01  -0.00  -0.05
  40   1     0.11  -0.03  -0.02     0.00   0.00   0.05    -0.00  -0.01  -0.06
  41   1     0.10  -0.02  -0.02     0.01   0.02   0.04    -0.03  -0.02  -0.04
                      7                      8                      9
                        a                      a                      a 
 Frequencies --    69.7640                69.6625                66.4210
 Red. masses --    15.7542                13.8188                12.4857
 Frc consts  --     0.0000                 0.0000                 0.0000
 IR Inten    --     1.8087                 5.4286                 4.6272
 Raman Activ --     0.0000                 0.0000                 0.0000
 Depolar     --     0.0000                 0.0000                 0.0000
 Atom AN      X      Y      Z        X      Y      Z        X      Y      Z
   1   6    -0.03  -0.06  -0.07    -0.06  -0.45  -0.13    -0.05  -0.06  -0.05
   2   6    -0.04  -0.00  -0.03     0.04  -0.11   0.02    -0.04  -0.02  -0.04
   3   8    -0.05   0.05  -0.00    -0.03   0.17  -0.02    -0.06   0.04  -0.04
   4  15    -0.05   0.01   0.04     0.00   0.14   0.04    -0.05  -0.01  -0.00
   5  16    -0.07  -0.05   0.19    -0.20   0.15   0.12     0.03  -0.11   0.21
   6   8    -0.06  -0.02  -0.00     0.10   0.10   0.00    -0.08  -0.06  -0.04
   7   6     0.09   0.06   0.03     0.06   0.01  -0.00     0.13   0.08   0.01
   8   6     0.10   0.24   0.17     0.07  -0.15  -0.03     0.13   0.48   0.20
   9  16     0.01   0.05  -0.10     0.05   0.01   0.02    -0.03   0.07  -0.08
  10   6     0.01   0.03   0.00    -0.02  -0.02  -0.00    -0.03   0.04   0.02
  11  16    -0.02  -0.11   0.02     0.09  -0.02   0.07    -0.04  -0.06   0.06
  12  15     0.01  -0.07  -0.21     0.04   0.04   0.06    -0.04  -0.07   0.07
  13  16     0.11   0.21  -0.28    -0.08   0.25   0.09    -0.19  -0.04   0.12
  14   8    -0.03  -0.19  -0.12     0.06   0.00   0.08     0.02  -0.01   0.08
  15   6     0.03  -0.07   0.03    -0.06  -0.14  -0.03     0.11   0.07   0.03
  16   6     0.10  -0.09   0.16    -0.17  -0.13  -0.41     0.23  -0.01  -0.22
  17   8     0.05  -0.09  -0.26     0.07  -0.00  -0.05    -0.03  -0.07   0.01
  18   6    -0.16  -0.04   0.04     0.03   0.00  -0.01     0.06  -0.06  -0.14
  19   6    -0.02   0.12   0.45     0.06   0.01   0.08     0.00  -0.14  -0.32
  20   1     0.00  -0.02  -0.02     0.02  -0.16  -0.02    -0.01  -0.02  -0.01
  21   1    -0.02  -0.01  -0.03    -0.08  -0.12  -0.09    -0.03  -0.02  -0.02
  22   1    -0.01  -0.03  -0.03    -0.01  -0.18  -0.04    -0.01  -0.03  -0.02
  23   1    -0.02   0.00  -0.01    -0.01   0.00  -0.01    -0.02  -0.01  -0.01
  24   1     0.00  -0.00  -0.00     0.07  -0.04   0.06     0.00  -0.01  -0.01
  25   1     0.01   0.00   0.00     0.04   0.01  -0.01    -0.01  -0.01  -0.01
  26   1     0.07   0.01  -0.01    -0.01   0.01   0.01     0.12  -0.00  -0.02
  27   1     0.05   0.09   0.06     0.01  -0.05  -0.01     0.07   0.17   0.06
  28   1     0.05   0.08   0.04    -0.00  -0.06  -0.01     0.09   0.17   0.06
  29   1    -0.01   0.07   0.07     0.05  -0.05  -0.01    -0.05   0.16   0.08
  30   1     0.01   0.02  -0.00    -0.02  -0.02   0.01    -0.01   0.02   0.00
  31   1     0.00   0.01   0.01    -0.01  -0.00  -0.02    -0.01   0.01   0.01
  32   1    -0.01   0.02   0.01    -0.04  -0.11   0.03    -0.00   0.00   0.03
  33   1     0.02  -0.04   0.02     0.01   0.00   0.02     0.05   0.07   0.03
  34   1     0.04  -0.01   0.07    -0.06  -0.06  -0.15     0.08   0.02  -0.07
  35   1     0.04  -0.06   0.05    -0.03   0.03  -0.15     0.10   0.01  -0.09
  36   1     0.02  -0.01   0.04    -0.07  -0.09  -0.14     0.04  -0.05  -0.08
  37   1    -0.14  -0.04   0.02    -0.01   0.00  -0.00     0.06   0.00  -0.04
  38   1    -0.03  -0.02  -0.02     0.01  -0.00  -0.01     0.01  -0.02  -0.03
  39   1    -0.03   0.03   0.16     0.01  -0.00   0.03     0.01  -0.03  -0.10
  40   1    -0.04   0.03   0.19     0.02   0.00   0.03     0.01  -0.04  -0.12
  41   1     0.08   0.07   0.12     0.04   0.01   0.02    -0.04  -0.06  -0.09
                     10                     11                     12
                        a                      a                      a 
 Frequencies --    71.9322                80.5560                81.5171
 Red. masses --    11.4217                11.8952                11.2687
 Frc consts  --     0.0000                 0.0000                 0.0000
 IR Inten    --     1.9638                 1.5162                 1.4783
 Raman Activ --     0.0000                 0.0000                 0.0000
 Depolar     --     0.0000                 0.0000                 0.0000
 Atom AN      X      Y      Z        X      Y      Z        X      Y      Z
   1   6     0.04  -0.10  -0.17     0.13   0.18  -0.29    -0.17   0.15   0.24
   2   6    -0.00   0.02  -0.05    -0.10   0.11  -0.16    -0.04  -0.05   0.01
   3   8    -0.00   0.02   0.01    -0.06  -0.07   0.11    -0.08   0.03  -0.07
   4  15     0.03   0.00   0.04    -0.01   0.03   0.15    -0.03   0.03  -0.04
   5  16     0.03  -0.02   0.09     0.18   0.03   0.08     0.07   0.04  -0.08
   6   8     0.02   0.00   0.03    -0.08   0.05   0.15     0.03   0.00  -0.06
   7   6    -0.03   0.03   0.01    -0.30   0.01   0.07     0.17  -0.04  -0.01
   8   6    -0.05   0.27  -0.05    -0.33  -0.05  -0.17     0.21  -0.27   0.15
   9  16     0.06  -0.07   0.01     0.02   0.03   0.08    -0.11   0.08   0.11
  10   6     0.04  -0.04  -0.07     0.02   0.02   0.00    -0.01   0.07   0.01
  11  16     0.11   0.03  -0.11     0.02  -0.02   0.00    -0.09   0.11  -0.04
  12  15     0.13  -0.03   0.04     0.07  -0.09  -0.00     0.05  -0.07  -0.04
  13  16     0.14  -0.14   0.05    -0.08  -0.00   0.05    -0.08  -0.06   0.01
  14   8     0.12  -0.01   0.05     0.11  -0.08   0.06     0.06  -0.15   0.05
  15   6    -0.08  -0.20   0.05     0.15  -0.01   0.07     0.09  -0.08   0.10
  16   6    -0.34  -0.08   0.17     0.25  -0.09  -0.24     0.17  -0.14  -0.13
  17   8     0.07  -0.03   0.04     0.07  -0.10  -0.09     0.14  -0.06  -0.11
  18   6    -0.13   0.05   0.05    -0.07  -0.04  -0.02    -0.09   0.01   0.03
  19   6    -0.27   0.36  -0.24    -0.04   0.08   0.07    -0.19   0.36  -0.13
  20   1     0.03  -0.06  -0.03     0.05   0.03  -0.07    -0.07   0.11   0.04
  21   1     0.01  -0.03  -0.08     0.08   0.05  -0.09    -0.06   0.04   0.13
  22   1     0.01  -0.03  -0.06     0.03   0.09  -0.11    -0.04   0.02   0.08
  23   1    -0.02   0.03  -0.03    -0.07   0.04  -0.06     0.01  -0.08   0.03
  24   1     0.00   0.00   0.02    -0.06   0.03  -0.05    -0.00  -0.01  -0.06
  25   1    -0.05  -0.02   0.00    -0.10   0.01   0.04     0.10   0.01  -0.02
  26   1     0.03  -0.01   0.01    -0.12   0.01   0.04     0.02   0.00  -0.02
  27   1    -0.03   0.07  -0.02    -0.14  -0.04  -0.06     0.09  -0.08   0.05
  28   1     0.03   0.11  -0.01    -0.09  -0.01  -0.05     0.01  -0.11   0.04
  29   1    -0.05   0.10  -0.03    -0.06  -0.01  -0.08     0.09  -0.10   0.06
  30   1     0.01  -0.02  -0.02     0.01   0.00  -0.00     0.01   0.03  -0.01
  31   1     0.01  -0.01  -0.03     0.01   0.01   0.00     0.01   0.01   0.01
  32   1     0.01  -0.07   0.00    -0.01  -0.03   0.06    -0.02  -0.04   0.06
  33   1    -0.03  -0.11   0.00     0.08   0.05   0.05     0.06   0.01   0.06
  34   1    -0.13  -0.06   0.04     0.08  -0.01  -0.07     0.06  -0.03  -0.03
  35   1    -0.13  -0.00   0.07     0.12  -0.00  -0.11     0.09  -0.03  -0.07
  36   1    -0.08   0.03   0.06     0.03  -0.08  -0.10     0.01  -0.08  -0.07
  37   1     0.02  -0.02   0.02    -0.04  -0.02  -0.01     0.01  -0.04   0.02
  38   1    -0.10  -0.01   0.07    -0.03  -0.03  -0.01    -0.08  -0.01   0.07
  39   1    -0.01   0.12  -0.13    -0.01   0.03   0.02    -0.00   0.11  -0.10
  40   1    -0.12   0.11  -0.06    -0.04   0.03   0.04    -0.10   0.11  -0.00
  41   1    -0.13   0.13  -0.08     0.01   0.04   0.02    -0.09   0.15  -0.05
                     13                     14                     15
                        a                      a                      a 
 Frequencies --    89.4869               119.8228               120.1098
 Red. masses --    12.2389                16.6368                12.7454
 Frc consts  --     0.0000                 0.0000                 0.0000
 IR Inten    --     1.6359                 5.5934                 2.5730
 Raman Activ --     0.0000                 0.0000                 0.0000
 Depolar     --     0.0000                 0.0000                 0.0000
 Atom AN      X      Y      Z        X      Y      Z        X      Y      Z
   1   6    -0.14  -0.01   0.27     0.33  -0.07  -0.12     0.05  -0.06  -0.00
   2   6     0.07  -0.05   0.09     0.14   0.13   0.14     0.00   0.21   0.22
   3   8     0.03   0.11  -0.10     0.23  -0.15   0.11     0.05   0.01   0.06
   4  15     0.05   0.01  -0.08     0.05  -0.19  -0.06    -0.06  -0.04  -0.00
   5  16    -0.08   0.03  -0.08    -0.36  -0.08  -0.19     0.05   0.04  -0.26
   6   8     0.17  -0.03  -0.12     0.02  -0.10   0.00    -0.06  -0.07  -0.04
   7   6    -0.07  -0.15  -0.16     0.02  -0.05   0.00     0.06  -0.18  -0.00
   8   6    -0.14   0.31  -0.43     0.02   0.03   0.02     0.05   0.02   0.11
   9  16    -0.08  -0.11   0.26    -0.01   0.09  -0.07    -0.12   0.05   0.11
  10   6    -0.02  -0.05   0.07     0.01   0.08   0.13     0.04   0.08   0.01
  11  16    -0.07   0.09   0.03    -0.18   0.11   0.13    -0.00   0.14  -0.03
  12  15     0.01  -0.02   0.04    -0.11   0.05  -0.01     0.09   0.02   0.01
  13  16     0.08   0.07   0.00    -0.06   0.01  -0.03     0.11  -0.25   0.02
  14   8    -0.03  -0.11   0.03    -0.18  -0.14  -0.02     0.16   0.10   0.07
  15   6     0.02  -0.04   0.06    -0.06  -0.01   0.04     0.04   0.01   0.13
  16   6     0.11  -0.08  -0.04     0.12  -0.09  -0.05    -0.09   0.03  -0.10
  17   8     0.07  -0.01  -0.02     0.11   0.11  -0.00    -0.09  -0.08  -0.06
  18   6     0.03  -0.00   0.03     0.12   0.05   0.15    -0.24   0.06  -0.31
  19   6     0.05   0.03   0.09     0.03   0.19  -0.06    -0.06  -0.07   0.13
  20   1    -0.06   0.04   0.06     0.09  -0.12   0.00     0.00  -0.12   0.03
  21   1    -0.08  -0.00   0.11     0.15  -0.02  -0.13     0.04  -0.02  -0.10
  22   1    -0.03  -0.05   0.10     0.08   0.05  -0.04     0.01   0.02   0.02
  23   1     0.05  -0.05   0.05     0.04   0.14   0.01     0.02   0.17   0.04
  24   1     0.04  -0.01  -0.00    -0.01   0.03   0.13    -0.04   0.05   0.17
  25   1    -0.12  -0.12  -0.06    -0.00  -0.02   0.00    -0.01  -0.09  -0.04
  26   1     0.04  -0.10   0.02     0.02  -0.02  -0.00     0.06  -0.08   0.03
  27   1    -0.09   0.04  -0.14     0.01   0.02   0.01     0.04  -0.02   0.04
  28   1     0.06   0.17  -0.08     0.02   0.01   0.00     0.04   0.04   0.07
  29   1    -0.11   0.16  -0.20    -0.01   0.01   0.01    -0.04   0.04   0.02
  30   1     0.00  -0.02   0.01     0.02   0.05   0.02     0.02   0.04  -0.01
  31   1     0.00  -0.02   0.01     0.01   0.02   0.07     0.03   0.01   0.02
  32   1    -0.02  -0.01   0.03    -0.05   0.01   0.03    -0.03  -0.03   0.07
  33   1     0.02   0.01   0.03     0.00   0.03   0.03     0.05   0.01   0.07
  34   1     0.04  -0.01  -0.00     0.06   0.01   0.00    -0.05  -0.01  -0.01
  35   1     0.05  -0.03  -0.03     0.07  -0.04  -0.03     0.01   0.05  -0.06
  36   1     0.01  -0.05  -0.02     0.01  -0.06  -0.03    -0.07  -0.00  -0.06
  37   1    -0.01  -0.01   0.01     0.09  -0.04   0.05    -0.18   0.13  -0.10
  38   1     0.01  -0.00   0.00     0.01   0.03   0.12    -0.04  -0.04  -0.23
  39   1     0.01   0.01   0.03     0.04   0.04  -0.08    -0.06   0.03   0.17
  40   1     0.01   0.01   0.04     0.01   0.05   0.02    -0.04  -0.00  -0.02
  41   1     0.03   0.02   0.03    -0.04   0.11  -0.03     0.09  -0.12   0.05
                     16                     17                     18
                        a                      a                      a 
 Frequencies --   136.9227               131.5540               146.1579
 Red. masses --    19.1487                15.5900                15.0414
 Frc consts  --     0.0000                 0.0000                 0.0000
 IR Inten    --    20.7138                 1.0300                16.7319
 Raman Activ --     0.0000                 0.0000                 0.0000
 Depolar     --     0.0000                 0.0000                 0.0000
 Atom AN      X      Y      Z        X      Y      Z        X      Y      Z
   1   6    -0.03  -0.07   0.00     0.09   0.06   0.02     0.05   0.07  -0.04
   2   6     0.00   0.22   0.17     0.08  -0.24  -0.17    -0.06  -0.12  -0.09
   3   8     0.03   0.13  -0.02     0.05  -0.12   0.01    -0.07  -0.08   0.16
   4  15    -0.06   0.06  -0.06     0.11  -0.04  -0.01    -0.02   0.08   0.21
   5  16     0.36  -0.04   0.00    -0.25  -0.06   0.16    -0.06   0.25  -0.18
   6   8    -0.14  -0.00  -0.07     0.09   0.02   0.05     0.00  -0.03   0.05
   7   6    -0.04   0.04  -0.04     0.01   0.13   0.01     0.08  -0.48   0.09
   8   6    -0.02  -0.03   0.08     0.01  -0.01  -0.06     0.04   0.01   0.11
   9  16    -0.05  -0.18  -0.00     0.11   0.08  -0.09     0.12   0.16  -0.12
  10   6    -0.13  -0.15  -0.17     0.00   0.03  -0.04    -0.01   0.05  -0.12
  11  16    -0.06   0.02  -0.26    -0.11   0.14  -0.15    -0.03   0.03  -0.19
  12  15    -0.11  -0.02   0.08    -0.09   0.06   0.04    -0.01  -0.08   0.03
  13  16     0.29   0.27  -0.08     0.32  -0.07  -0.10     0.05   0.21  -0.00
  14   8    -0.12  -0.10   0.05    -0.03  -0.01   0.09     0.01  -0.00   0.01
  15   6    -0.05   0.00   0.18    -0.06   0.04   0.40     0.01  -0.02  -0.04
  16   6     0.07  -0.08  -0.04    -0.04  -0.02  -0.05    -0.00  -0.01  -0.02
  17   8    -0.10   0.03   0.15    -0.16   0.03   0.07    -0.08  -0.04   0.11
  18   6     0.04  -0.05   0.19    -0.10   0.04  -0.09     0.00  -0.09   0.15
  19   6    -0.05  -0.09  -0.04    -0.06  -0.11  -0.02    -0.06  -0.11  -0.01
  20   1    -0.02  -0.11   0.03     0.04   0.11  -0.02     0.04   0.06  -0.02
  21   1     0.00  -0.02  -0.09     0.02   0.01   0.10     0.02   0.02   0.04
  22   1    -0.01   0.00   0.03     0.03  -0.00  -0.02     0.01   0.02  -0.05
  23   1     0.03   0.16   0.03    -0.00  -0.17  -0.03    -0.05  -0.09  -0.02
  24   1    -0.02   0.06   0.15     0.05  -0.06  -0.15    -0.00  -0.03  -0.09
  25   1     0.01   0.03  -0.01     0.02   0.07   0.04    -0.06  -0.25  -0.09
  26   1    -0.02   0.02  -0.03    -0.03   0.06  -0.02     0.13  -0.23   0.14
  27   1     0.02   0.01   0.03    -0.01   0.02  -0.02     0.02  -0.08   0.03
  28   1    -0.03  -0.03   0.02    -0.02  -0.03  -0.05     0.10   0.10   0.12
  29   1    -0.00  -0.03   0.05     0.04  -0.03   0.00    -0.09   0.09  -0.05
  30   1    -0.06  -0.09  -0.03     0.01  -0.00  -0.02    -0.00  -0.00  -0.03
  31   1    -0.05  -0.04  -0.09    -0.01   0.02  -0.01    -0.02   0.03  -0.04
  32   1    -0.08  -0.00   0.09    -0.14  -0.01   0.19     0.01  -0.01  -0.02
  33   1     0.03   0.04   0.09     0.09   0.05   0.20    -0.01  -0.01  -0.02
  34   1     0.04   0.00   0.02    -0.01   0.00   0.05    -0.00  -0.01  -0.01
  35   1     0.08  -0.02  -0.05     0.09   0.02  -0.10    -0.01  -0.00  -0.00
  36   1    -0.03  -0.06  -0.05    -0.12  -0.06  -0.09     0.01  -0.00  -0.00
  37   1     0.07  -0.05   0.06    -0.05   0.06  -0.03     0.04  -0.05   0.05
  38   1     0.00   0.01   0.11    -0.01   0.00  -0.07    -0.01  -0.01   0.08
  39   1    -0.00  -0.05  -0.06    -0.04  -0.02   0.04    -0.01  -0.05  -0.04
  40   1     0.01  -0.04  -0.00    -0.00  -0.03  -0.04     0.00  -0.04  -0.00
  41   1    -0.07   0.00  -0.02     0.00  -0.07   0.00    -0.06  -0.02  -0.01
                     19                     20                     21
                        a                      a                      a 
 Frequencies --   158.8397               173.0569               199.7731
 Red. masses --    19.0433                14.5349                16.6794
 Frc consts  --     0.0000                 0.0000                 0.0000
 IR Inten    --    15.4342                 9.0702                11.9283
 Raman Activ --     0.0000                 0.0000                 0.0000
 Depolar     --     0.0000                 0.0000                 0.0000
 Atom AN      X      Y      Z        X      Y      Z        X      Y      Z
   1   6     0.12  -0.00  -0.00    -0.03  -0.02   0.01    -0.19  -0.01   0.02
   2   6     0.09  -0.03  -0.00    -0.02   0.06   0.06    -0.25   0.12   0.14
   3   8     0.10  -0.07  -0.01    -0.01  -0.02  -0.04    -0.20  -0.12   0.04
   4  15     0.07  -0.05  -0.09     0.00  -0.08  -0.03    -0.12  -0.17   0.18
   5  16    -0.12  -0.10   0.07    -0.08  -0.08  -0.04     0.10  -0.13  -0.04
   6   8     0.01  -0.02  -0.03     0.07  -0.02   0.00     0.44   0.07   0.23
   7   6     0.01   0.15  -0.04     0.01   0.10  -0.02     0.17   0.08   0.14
   8   6     0.02  -0.01  -0.02     0.01   0.01  -0.08     0.13   0.02  -0.27
   9  16    -0.07   0.09   0.10    -0.13   0.14   0.16     0.03   0.08  -0.36
  10   6    -0.02   0.07  -0.08     0.17   0.18   0.08     0.05   0.08  -0.03
  11  16    -0.15   0.33  -0.26    -0.07  -0.02  -0.01     0.01   0.05  -0.06
  12  15     0.10  -0.15   0.20     0.10  -0.17  -0.19    -0.02   0.02   0.04
  13  16     0.04   0.26   0.22    -0.07   0.14  -0.16     0.00   0.01   0.04
  14   8     0.01  -0.08   0.07     0.35   0.20  -0.02    -0.08  -0.06   0.00
  15   6     0.09  -0.11  -0.32     0.14   0.04   0.11    -0.03  -0.02  -0.02
  16   6     0.11  -0.08   0.03    -0.14   0.15  -0.02     0.04  -0.06  -0.00
  17   8    -0.05  -0.17   0.12    -0.11  -0.14  -0.00    -0.02   0.03   0.06
  18   6    -0.17  -0.07  -0.06     0.02  -0.25   0.27    -0.02   0.04  -0.01
  19   6    -0.13  -0.10   0.05    -0.10  -0.20  -0.01    -0.01  -0.01   0.01
  20   1     0.03  -0.01   0.00    -0.02  -0.04   0.01    -0.06  -0.06   0.02
  21   1     0.05  -0.00  -0.00     0.00  -0.01  -0.03    -0.04  -0.00  -0.05
  22   1     0.03   0.01   0.00    -0.01   0.01   0.02    -0.06   0.03   0.01
  23   1     0.03  -0.01  -0.00     0.01   0.05   0.01    -0.04   0.11   0.03
  24   1     0.02  -0.01  -0.00    -0.02   0.01   0.05    -0.12   0.03   0.11
  25   1     0.03   0.08   0.03     0.01   0.06   0.03     0.03   0.03   0.07
  26   1    -0.03   0.07  -0.05    -0.02   0.05  -0.03     0.01   0.03   0.05
  27   1     0.01   0.03  -0.00    -0.01   0.02  -0.03    -0.06   0.01  -0.10
  28   1    -0.03  -0.04  -0.04    -0.01  -0.01  -0.05     0.07  -0.00  -0.13
  29   1     0.04  -0.04   0.03     0.03  -0.01  -0.01     0.09  -0.00  -0.11
  30   1     0.01   0.00  -0.03     0.10   0.11  -0.01     0.03   0.05  -0.02
  31   1    -0.00   0.02  -0.02     0.08   0.03   0.10     0.02   0.02   0.02
  32   1     0.15  -0.02  -0.17     0.01  -0.02   0.06    -0.01  -0.00  -0.01
  33   1    -0.09  -0.05  -0.18     0.08  -0.01   0.06    -0.02   0.00  -0.01
  34   1     0.04  -0.03  -0.06    -0.09  -0.01   0.03     0.03  -0.00  -0.00
  35   1    -0.07  -0.04   0.08    -0.01   0.09  -0.04     0.01  -0.03   0.00
  36   1     0.13   0.01   0.08    -0.09   0.07  -0.03     0.02  -0.03   0.00
  37   1    -0.08   0.03  -0.02     0.08  -0.17   0.09    -0.02   0.03  -0.01
  38   1    -0.05  -0.05  -0.07    -0.01  -0.02   0.19    -0.00   0.00  -0.02
  39   1    -0.04  -0.00   0.07    -0.01  -0.10  -0.10    -0.01   0.01   0.02
  40   1    -0.05  -0.02  -0.03     0.00  -0.08   0.04    -0.00   0.00  -0.02
  41   1    -0.01  -0.08   0.02    -0.11   0.02  -0.02     0.00  -0.03   0.01
                     22                     23                     24
                        a                      a                      a 
 Frequencies --   227.5774               241.2559               221.1294
 Red. masses --    16.6114                20.0816                 5.1324
 Frc consts  --     0.0000                 0.0000                 0.0000
 IR Inten    --    31.5375                15.2424                 2.7485
 Raman Activ --     0.0000                 0.0000                 0.0000
 Depolar     --     0.0000                 0.0000                 0.0000
 Atom AN      X      Y      Z        X      Y      Z        X      Y      Z
   1   6     0.18   0.01   0.03    -0.24  -0.01  -0.04    -0.01   0.00   0.01
   2   6     0.00  -0.09   0.08    -0.03   0.13  -0.09     0.01  -0.01  -0.01
   3   8     0.01  -0.18   0.13    -0.03   0.20  -0.13     0.01  -0.02  -0.02
   4  15    -0.11   0.08  -0.04     0.17  -0.14   0.12    -0.01   0.02  -0.05
   5  16     0.09  -0.01   0.13    -0.07  -0.01  -0.18     0.00  -0.02   0.03
   6   8     0.09   0.12  -0.01    -0.04  -0.18   0.06    -0.01   0.06   0.01
   7   6     0.10  -0.00  -0.02    -0.09  -0.04   0.06    -0.01   0.03   0.01
   8   6     0.09  -0.01  -0.11    -0.10  -0.00   0.10    -0.00  -0.01   0.03
   9  16    -0.19   0.01  -0.10     0.37  -0.03  -0.07    -0.01  -0.05  -0.03
  10   6    -0.36  -0.09  -0.05     0.09  -0.06   0.13     0.06  -0.01   0.04
  11  16    -0.31  -0.11   0.05    -0.38  -0.01  -0.07    -0.12  -0.08  -0.03
  12  15    -0.09  -0.13   0.08    -0.15  -0.13   0.12     0.05  -0.18  -0.02
  13  16     0.18   0.01  -0.02     0.16   0.05   0.02    -0.06   0.13  -0.00
  14   8     0.13   0.18   0.14     0.03   0.09   0.15    -0.00   0.00  -0.13
  15   6     0.08   0.12  -0.01     0.04   0.08  -0.00    -0.00   0.02  -0.06
  16   6    -0.09   0.20  -0.03    -0.04   0.12  -0.03    -0.05   0.05  -0.01
  17   8     0.18  -0.13  -0.20     0.13  -0.09  -0.08     0.10  -0.02   0.19
  18   6     0.09  -0.10  -0.08     0.07  -0.05  -0.07     0.08   0.02   0.07
  19   6     0.11   0.15   0.01     0.09   0.12   0.00     0.05   0.11  -0.00
  20   1     0.06  -0.01   0.02    -0.07   0.02  -0.02    -0.02  -0.01   0.00
  21   1     0.10  -0.01   0.01    -0.14   0.01  -0.01     0.02  -0.00  -0.01
  22   1     0.04   0.05  -0.02    -0.05  -0.08   0.02    -0.00   0.02   0.02
  23   1    -0.01  -0.02   0.02     0.00   0.04  -0.02     0.01  -0.00  -0.00
  24   1    -0.02  -0.02   0.02     0.01   0.03  -0.01    -0.00  -0.00  -0.00
  25   1     0.02  -0.01  -0.02    -0.03   0.00   0.04     0.00   0.01  -0.00
  26   1     0.03  -0.01   0.02    -0.03   0.00  -0.01    -0.00   0.01   0.01
  27   1     0.00  -0.06  -0.04    -0.02   0.14   0.04     0.01  -0.13   0.00
  28   1     0.04   0.02   0.00    -0.04  -0.06  -0.08    -0.00   0.05   0.12
  29   1     0.03   0.03  -0.09    -0.03  -0.07   0.15    -0.01   0.06  -0.09
  30   1    -0.15  -0.08   0.02     0.07  -0.00   0.01     0.04   0.03  -0.01
  31   1    -0.14   0.00  -0.08     0.02  -0.00   0.09     0.03  -0.01   0.05
  32   1     0.05   0.01  -0.01     0.04   0.01  -0.01    -0.02   0.01  -0.01
  33   1     0.01   0.03  -0.02    -0.01   0.03  -0.02     0.02  -0.01  -0.00
  34   1    -0.06   0.01  -0.06    -0.03   0.00  -0.09    -0.03   0.04   0.28
  35   1    -0.08   0.11   0.01    -0.08   0.09   0.02     0.19  -0.10  -0.11
  36   1     0.01   0.07   0.02     0.05   0.03   0.03    -0.23   0.12  -0.15
  37   1     0.01  -0.05  -0.02     0.01  -0.01  -0.02     0.02   0.04   0.02
  38   1     0.01  -0.03  -0.01     0.01  -0.03  -0.03     0.01  -0.02  -0.00
  39   1     0.06   0.06  -0.01     0.05   0.08   0.02     0.13   0.33   0.26
  40   1    -0.02   0.05   0.05    -0.03   0.06  -0.01    -0.16   0.16  -0.37
  41   1     0.06   0.08  -0.01     0.06   0.02   0.00     0.06  -0.36   0.07
                     25                     26                     27
                        a                      a                      a 
 Frequencies --   226.2681               232.9889               234.6379
 Red. masses --     4.8516                 6.5920                 6.7052
 Frc consts  --     0.0000                 0.0000                 0.0000
 IR Inten    --     1.4680                 1.9227                 3.7710
 Raman Activ --     0.0000                 0.0000                 0.0000
 Depolar     --     0.0000                 0.0000                 0.0000
 Atom AN      X      Y      Z        X      Y      Z        X      Y      Z
   1   6    -0.08   0.00   0.01     0.16   0.00  -0.01     0.02   0.00  -0.02
   2   6    -0.02  -0.02  -0.05     0.08   0.03   0.05     0.06   0.08  -0.00
   3   8    -0.00  -0.08  -0.11     0.04   0.15   0.10     0.05   0.12  -0.02
   4  15     0.04   0.03  -0.15    -0.17  -0.01   0.02    -0.04  -0.05  -0.06
   5  16    -0.04  -0.05   0.08     0.09  -0.02  -0.04     0.05  -0.10  -0.02
   6   8    -0.03   0.15   0.03     0.02   0.02   0.01     0.01   0.08   0.08
   7   6    -0.02   0.08   0.04     0.01  -0.00   0.00    -0.03   0.06   0.08
   8   6    -0.02  -0.03   0.09     0.01   0.00  -0.03    -0.03  -0.03   0.08
   9  16     0.06  -0.06  -0.01    -0.23  -0.10  -0.10    -0.03  -0.16  -0.18
  10   6     0.18   0.02   0.06     0.12   0.04   0.05     0.09  -0.04   0.10
  11  16    -0.06  -0.04  -0.07    -0.03  -0.04  -0.02    -0.09   0.17   0.01
  12  15    -0.10   0.03  -0.01    -0.05   0.01  -0.06     0.04  -0.01   0.08
  13  16     0.04  -0.01  -0.06    -0.01   0.01  -0.10     0.03  -0.00   0.11
  14   8     0.01   0.00   0.11     0.05  -0.01   0.05    -0.03   0.02  -0.01
  15   6     0.01  -0.01   0.08     0.02  -0.04   0.08    -0.01   0.03  -0.08
  16   6     0.04  -0.04  -0.02     0.03  -0.06  -0.00    -0.03   0.05  -0.01
  17   8    -0.02   0.05   0.01    -0.03   0.06   0.07     0.02  -0.07  -0.07
  18   6     0.01   0.03   0.02     0.02   0.04   0.06    -0.04  -0.04  -0.08
  19   6     0.01   0.01   0.01    -0.00   0.01  -0.00    -0.01  -0.02   0.01
  20   1    -0.17  -0.12  -0.00     0.33   0.24  -0.00     0.18   0.16  -0.01
  21   1     0.12  -0.02  -0.11    -0.24   0.03   0.21    -0.20   0.03   0.13
  22   1    -0.04   0.15   0.13     0.07  -0.30  -0.25     0.03  -0.22  -0.14
  23   1     0.02   0.01  -0.01    -0.01  -0.01   0.01     0.01   0.02  -0.00
  24   1    -0.02  -0.00  -0.00     0.05   0.01  -0.00     0.03   0.02  -0.00
  25   1     0.01   0.02  -0.01     0.00  -0.00   0.00     0.00   0.02   0.01
  26   1    -0.01   0.02   0.03     0.00  -0.00   0.00    -0.01   0.01   0.03
  27   1     0.03  -0.40   0.01    -0.01   0.03  -0.01     0.01  -0.29   0.01
  28   1    -0.01   0.15   0.36     0.01  -0.01  -0.04    -0.01   0.10   0.26
  29   1    -0.03   0.17  -0.28     0.01  -0.01   0.02    -0.02   0.12  -0.20
  30   1     0.10   0.06  -0.02     0.07   0.09  -0.02     0.05   0.04   0.01
  31   1     0.08  -0.01   0.09     0.07  -0.02   0.09     0.05  -0.03   0.07
  32   1     0.01  -0.01   0.02     0.00  -0.02   0.03     0.01   0.01  -0.03
  33   1    -0.00   0.01   0.02     0.01  -0.00   0.03    -0.01   0.00  -0.03
  34   1     0.02  -0.04  -0.29     0.01  -0.05  -0.27    -0.02   0.04   0.23
  35   1    -0.20   0.11   0.10    -0.18   0.10   0.10     0.16  -0.09  -0.09
  36   1     0.22  -0.12   0.14     0.20  -0.11   0.13    -0.18   0.10  -0.11
  37   1     0.01   0.01   0.00     0.01   0.01   0.02    -0.02  -0.01  -0.02
  38   1     0.01   0.01   0.01     0.00   0.01   0.02    -0.01  -0.02  -0.03
  39   1     0.01   0.02   0.02     0.04   0.12   0.11    -0.07  -0.17  -0.15
  40   1    -0.00   0.01  -0.03    -0.06   0.05  -0.17     0.08  -0.08   0.23
  41   1     0.01  -0.03   0.01     0.00  -0.17   0.03    -0.01   0.23  -0.04
                     28                     29                     30
                        a                      a                      a 
 Frequencies --   272.4974               297.5003               319.1659
 Red. masses --    14.1768                21.6756                15.6941
 Frc consts  --     0.0000                 0.0000                 0.0000
 IR Inten    --     2.7495                 3.7769                15.1394
 Raman Activ --     0.0000                 0.0000                 0.0000
 Depolar     --     0.0000                 0.0000                 0.0000
 Atom AN      X      Y      Z        X      Y      Z        X      Y      Z
   1   6     0.12   0.00   0.02    -0.04  -0.00  -0.00    -0.04   0.00  -0.01
   2   6     0.02  -0.14  -0.01     0.03   0.00  -0.05    -0.10   0.03   0.06
   3   8    -0.04   0.03   0.07     0.02   0.07  -0.04    -0.03  -0.21   0.04
   4  15    -0.20   0.18  -0.06     0.03  -0.00  -0.01     0.02   0.06  -0.03
   5  16     0.09   0.14   0.10     0.04  -0.01   0.01    -0.03   0.05   0.05
   6   8    -0.02   0.15  -0.06     0.04   0.05   0.07    -0.07  -0.01  -0.09
   7   6     0.02  -0.10  -0.04    -0.02  -0.05   0.06     0.02   0.02  -0.08
   8   6     0.02   0.00  -0.04    -0.03  -0.01   0.05     0.03   0.00  -0.04
   9  16    -0.12  -0.36  -0.21     0.12  -0.22  -0.26     0.15   0.01   0.05
  10   6     0.34  -0.04   0.20    -0.25  -0.20   0.18    -0.06  -0.06   0.06
  11  16    -0.15   0.07  -0.05    -0.14   0.46   0.30    -0.27  -0.19   0.03
  12  15    -0.03  -0.03   0.04     0.19   0.13  -0.16    -0.03   0.05  -0.13
  13  16     0.02   0.02   0.04    -0.09  -0.05  -0.10    -0.01   0.03  -0.18
  14   8    -0.00   0.01   0.04     0.18   0.01  -0.05     0.34   0.12   0.17
  15   6    -0.00  -0.01  -0.02     0.10  -0.08   0.01     0.13  -0.22  -0.09
  16   6    -0.00  -0.00  -0.00     0.03  -0.05   0.01     0.08  -0.20   0.03
  17   8    -0.00  -0.01   0.04    -0.05   0.04  -0.07    -0.14   0.21   0.33
  18   6    -0.01   0.02  -0.04    -0.07  -0.02   0.13     0.01   0.26  -0.05
  19   6     0.01   0.01   0.00    -0.12  -0.15   0.00     0.05   0.05  -0.01
  20   1    -0.09  -0.11   0.01    -0.06  -0.03  -0.01     0.05   0.04   0.00
  21   1     0.21  -0.02  -0.07     0.03  -0.00  -0.03    -0.07   0.01   0.03
  22   1     0.01   0.18   0.09    -0.01   0.04   0.05    -0.01  -0.06  -0.06
  23   1    -0.02  -0.09   0.00     0.01  -0.01  -0.01    -0.01   0.06   0.01
  24   1     0.03  -0.04  -0.05     0.02   0.00  -0.02    -0.07   0.01   0.05
  25   1    -0.01  -0.06  -0.05    -0.02  -0.03   0.00     0.01   0.01  -0.02
  26   1     0.03  -0.06   0.03     0.00  -0.03   0.04     0.01   0.01  -0.03
  27   1    -0.01   0.20  -0.00    -0.01   0.01   0.02     0.01  -0.00  -0.01
  28   1     0.02  -0.07  -0.18    -0.00  -0.00   0.01     0.00   0.00  -0.00
  29   1     0.01  -0.09   0.15    -0.02  -0.00   0.02     0.01   0.00  -0.01
  30   1     0.20   0.15  -0.01    -0.13  -0.12   0.10    -0.01  -0.03   0.01
  31   1     0.18  -0.07   0.22    -0.10  -0.04  -0.07    -0.03   0.00   0.03
  32   1     0.01  -0.01  -0.01     0.03  -0.03   0.00     0.11  -0.10  -0.06
  33   1    -0.01  -0.00  -0.02     0.03  -0.03   0.00    -0.02  -0.08  -0.07
  34   1    -0.00   0.01   0.05    -0.00  -0.03  -0.04     0.03  -0.04   0.10
  35   1     0.03  -0.02  -0.02    -0.03   0.01   0.02     0.08  -0.12  -0.01
  36   1    -0.03   0.02  -0.02     0.04  -0.02   0.03    -0.02  -0.02  -0.02
  37   1    -0.01   0.02  -0.01     0.00  -0.05   0.04    -0.01   0.16  -0.02
  38   1    -0.00  -0.00  -0.03    -0.02   0.02   0.08     0.02   0.04  -0.08
  39   1    -0.02  -0.05  -0.04    -0.02   0.01   0.06    -0.04  -0.07  -0.05
  40   1     0.03  -0.02   0.08    -0.03  -0.02  -0.12     0.08  -0.02   0.08
  41   1     0.00   0.08  -0.01    -0.07  -0.16   0.02     0.01   0.10  -0.02
                     31                     32                     33
                        a                      a                      a 
 Frequencies --   321.4259               327.3960               331.1231
 Red. masses --    16.5425                15.5416                15.6213
 Frc consts  --     0.0000                 0.0000                 0.0000
 IR Inten    --    13.2049                 6.6459                 3.4988
 Raman Activ --     0.0000                 0.0000                 0.0000
 Depolar     --     0.0000                 0.0000                 0.0000
 Atom AN      X      Y      Z        X      Y      Z        X      Y      Z
   1   6    -0.08   0.01  -0.02     0.04  -0.00   0.00    -0.11   0.00  -0.00
   2   6    -0.23   0.07   0.13     0.00  -0.03   0.00     0.03   0.11  -0.03
   3   8    -0.07  -0.49   0.08    -0.02   0.08   0.04     0.11  -0.20  -0.20
   4  15     0.00   0.18  -0.12    -0.06  -0.02   0.08     0.18   0.05  -0.34
   5  16    -0.05   0.13   0.13     0.01   0.02  -0.04    -0.04  -0.13   0.13
   6   8    -0.16   0.05  -0.20    -0.05  -0.10  -0.03     0.24   0.41   0.18
   7   6     0.04   0.02  -0.17     0.02   0.05  -0.03    -0.11  -0.21   0.14
   8   6     0.06   0.00  -0.07     0.03   0.01  -0.04    -0.14  -0.02   0.19
   9  16     0.33  -0.09   0.07    -0.01   0.02   0.03    -0.15   0.05   0.03
  10   6     0.13  -0.07   0.09     0.07   0.03  -0.02    -0.01   0.06  -0.06
  11  16     0.06   0.18   0.01     0.07  -0.04  -0.05     0.04  -0.08  -0.04
  12  15     0.02   0.02   0.05    -0.27   0.32   0.09    -0.08   0.06   0.02
  13  16     0.01  -0.02   0.08     0.14  -0.14  -0.02     0.04  -0.03  -0.01
  14   8    -0.12  -0.04  -0.05     0.08   0.16   0.38     0.02   0.04   0.10
  15   6    -0.05   0.08   0.02    -0.02  -0.10  -0.14    -0.01  -0.03  -0.04
  16   6    -0.03   0.07  -0.01     0.08  -0.14   0.01     0.02  -0.04   0.00
  17   8     0.06  -0.08  -0.17    -0.03   0.06  -0.43    -0.01   0.02  -0.08
  18   6    -0.02  -0.12   0.04    -0.01  -0.09   0.13     0.01  -0.01   0.02
  19   6    -0.04  -0.05   0.00    -0.07  -0.10   0.01     0.00  -0.01   0.00
  20   1     0.12   0.08   0.01    -0.00  -0.01   0.00    -0.01   0.04  -0.01
  21   1    -0.15   0.02   0.06     0.04  -0.00  -0.00    -0.12   0.01   0.01
  22   1    -0.02  -0.12  -0.13     0.01   0.03   0.00    -0.01  -0.09  -0.00
  23   1    -0.02   0.12   0.02    -0.01  -0.03   0.00     0.06   0.09  -0.01
  24   1    -0.16   0.02   0.12     0.02  -0.01  -0.02    -0.04   0.03   0.05
  25   1     0.03   0.01  -0.06     0.02   0.03   0.02    -0.08  -0.15  -0.06
  26   1     0.02   0.00  -0.05    -0.00   0.03  -0.04     0.00  -0.13   0.18
  27   1     0.03   0.01  -0.02     0.00  -0.04  -0.02    -0.01   0.16   0.07
  28   1     0.01  -0.01  -0.02     0.00   0.01   0.02    -0.02  -0.05  -0.05
  29   1     0.02  -0.01  -0.00     0.02   0.02  -0.05    -0.08  -0.06   0.20
  30   1     0.05  -0.02   0.02     0.03   0.03  -0.02     0.00   0.03  -0.02
  31   1     0.04  -0.02   0.03     0.03   0.00   0.02     0.01   0.01  -0.00
  32   1    -0.04   0.03   0.02     0.11  -0.07  -0.10     0.03  -0.02  -0.02
  33   1     0.00   0.03   0.02    -0.11  -0.03  -0.12    -0.03  -0.01  -0.03
  34   1    -0.01   0.01  -0.03     0.06   0.02   0.15     0.02   0.00   0.04
  35   1    -0.03   0.04   0.00     0.13  -0.16  -0.03     0.03  -0.04  -0.01
  36   1     0.01   0.01   0.01    -0.06   0.00  -0.05    -0.02  -0.00  -0.01
  37   1     0.00  -0.08   0.02     0.03  -0.15   0.05     0.01  -0.03   0.01
  38   1    -0.01  -0.01   0.05     0.00   0.04   0.14     0.00   0.01   0.02
  39   1     0.01   0.02   0.02     0.02   0.05   0.06     0.01   0.01   0.01
  40   1    -0.04   0.00  -0.05    -0.05   0.00  -0.13    -0.01   0.00  -0.02
  41   1    -0.02  -0.06   0.01    -0.05  -0.16   0.03    -0.00  -0.02   0.00
                     34                     35                     36
                        a                      a                      a 
 Frequencies --   418.1837               424.9136               446.2727
 Red. masses --    21.2120                18.8536                15.1211
 Frc consts  --     0.0000                 0.0000                 0.0000
 IR Inten    --   101.0729                 9.3458                37.3485
 Raman Activ --     0.0000                 0.0000                 0.0000
 Depolar     --     0.0000                 0.0000                 0.0000
 Atom AN      X      Y      Z        X      Y      Z        X      Y      Z
   1   6     0.24   0.01   0.06     0.11   0.00   0.03     0.08  -0.00   0.03
   2   6    -0.12  -0.15   0.17    -0.06  -0.07   0.09    -0.11  -0.06   0.11
   3   8    -0.25   0.21  -0.19    -0.12   0.08  -0.10    -0.14  -0.03  -0.11
   4  15    -0.36   0.00  -0.15    -0.10   0.00  -0.04     0.19  -0.02   0.11
   5  16    -0.00  -0.25  -0.08    -0.00  -0.09  -0.03     0.01   0.20   0.06
   6   8     0.15   0.15  -0.01     0.09   0.04  -0.01     0.36  -0.17  -0.12
   7   6    -0.07  -0.02  -0.04    -0.04  -0.00  -0.03    -0.15   0.03  -0.22
   8   6    -0.07  -0.00   0.08    -0.04  -0.00   0.05    -0.14   0.01   0.17
   9  16     0.40   0.09   0.15     0.12   0.07   0.07    -0.14  -0.03  -0.12
  10   6     0.00   0.02   0.05    -0.00  -0.02  -0.02    -0.01  -0.03  -0.01
  11  16     0.14   0.14   0.03    -0.30  -0.30  -0.10    -0.11  -0.04  -0.02
  12  15    -0.13  -0.11   0.01     0.24   0.19  -0.02     0.15   0.07  -0.02
  13  16    -0.03   0.00  -0.11     0.05   0.01   0.21     0.03   0.01   0.16
  14   8     0.02   0.04   0.06    -0.04  -0.13  -0.10     0.06   0.28  -0.19
  15   6    -0.01  -0.01  -0.01     0.06   0.03   0.01    -0.23  -0.01   0.02
  16   6     0.00  -0.02   0.00    -0.02   0.08  -0.01     0.06  -0.16   0.04
  17   8    -0.12  -0.05   0.07     0.37   0.14  -0.14    -0.12  -0.06  -0.03
  18   6     0.04  -0.08  -0.05    -0.13   0.26   0.13     0.04  -0.12  -0.04
  19   6     0.06   0.07   0.00    -0.18  -0.19  -0.01     0.05   0.05   0.00
  20   1     0.16  -0.00   0.04     0.08  -0.00   0.02     0.07  -0.00   0.03
  21   1     0.16  -0.01   0.06     0.07  -0.01   0.03     0.06  -0.01   0.03
  22   1     0.04   0.09  -0.11     0.02   0.04  -0.05     0.01   0.04  -0.06
  23   1    -0.02  -0.04   0.05    -0.01  -0.01   0.03    -0.01   0.01   0.03
  24   1    -0.01  -0.04   0.05    -0.01  -0.02   0.03    -0.05  -0.02   0.05
  25   1    -0.03  -0.02  -0.03    -0.01  -0.00  -0.01    -0.04   0.05   0.01
  26   1    -0.02  -0.02   0.02    -0.02  -0.00   0.00    -0.07   0.04  -0.10
  27   1     0.03   0.02   0.04     0.02   0.01   0.02     0.11  -0.02   0.08
  28   1    -0.04  -0.00   0.04    -0.02  -0.00   0.02    -0.10   0.01   0.15
  29   1    -0.05  -0.01   0.06    -0.03  -0.00   0.03    -0.11   0.01   0.09
  30   1    -0.03  -0.08   0.03     0.03   0.00  -0.03     0.01   0.02  -0.01
  31   1    -0.03   0.03  -0.06    -0.01   0.02   0.05     0.01  -0.02   0.03
  32   1     0.01  -0.01  -0.01    -0.01   0.02   0.01    -0.10  -0.00   0.03
  33   1    -0.01  -0.00  -0.01     0.04   0.01   0.02    -0.01  -0.02   0.05
  34   1     0.01   0.00   0.01    -0.04  -0.01  -0.01     0.11   0.05  -0.02
  35   1     0.01  -0.01  -0.00    -0.02   0.06  -0.00     0.02  -0.12   0.03
  36   1    -0.00  -0.01  -0.00    -0.01   0.04  -0.00     0.06  -0.13   0.03
  37   1     0.02  -0.01  -0.01    -0.05   0.06   0.04     0.02  -0.05  -0.01
  38   1     0.01  -0.02  -0.01    -0.05   0.05   0.02     0.01  -0.02   0.01
  39   1     0.04   0.04   0.00    -0.13  -0.14  -0.00     0.05   0.05   0.00
  40   1    -0.04   0.03   0.03     0.11  -0.10  -0.08    -0.04   0.03   0.02
  41   1     0.05   0.04  -0.00    -0.14  -0.12   0.01     0.04   0.03  -0.00
                     37                     38                     39
                        a                      a                      a 
 Frequencies --   449.2499               486.6016               492.5485
 Red. masses --    16.0242                16.4531                17.4377
 Frc consts  --     0.0000                 0.0000                 0.0000
 IR Inten    --     4.9913               239.4060                40.5248
 Raman Activ --     0.0000                 0.0000                 0.0000
 Depolar     --     0.0000                 0.0000                 0.0000
 Atom AN      X      Y      Z        X      Y      Z        X      Y      Z
   1   6     0.03  -0.00   0.01     0.11  -0.00   0.04     0.15   0.00   0.05
   2   6    -0.07  -0.03   0.06    -0.07  -0.06   0.10    -0.10  -0.08   0.13
   3   8    -0.07  -0.05  -0.05    -0.15   0.04  -0.28    -0.20   0.03  -0.41
   4  15     0.16  -0.02   0.10     0.20  -0.01  -0.01     0.33  -0.03   0.00
   5  16     0.01   0.19   0.06    -0.02   0.05   0.02    -0.02   0.16   0.06
   6   8     0.29  -0.16  -0.10    -0.21  -0.01   0.07    -0.28  -0.06   0.10
   7   6    -0.12   0.02  -0.18     0.06  -0.01   0.16     0.07  -0.02   0.22
   8   6    -0.11   0.01   0.13     0.04  -0.01  -0.06     0.05  -0.01  -0.07
   9  16    -0.14  -0.05  -0.10    -0.05   0.00  -0.02    -0.13  -0.04  -0.06
  10   6     0.01   0.01  -0.01     0.02  -0.04  -0.04     0.00  -0.02   0.01
  11  16     0.17   0.09   0.04    -0.13  -0.10  -0.03     0.11   0.08   0.04
  12  15    -0.19  -0.08   0.02     0.18   0.28  -0.05    -0.14  -0.20   0.05
  13  16    -0.04  -0.02  -0.22     0.04  -0.03   0.18    -0.04   0.02  -0.16
  14   8    -0.08  -0.36   0.26    -0.06  -0.29  -0.01     0.03   0.18   0.03
  15   6     0.29   0.00  -0.03     0.22  -0.05  -0.00    -0.14   0.03   0.00
  16   6    -0.08   0.20  -0.05    -0.04   0.08  -0.02     0.02  -0.04   0.01
  17   8     0.06   0.06   0.05    -0.45   0.03  -0.05     0.30  -0.02   0.04
  18   6    -0.02   0.10   0.02     0.08  -0.14  -0.05    -0.05   0.09   0.03
  19   6    -0.03  -0.02  -0.00     0.11   0.10   0.01    -0.08  -0.06  -0.00
  20   1     0.03  -0.00   0.01     0.10   0.01   0.03     0.13   0.01   0.04
  21   1     0.03  -0.00   0.01     0.07  -0.01   0.04     0.10  -0.01   0.06
  22   1     0.00   0.02  -0.03     0.01   0.04  -0.07     0.02   0.05  -0.10
  23   1    -0.01   0.01   0.01     0.02   0.03   0.03     0.03   0.04   0.04
  24   1    -0.03  -0.01   0.03    -0.03  -0.02   0.06    -0.05  -0.03   0.09
  25   1    -0.03   0.04   0.01     0.01  -0.02   0.02     0.02  -0.02   0.04
  26   1    -0.06   0.03  -0.08     0.03  -0.01   0.05     0.04  -0.01   0.05
  27   1     0.10  -0.02   0.07    -0.08  -0.00  -0.04    -0.10  -0.00  -0.05
  28   1    -0.08   0.01   0.12     0.05  -0.00  -0.06     0.06  -0.00  -0.08
  29   1    -0.09   0.01   0.07     0.05  -0.00  -0.05     0.07   0.00  -0.07
  30   1    -0.01   0.02   0.01     0.02   0.01  -0.02    -0.01   0.01   0.01
  31   1     0.02  -0.01  -0.01     0.01  -0.01   0.03     0.01  -0.02  -0.01
  32   1     0.13   0.00  -0.04     0.06   0.00  -0.01    -0.03  -0.00   0.00
  33   1     0.01   0.02  -0.06     0.04  -0.01  -0.02    -0.03   0.01   0.01
  34   1    -0.14  -0.06   0.03    -0.09  -0.06   0.00     0.05   0.04  -0.00
  35   1    -0.03   0.15  -0.04    -0.03   0.09  -0.02     0.02  -0.06   0.01
  36   1    -0.07   0.17  -0.05    -0.04   0.09  -0.02     0.02  -0.05   0.01
  37   1    -0.01   0.04   0.00     0.06  -0.09  -0.01    -0.04   0.06   0.00
  38   1    -0.01   0.01  -0.01     0.05   0.02   0.05    -0.03  -0.02  -0.04
  39   1    -0.03  -0.03   0.00     0.09   0.09   0.01    -0.06  -0.06  -0.01
  40   1     0.03  -0.02  -0.02    -0.08   0.06   0.03     0.05  -0.04  -0.02
  41   1    -0.03  -0.02   0.00     0.09   0.05  -0.00    -0.06  -0.03   0.00
                     40                     41                     42
                        a                      a                      a 
 Frequencies --   608.1969               616.1841               661.9643
 Red. masses --    25.3278                25.9098                18.5098
 Frc consts  --     0.0000                 0.0000                 0.0000
 IR Inten    --   265.3562                16.7777                 3.7886
 Raman Activ --     0.0000                 0.0000                 0.0000
 Depolar     --     0.0000                 0.0000                 0.0000
 Atom AN      X      Y      Z        X      Y      Z        X      Y      Z
   1   6    -0.02   0.00  -0.01    -0.02   0.00  -0.01     0.01   0.00   0.00
   2   6    -0.10  -0.02   0.05    -0.12  -0.03   0.06     0.04   0.02  -0.01
   3   8    -0.07   0.09   0.17    -0.08   0.10   0.18     0.01  -0.02  -0.02
   4  15     0.28   0.18   0.17     0.35   0.21   0.19    -0.07  -0.06  -0.03
   5  16    -0.06  -0.35  -0.14    -0.07  -0.37  -0.15     0.01   0.05   0.02
   6   8    -0.07   0.20  -0.07    -0.08   0.21  -0.08     0.01  -0.01   0.00
   7   6    -0.01   0.02  -0.12    -0.01   0.02  -0.13     0.00   0.00   0.01
   8   6     0.02   0.00  -0.01     0.02   0.00  -0.01    -0.00   0.00   0.00
   9  16    -0.08   0.06  -0.02    -0.10   0.01  -0.05    -0.14   0.42  -0.04
  10   6     0.10  -0.15  -0.10    -0.00  -0.07   0.07    -0.01  -0.53   0.54
  11  16    -0.09  -0.03   0.04     0.10   0.06  -0.01     0.16  -0.05  -0.33
  12  15     0.31   0.21   0.20    -0.31  -0.22  -0.18     0.01   0.04   0.05
  13  16    -0.15  -0.03  -0.39     0.13   0.03   0.33    -0.02  -0.00  -0.03
  14   8    -0.12   0.00   0.21     0.11   0.01  -0.18     0.00  -0.02  -0.03
  15   6    -0.11   0.06   0.01     0.10  -0.06  -0.01     0.01  -0.00  -0.00
  16   6    -0.00   0.03  -0.01     0.00  -0.02   0.00    -0.00  -0.00  -0.00
  17   8     0.09  -0.14   0.13    -0.07   0.13  -0.12     0.00  -0.00   0.01
  18   6    -0.00  -0.13  -0.02    -0.00   0.13   0.02    -0.00  -0.02  -0.01
  19   6    -0.01  -0.01   0.00     0.01   0.01  -0.00    -0.00  -0.00  -0.00
  20   1     0.02  -0.01   0.01     0.02  -0.01   0.01    -0.01  -0.00  -0.00
  21   1     0.02  -0.00  -0.00     0.02  -0.00  -0.00    -0.01   0.00  -0.00
  22   1    -0.01   0.03  -0.03    -0.02   0.03  -0.04     0.01  -0.01   0.01
  23   1    -0.06  -0.03   0.01    -0.06  -0.03   0.01     0.01   0.00  -0.00
  24   1    -0.00  -0.01  -0.01    -0.00  -0.01  -0.01     0.01   0.00  -0.00
  25   1    -0.00  -0.02  -0.07    -0.00  -0.02  -0.08    -0.00   0.00   0.00
  26   1     0.01  -0.01   0.00     0.01  -0.01   0.00     0.00   0.00   0.00
  27   1     0.04   0.00   0.01     0.05   0.00   0.01    -0.00   0.00  -0.00
  28   1    -0.02  -0.01   0.01    -0.02  -0.01   0.01    -0.00  -0.00  -0.00
  29   1    -0.01  -0.01   0.02    -0.00  -0.01   0.01     0.00  -0.00   0.00
  30   1     0.03   0.00  -0.03    -0.01   0.00   0.02     0.01  -0.13   0.14
  31   1     0.02  -0.03   0.01     0.01  -0.03   0.00    -0.03  -0.12   0.10
  32   1     0.01   0.00  -0.02    -0.01  -0.00   0.01    -0.00   0.00   0.00
  33   1    -0.07   0.03  -0.03     0.06  -0.03   0.02     0.01  -0.00   0.00
  34   1     0.03   0.04  -0.00    -0.02  -0.03   0.00    -0.01  -0.01   0.00
  35   1     0.01  -0.01  -0.00    -0.01   0.01   0.00    -0.00   0.00  -0.00
  36   1    -0.00  -0.02  -0.00     0.00   0.02   0.00    -0.00   0.00   0.00
  37   1    -0.01   0.00  -0.01     0.01   0.00   0.01    -0.00  -0.00  -0.00
  38   1    -0.01  -0.06  -0.03     0.01   0.06   0.03    -0.00  -0.01  -0.00
  39   1     0.02   0.01  -0.01    -0.02  -0.02   0.01     0.00   0.00  -0.00
  40   1    -0.04   0.01   0.02     0.04  -0.01  -0.02    -0.01   0.00   0.00
  41   1     0.01   0.02  -0.00    -0.01  -0.02   0.00     0.00   0.00  -0.00
                     43                     44                     45
                        a                      a                      a 
 Frequencies --   676.5692               732.6241               734.4035
 Red. masses --    16.7210                19.9504                19.8353
 Frc consts  --     0.0000                 0.0000                 0.0000
 IR Inten    --    39.9243               198.6159               207.0339
 Raman Activ --     0.0000                 0.0000                 0.0000
 Depolar     --     0.0000                 0.0000                 0.0000
 Atom AN      X      Y      Z        X      Y      Z        X      Y      Z
   1   6     0.01  -0.00   0.00    -0.07   0.02  -0.04    -0.01   0.00  -0.00
   2   6     0.05   0.02  -0.02    -0.21  -0.04   0.11    -0.02  -0.00   0.01
   3   8     0.01  -0.03  -0.04    -0.01   0.15   0.34    -0.00   0.02   0.04
   4  15    -0.11  -0.06  -0.03     0.14   0.30  -0.54     0.01   0.00  -0.05
   5  16     0.01   0.05   0.03    -0.01  -0.05  -0.01     0.00   0.00   0.00
   6   8     0.02  -0.01   0.01     0.14  -0.42   0.09     0.01  -0.02   0.01
   7   6    -0.00  -0.00   0.01     0.03  -0.07   0.25     0.00  -0.00   0.02
   8   6    -0.00  -0.00   0.01    -0.06  -0.01   0.05    -0.00  -0.00   0.00
   9  16    -0.08   0.27   0.01    -0.02   0.02   0.01    -0.00   0.01  -0.00
  10   6     0.48  -0.48  -0.45     0.03  -0.04  -0.01    -0.03  -0.01   0.06
  11  16    -0.16   0.10   0.33    -0.00   0.00   0.01     0.01   0.00  -0.03
  12  15    -0.08  -0.10  -0.06    -0.03   0.03   0.01     0.41  -0.45  -0.20
  13  16     0.03   0.01   0.06    -0.00  -0.00  -0.00     0.01   0.01   0.04
  14   8     0.01   0.02  -0.01     0.01   0.00  -0.03    -0.15  -0.01   0.41
  15   6     0.02  -0.01   0.00     0.02  -0.01  -0.00    -0.24   0.11   0.04
  16   6     0.00  -0.01   0.00     0.00  -0.01   0.00    -0.02   0.08  -0.01
  17   8    -0.02   0.04  -0.04     0.02  -0.01   0.02    -0.26   0.16  -0.21
  18   6     0.00   0.05   0.01     0.00  -0.02  -0.00    -0.01   0.24   0.02
  19   6     0.01   0.01  -0.00    -0.00  -0.00  -0.00     0.07   0.05  -0.01
  20   1    -0.01   0.00  -0.00     0.04  -0.03   0.02     0.00  -0.00   0.00
  21   1    -0.01   0.00  -0.00     0.02  -0.00  -0.02     0.00  -0.00  -0.00
  22   1     0.01  -0.01   0.02    -0.04   0.05  -0.09    -0.00   0.01  -0.01
  23   1     0.02   0.01  -0.00    -0.12  -0.10   0.04    -0.01  -0.01   0.00
  24   1     0.00   0.00  -0.00     0.01  -0.01  -0.05     0.00  -0.00  -0.01
  25   1     0.00   0.00   0.01     0.04   0.06   0.18     0.00   0.00   0.01
  26   1    -0.00   0.00   0.00    -0.04   0.04  -0.03    -0.00   0.00  -0.00
  27   1    -0.00  -0.00   0.00    -0.13   0.00  -0.01    -0.01   0.00  -0.00
  28   1     0.00   0.00   0.00     0.06   0.02  -0.03     0.01   0.00  -0.00
  29   1    -0.00   0.00  -0.00    -0.01   0.02  -0.04     0.00  -0.00  -0.00
  30   1     0.04  -0.15  -0.05     0.00  -0.01   0.00    -0.00  -0.00   0.01
  31   1     0.06  -0.07  -0.17     0.00  -0.00  -0.00    -0.01  -0.00   0.01
  32   1     0.00  -0.00   0.00    -0.00  -0.00   0.00     0.04   0.01  -0.04
  33   1     0.01  -0.00   0.00     0.01  -0.00   0.01    -0.17   0.04  -0.07
  34   1    -0.00  -0.01   0.00    -0.01  -0.01   0.00     0.08   0.11  -0.02
  35   1     0.00   0.00   0.00    -0.00   0.00   0.00     0.04  -0.02  -0.02
  36   1    -0.00   0.00   0.00    -0.00   0.00   0.00    -0.00  -0.07  -0.01
  37   1     0.00   0.01   0.00    -0.00   0.00  -0.00     0.04  -0.03   0.02
  38   1     0.00   0.02   0.01    -0.00  -0.01  -0.01     0.01   0.13   0.10
  39   1    -0.01  -0.01   0.00     0.00   0.00  -0.00    -0.04  -0.02   0.03
  40   1     0.02  -0.00  -0.01    -0.01   0.00   0.00     0.10  -0.01  -0.04
  41   1    -0.01  -0.01   0.00    -0.00   0.00  -0.00     0.01  -0.03   0.00
                     46                     47                     48
                        a                      a                      a 
 Frequencies --   762.1443               763.6619               791.3281
 Red. masses --    22.7833                22.8542                 6.2100
 Frc consts  --     0.0000                 0.0000                 0.0000
 IR Inten    --   311.2495               298.6833                 8.2129
 Raman Activ --     0.0000                 0.0000                 0.0000
 Depolar     --     0.0000                 0.0000                 0.0000
 Atom AN      X      Y      Z        X      Y      Z        X      Y      Z
   1   6    -0.08   0.02  -0.04    -0.03   0.01  -0.01    -0.00   0.00  -0.00
   2   6    -0.19  -0.04   0.11    -0.06  -0.01   0.04    -0.00   0.01   0.01
   3   8    -0.00   0.21   0.30     0.00   0.07   0.10    -0.00   0.01   0.01
   4  15     0.17  -0.60  -0.25     0.05  -0.19  -0.08    -0.02  -0.05  -0.03
   5  16     0.04   0.24   0.10     0.01   0.08   0.03     0.00   0.01   0.01
   6   8    -0.11   0.26  -0.00    -0.03   0.08  -0.00     0.01  -0.00  -0.01
   7   6    -0.02   0.04  -0.13    -0.01   0.01  -0.04    -0.00   0.01   0.01
   8   6     0.05   0.00  -0.04     0.01   0.00  -0.01    -0.00   0.00   0.00
   9  16     0.02   0.02   0.02     0.02  -0.01   0.01     0.11   0.11   0.06
  10   6     0.01   0.02   0.00     0.01   0.03  -0.03    -0.42  -0.26  -0.24
  11  16    -0.00  -0.00   0.01    -0.03  -0.01  -0.01     0.10   0.08   0.10
  12  15    -0.03   0.07  -0.20     0.07  -0.17   0.64    -0.02  -0.03  -0.03
  13  16     0.03   0.01   0.08    -0.09  -0.02  -0.25     0.00  -0.00  -0.00
  14   8    -0.02  -0.02   0.08     0.07   0.05  -0.28     0.00   0.02  -0.01
  15   6    -0.03   0.02   0.01     0.14  -0.06  -0.03     0.02  -0.01   0.00
  16   6    -0.00   0.02  -0.00     0.01  -0.07   0.01     0.00  -0.01   0.00
  17   8     0.08  -0.04   0.09    -0.22   0.13  -0.26     0.00   0.01   0.00
  18   6     0.01  -0.08  -0.00    -0.02   0.21   0.01    -0.00  -0.01  -0.00
  19   6    -0.02  -0.02   0.00     0.07   0.05  -0.01    -0.00  -0.00   0.00
  20   1     0.05  -0.03   0.02     0.02  -0.01   0.01     0.00  -0.01   0.00
  21   1     0.03  -0.00  -0.03     0.01  -0.00  -0.01    -0.00   0.00  -0.01
  22   1    -0.04   0.06  -0.10    -0.01   0.02  -0.03    -0.00  -0.00  -0.00
  23   1    -0.12  -0.12   0.04    -0.04  -0.04   0.01    -0.00  -0.01   0.01
  24   1     0.02  -0.01  -0.06     0.01  -0.00  -0.02     0.00   0.00  -0.01
  25   1    -0.04  -0.06  -0.12    -0.01  -0.02  -0.04    -0.01  -0.01  -0.00
  26   1     0.04  -0.04   0.04     0.01  -0.01   0.01     0.01  -0.00   0.01
  27   1     0.07  -0.00   0.00     0.02  -0.00   0.00    -0.00  -0.00  -0.00
  28   1    -0.04  -0.02   0.01    -0.01  -0.00   0.00    -0.01  -0.01  -0.00
  29   1     0.02  -0.02   0.02     0.01  -0.01   0.01     0.01  -0.00  -0.00
  30   1    -0.02  -0.04   0.01    -0.00   0.00  -0.00     0.23   0.39  -0.32
  31   1    -0.01   0.01  -0.04     0.00   0.01   0.01     0.15  -0.26   0.48
  32   1     0.01   0.00  -0.01    -0.05  -0.01   0.04     0.00  -0.00   0.00
  33   1    -0.03   0.01  -0.02     0.12  -0.02   0.06     0.00  -0.00   0.00
  34   1     0.01   0.02  -0.00    -0.04  -0.07   0.01    -0.00  -0.01   0.00
  35   1     0.01   0.00  -0.01    -0.03  -0.01   0.02    -0.00   0.00  -0.00
  36   1    -0.00  -0.01  -0.00     0.01   0.04   0.01    -0.00   0.00  -0.00
  37   1    -0.02   0.02  -0.01     0.05  -0.05   0.02    -0.00   0.00  -0.00
  38   1    -0.00  -0.05  -0.04     0.00   0.13   0.11     0.00  -0.00  -0.00
  39   1     0.02   0.01  -0.01    -0.05  -0.03   0.03     0.00   0.00  -0.00
  40   1    -0.04   0.00   0.01     0.11  -0.01  -0.04    -0.00  -0.00   0.00
  41   1    -0.01   0.01  -0.00     0.02  -0.04   0.01    -0.00   0.00   0.00
                     49                     50                     51
                        a                      a                      a 
 Frequencies --   818.3598               820.7859               822.6800
 Red. masses --     2.8298                 2.8026                 2.8007
 Frc consts  --     0.0000                 0.0000                 0.0000
 IR Inten    --     3.9727                 4.1112                 4.0650
 Raman Activ --     0.0000                 0.0000                 0.0000
 Depolar     --     0.0000                 0.0000                 0.0000
 Atom AN      X      Y      Z        X      Y      Z        X      Y      Z
   1   6     0.00  -0.00  -0.00     0.02   0.08   0.08     0.00   0.01   0.01
   2   6    -0.00  -0.01  -0.00     0.03   0.23   0.14     0.00   0.03   0.01
   3   8     0.00   0.00   0.00    -0.06  -0.13  -0.13    -0.01  -0.01  -0.01
   4  15    -0.00   0.01  -0.00    -0.02   0.05   0.05     0.00  -0.02   0.01
   5  16     0.00  -0.00  -0.00    -0.00  -0.01  -0.00     0.00   0.00   0.00
   6   8     0.01  -0.02  -0.00     0.01  -0.04  -0.01    -0.01   0.04   0.01
   7   6    -0.00   0.02   0.00    -0.00   0.05   0.02     0.00  -0.06  -0.01
   8   6    -0.00   0.01   0.00    -0.01   0.02   0.01     0.01  -0.03  -0.00
   9  16     0.00  -0.00  -0.00     0.00  -0.01  -0.00     0.00  -0.00   0.00
  10   6    -0.00   0.00   0.00     0.01   0.01   0.01    -0.00   0.00  -0.00
  11  16     0.00   0.01  -0.00    -0.00  -0.00  -0.00    -0.00  -0.00  -0.00
  12  15     0.04  -0.04   0.05     0.00  -0.00  -0.00    -0.03   0.00   0.07
  13  16    -0.00  -0.00  -0.01     0.00   0.00   0.00    -0.01  -0.00  -0.01
  14   8    -0.00   0.00  -0.01     0.00  -0.00   0.01    -0.00   0.04  -0.19
  15   6     0.00  -0.00   0.01    -0.00  -0.00  -0.01     0.03   0.01   0.26
  16   6    -0.00  -0.00   0.00    -0.00   0.00  -0.01    -0.00  -0.01   0.12
  17   8    -0.13   0.01  -0.15    -0.00  -0.00  -0.00     0.01   0.01  -0.01
  18   6     0.11  -0.02   0.26     0.00   0.00   0.00    -0.00  -0.01  -0.00
  19   6     0.07  -0.02   0.09     0.00  -0.00  -0.00    -0.00  -0.00   0.00
  20   1    -0.00   0.01  -0.00     0.19  -0.33   0.19     0.02  -0.03   0.02
  21   1     0.00  -0.00   0.01    -0.16   0.06  -0.39    -0.02   0.01  -0.04
  22   1    -0.00   0.00   0.00     0.02  -0.13  -0.08     0.00  -0.01  -0.01
  23   1    -0.00   0.01  -0.00     0.08  -0.42   0.20     0.01  -0.04   0.02
  24   1    -0.00  -0.00   0.01     0.01   0.11  -0.45     0.00   0.01  -0.05
  25   1    -0.03  -0.02  -0.01    -0.08  -0.05  -0.02     0.09   0.06   0.03
  26   1     0.04  -0.01   0.01     0.08  -0.03   0.03    -0.10   0.04  -0.04
  27   1    -0.00  -0.02  -0.00    -0.00  -0.03  -0.00    -0.00   0.04   0.00
  28   1    -0.03  -0.02   0.00    -0.08  -0.04   0.00     0.09   0.05  -0.00
  29   1     0.04  -0.01   0.00     0.08  -0.03  -0.00    -0.10   0.03   0.00
  30   1    -0.00  -0.00   0.00    -0.01  -0.01   0.01     0.00   0.00  -0.00
  31   1    -0.00   0.00  -0.00    -0.00   0.01  -0.01     0.00   0.00   0.00
  32   1     0.01   0.01  -0.00    -0.02  -0.01   0.01     0.34   0.23  -0.21
  33   1    -0.01  -0.01  -0.00     0.02   0.02   0.01    -0.29  -0.31  -0.19
  34   1    -0.00  -0.00  -0.00     0.00   0.00   0.01     0.00  -0.03  -0.15
  35   1     0.00   0.01  -0.00    -0.01  -0.02   0.01     0.19   0.31  -0.20
  36   1    -0.00  -0.01  -0.00     0.01   0.02   0.01    -0.18  -0.37  -0.12
  37   1    -0.42   0.22   0.03    -0.00   0.00   0.00    -0.00  -0.00  -0.00
  38   1     0.27  -0.06  -0.39     0.00   0.00  -0.00     0.00  -0.00  -0.00
  39   1     0.31   0.05  -0.30     0.00  -0.00  -0.00     0.00   0.00  -0.00
  40   1    -0.04   0.05  -0.14     0.00   0.00  -0.00    -0.00   0.00   0.00
  41   1    -0.43   0.05   0.01    -0.00   0.00  -0.00     0.00  -0.00   0.00
                     52                     53                     54
                        a                      a                      a 
 Frequencies --   823.3064               908.2913               912.7906
 Red. masses --     2.7774                12.7001                12.5547
 Frc consts  --     0.0000                 0.0000                 0.0000
 IR Inten    --     4.3927               280.1780               288.3378
 Raman Activ --     0.0000                 0.0000                 0.0000
 Depolar     --     0.0000                 0.0000                 0.0000
 Atom AN      X      Y      Z        X      Y      Z        X      Y      Z
   1   6    -0.00  -0.01  -0.02     0.26  -0.04   0.10     0.03  -0.01   0.01
   2   6    -0.01  -0.04  -0.03     0.28   0.17  -0.13     0.03   0.02  -0.02
   3   8     0.02   0.01   0.03    -0.62  -0.03   0.18    -0.07  -0.00   0.02
   4  15    -0.02   0.07  -0.03     0.11  -0.01  -0.19     0.01   0.00  -0.02
   5  16    -0.00  -0.01  -0.00    -0.00   0.01   0.01    -0.00  -0.00  -0.00
   6   8     0.06  -0.17  -0.03    -0.06  -0.06   0.26    -0.00  -0.01   0.01
   7   6    -0.02   0.25   0.05    -0.03  -0.01  -0.16    -0.00  -0.00  -0.01
   8   6    -0.02   0.12   0.01     0.09   0.01  -0.08     0.00   0.00  -0.00
   9  16    -0.01  -0.00  -0.00     0.02  -0.01   0.00    -0.00  -0.00  -0.00
  10   6     0.01   0.00   0.00    -0.00   0.01  -0.00     0.01   0.01   0.00
  11  16    -0.00  -0.00  -0.00     0.00   0.00   0.00    -0.01  -0.02  -0.00
  12  15    -0.01   0.00   0.02    -0.01   0.02   0.00     0.12  -0.18   0.01
  13  16    -0.00  -0.00  -0.00    -0.00  -0.00  -0.00    -0.00   0.00  -0.01
  14   8    -0.00   0.01  -0.05     0.03  -0.03  -0.01    -0.27   0.24   0.04
  15   6     0.01   0.00   0.07    -0.02   0.01  -0.00     0.20  -0.06   0.03
  16   6    -0.00  -0.00   0.03    -0.00   0.02  -0.00     0.03  -0.16   0.02
  17   8     0.02   0.00   0.01    -0.01  -0.06  -0.00     0.13   0.57  -0.01
  18   6    -0.01   0.00  -0.03    -0.00   0.03   0.01     0.01  -0.30  -0.14
  19   6    -0.01   0.00  -0.01     0.02   0.02  -0.00    -0.20  -0.17   0.03
  20   1    -0.04   0.06  -0.04    -0.10   0.00  -0.03    -0.01   0.00  -0.00
  21   1     0.03  -0.01   0.07    -0.09   0.01  -0.00    -0.01   0.00  -0.00
  22   1    -0.00   0.02   0.01     0.14  -0.19   0.28     0.02  -0.02   0.03
  23   1    -0.01   0.08  -0.03    -0.08   0.06  -0.08    -0.01   0.01  -0.01
  24   1    -0.00  -0.02   0.08    -0.04   0.04  -0.02    -0.00   0.01  -0.00
  25   1    -0.37  -0.24  -0.12    -0.05  -0.01   0.01    -0.00  -0.00   0.00
  26   1     0.39  -0.16   0.15    -0.02  -0.02   0.00    -0.00  -0.00  -0.00
  27   1     0.01  -0.15  -0.00     0.16   0.01   0.01     0.01   0.00   0.00
  28   1    -0.38  -0.19   0.01    -0.03  -0.00   0.03     0.00   0.00   0.00
  29   1     0.39  -0.13  -0.01    -0.02  -0.01   0.03     0.00  -0.00   0.00
  30   1    -0.00  -0.01   0.01     0.00  -0.00  -0.00    -0.00  -0.01   0.01
  31   1    -0.00   0.01  -0.01    -0.00   0.00   0.00    -0.01   0.01  -0.01
  32   1     0.09   0.06  -0.05    -0.00  -0.00  -0.00     0.01   0.03   0.01
  33   1    -0.08  -0.08  -0.05    -0.00  -0.01   0.00     0.02   0.07  -0.00
  34   1     0.00  -0.01  -0.04     0.01   0.02  -0.00    -0.11  -0.17   0.03
  35   1     0.05   0.08  -0.05     0.00  -0.00  -0.00    -0.03   0.04   0.00
  36   1    -0.05  -0.10  -0.03     0.00  -0.01   0.00    -0.02   0.05  -0.01
  37   1     0.04  -0.02  -0.00    -0.00  -0.00   0.00     0.04   0.02  -0.04
  38   1    -0.02   0.01   0.04    -0.01  -0.00   0.01     0.10   0.02  -0.05
  39   1    -0.03  -0.01   0.03    -0.01  -0.01   0.00     0.07   0.07   0.00
  40   1     0.00  -0.00   0.01     0.03  -0.00  -0.01    -0.32   0.02   0.14
  41   1     0.04  -0.01  -0.00    -0.00  -0.01   0.00     0.05   0.08  -0.01
                     55                     56                     57
                        a                      a                      a 
 Frequencies --   934.1057               935.3272              1039.9369
 Red. masses --    11.1706                11.0184                 8.5169
 Frc consts  --     0.0000                 0.0000                 0.0000
 IR Inten    --   107.8604                90.5449               183.7793
 Raman Activ --     0.0000                 0.0000                 0.0000
 Depolar     --     0.0000                 0.0000                 0.0000
 Atom AN      X      Y      Z        X      Y      Z        X      Y      Z
   1   6     0.05  -0.01   0.02    -0.12   0.02  -0.05    -0.36   0.07  -0.15
   2   6     0.03   0.03  -0.02    -0.07  -0.06   0.06     0.54  -0.02   0.13
   3   8    -0.09  -0.01   0.05     0.22   0.01  -0.11    -0.29  -0.09   0.08
   4  15     0.03  -0.06   0.01    -0.06   0.13  -0.03     0.01   0.00  -0.02
   5  16     0.00   0.00   0.00    -0.00  -0.01  -0.00    -0.00  -0.00  -0.00
   6   8     0.05   0.06  -0.23    -0.12  -0.13   0.52    -0.00  -0.00   0.11
   7   6     0.05   0.02   0.11    -0.11  -0.03  -0.26     0.12   0.01  -0.17
   8   6    -0.10  -0.01   0.10     0.24   0.01  -0.22    -0.11  -0.01   0.10
   9  16     0.01  -0.00   0.00    -0.01   0.01  -0.00     0.01  -0.00  -0.00
  10   6     0.00   0.00  -0.01    -0.00  -0.02  -0.01    -0.00   0.00   0.00
  11  16    -0.02  -0.01   0.01    -0.00  -0.00   0.01     0.00  -0.00   0.00
  12  15    -0.06  -0.03   0.14    -0.02  -0.02   0.06     0.00  -0.00   0.00
  13  16    -0.00  -0.00  -0.01    -0.00  -0.00  -0.01    -0.00  -0.00  -0.00
  14   8     0.38  -0.35  -0.06     0.16  -0.15  -0.03     0.00  -0.00   0.00
  15   6    -0.26   0.03  -0.04    -0.11   0.01  -0.01    -0.00   0.01  -0.00
  16   6    -0.06   0.28  -0.05    -0.03   0.12  -0.02    -0.00  -0.01   0.00
  17   8     0.03   0.32  -0.01     0.02   0.15  -0.01     0.00   0.00   0.00
  18   6     0.03  -0.13  -0.07     0.02  -0.06  -0.04    -0.00  -0.00   0.00
  19   6    -0.13  -0.11   0.02    -0.07  -0.05   0.01     0.00   0.00   0.00
  20   1    -0.02   0.00  -0.01     0.05  -0.00   0.01     0.12   0.05   0.01
  21   1    -0.02   0.00  -0.00     0.04  -0.00   0.00     0.13  -0.01  -0.00
  22   1     0.03  -0.03   0.06    -0.06   0.08  -0.13    -0.17   0.23  -0.34
  23   1    -0.02   0.01  -0.02     0.06  -0.02   0.04     0.19  -0.02   0.06
  24   1    -0.01   0.01  -0.00     0.03  -0.02   0.01     0.16  -0.03   0.11
  25   1     0.05   0.00  -0.02    -0.12  -0.01   0.04     0.05   0.00  -0.05
  26   1     0.03   0.01  -0.01    -0.08  -0.02   0.03     0.07  -0.01  -0.05
  27   1    -0.18  -0.01  -0.01     0.40   0.02   0.02    -0.17  -0.01  -0.01
  28   1     0.02  -0.00  -0.04    -0.05   0.01   0.09     0.01  -0.01  -0.05
  29   1     0.03   0.01  -0.04    -0.07  -0.02   0.08     0.03   0.01  -0.04
  30   1    -0.00   0.01   0.00     0.01   0.01  -0.01     0.00  -0.00  -0.00
  31   1     0.01  -0.01  -0.00     0.00  -0.01   0.01     0.00  -0.00  -0.00
  32   1    -0.01  -0.08  -0.01    -0.00  -0.03  -0.00     0.00   0.00  -0.00
  33   1    -0.02  -0.11   0.01    -0.01  -0.05   0.01     0.00   0.00  -0.00
  34   1     0.20   0.31  -0.04     0.08   0.13  -0.02    -0.00  -0.00   0.00
  35   1     0.04  -0.09   0.00     0.02  -0.04   0.00    -0.00   0.00   0.00
  36   1     0.05  -0.08   0.02     0.02  -0.03   0.01    -0.00   0.00  -0.00
  37   1     0.04   0.02  -0.02     0.02   0.01  -0.01     0.00   0.00  -0.00
  38   1     0.07   0.03  -0.02     0.04   0.02  -0.01     0.00   0.00  -0.00
  39   1     0.04   0.05   0.00     0.02   0.02  -0.00     0.00  -0.00  -0.00
  40   1    -0.20   0.02   0.08    -0.10   0.01   0.04     0.00  -0.00  -0.00
  41   1     0.03   0.05  -0.01     0.01   0.02  -0.00     0.00  -0.00   0.00
                     58                     59                     60
                        a                      a                      a 
 Frequencies --  1041.6482              1058.0923              1059.7279
 Red. masses --     8.5917                 9.7988                 9.8598
 Frc consts  --     0.0000                 0.0000                 0.0000
 IR Inten    --   199.7591               135.9654               123.6696
 Raman Activ --     0.0000                 0.0000                 0.0000
 Depolar     --     0.0000                 0.0000                 0.0000
 Atom AN      X      Y      Z        X      Y      Z        X      Y      Z
   1   6     0.00  -0.00   0.00    -0.01   0.00  -0.00     0.12  -0.03   0.06
   2   6    -0.00   0.00  -0.00     0.01   0.00   0.00    -0.22   0.01  -0.06
   3   8     0.00   0.00  -0.00    -0.01  -0.00   0.00     0.15   0.04  -0.07
   4  15    -0.00  -0.00   0.00     0.00  -0.00  -0.00    -0.02   0.02  -0.01
   5  16     0.00   0.00   0.00     0.00  -0.00  -0.00    -0.00   0.00   0.00
   6   8    -0.00   0.00   0.00     0.00   0.00  -0.01    -0.04  -0.03   0.41
   7   6     0.00  -0.00  -0.00    -0.01  -0.00   0.02     0.31   0.03  -0.49
   8   6    -0.00   0.00   0.00     0.00   0.00  -0.01    -0.27  -0.04   0.22
   9  16     0.00   0.00   0.00    -0.00  -0.00  -0.00    -0.01   0.01  -0.00
  10   6    -0.00  -0.00   0.00     0.00   0.00   0.00    -0.00  -0.00  -0.00
  11  16     0.00   0.01  -0.00     0.01   0.01  -0.01     0.00   0.00   0.00
  12  15    -0.01   0.02   0.00     0.02   0.01  -0.03     0.00  -0.00  -0.00
  13  16    -0.00  -0.00  -0.00    -0.00   0.00  -0.00    -0.00   0.00  -0.00
  14   8     0.13  -0.08   0.01    -0.31   0.22  -0.01    -0.01   0.01  -0.00
  15   6    -0.12   0.26  -0.04     0.24  -0.48   0.07     0.01  -0.02   0.00
  16   6     0.04  -0.20   0.03    -0.06   0.33  -0.03    -0.00   0.01  -0.00
  17   8    -0.05  -0.29  -0.07    -0.01  -0.22  -0.04    -0.00  -0.00  -0.00
  18   6     0.34   0.39  -0.01     0.19   0.23   0.00     0.00   0.00   0.00
  19   6    -0.29  -0.23   0.05    -0.15  -0.11   0.03    -0.00  -0.00   0.00
  20   1    -0.00  -0.00  -0.00     0.00   0.00   0.00    -0.03  -0.02   0.01
  21   1    -0.00  -0.00   0.00     0.00  -0.00   0.00    -0.03   0.00   0.00
  22   1     0.00  -0.00   0.00    -0.00   0.01  -0.01     0.05  -0.07   0.10
  23   1    -0.00   0.00  -0.00     0.00   0.00   0.00    -0.05   0.01  -0.02
  24   1    -0.00   0.00  -0.00     0.00  -0.00   0.00    -0.06   0.01  -0.04
  25   1     0.00   0.00  -0.00    -0.00   0.00   0.01     0.12   0.01  -0.15
  26   1     0.00   0.00  -0.00    -0.00   0.00   0.00     0.16  -0.02  -0.10
  27   1    -0.00  -0.00  -0.00     0.01  -0.00   0.00    -0.37  -0.02  -0.02
  28   1    -0.00   0.00   0.00    -0.00   0.00   0.00     0.03  -0.02  -0.10
  29   1     0.00  -0.00   0.00    -0.00  -0.00   0.00     0.03   0.03  -0.09
[...]
  33   1     0.00   0.00  -0.00    -0.06  -0.00   0.08     0.58   0.04  -0.75
  34   1     0.00  -0.00   0.00     0.00  -0.00   0.00    -0.01   0.01  -0.01
  35   1     0.00   0.00   0.00    -0.00  -0.00  -0.00     0.01   0.00   0.01
  36   1    -0.00  -0.00   0.00     0.01   0.00  -0.01    -0.07  -0.01   0.10
  37   1     0.00  -0.00  -0.00    -0.00  -0.00  -0.00     0.00  -0.00   0.00
  38   1     0.00  -0.00   0.00     0.00   0.00   0.00    -0.01   0.01  -0.01
  39   1     0.00  -0.00   0.00     0.00  -0.00   0.00     0.00  -0.00   0.00
  40   1    -0.00   0.00  -0.00    -0.00   0.00  -0.00     0.00   0.00   0.00
  41   1    -0.00   0.00   0.00     0.00   0.00   0.00    -0.00   0.00   0.00
                    103                    104                    105
                        a                      a                      a 
 Frequencies --  2978.7583              2981.0551              2988.9848
 Red. masses --     1.7325                 1.7217                 1.9349
 Frc consts  --     0.0000                 0.0000                 0.0000
 IR Inten    --     8.5440                 9.5613                17.3852
 Raman Activ --     0.0000                 0.0000                 0.0000
 Depolar     --     0.0000                 0.0000                 0.0000
 Atom AN      X      Y      Z        X      Y      Z        X      Y      Z
   1   6    -0.01   0.01   0.03    -0.00  -0.00  -0.00    -0.00   0.00   0.00
   2   6     0.07  -0.07  -0.23    -0.00   0.00   0.00     0.00  -0.00  -0.00
   3   8     0.01   0.00  -0.00    -0.00   0.00  -0.00    -0.00   0.00   0.00
   4  15    -0.00   0.00   0.00    -0.00  -0.00   0.00    -0.00  -0.00  -0.00
   5  16    -0.00   0.00   0.00     0.00   0.00   0.00     0.00   0.00  -0.00
   6   8    -0.00   0.00  -0.00     0.00   0.00  -0.00     0.00   0.00  -0.00
   7   6    -0.01   0.01  -0.00     0.00  -0.00   0.00    -0.00   0.00  -0.00
   8   6     0.00  -0.00   0.00    -0.00   0.00  -0.00    -0.00   0.00  -0.00
   9  16    -0.00  -0.00  -0.00     0.00   0.00   0.00     0.00   0.00   0.00
  10   6    -0.00  -0.00   0.00    -0.00  -0.00   0.00     0.23   0.17   0.04
  11  16    -0.00  -0.00   0.00    -0.00  -0.00  -0.00     0.00   0.00  -0.00
  12  15    -0.00  -0.00   0.00     0.00  -0.00   0.00     0.00   0.00  -0.00
  13  16     0.00  -0.00  -0.00     0.00  -0.00   0.00    -0.00  -0.00  -0.00
  14   8    -0.00   0.00   0.00    -0.00   0.00  -0.00     0.00   0.00   0.00
  15   6    -0.01  -0.00   0.01    -0.00  -0.00   0.00    -0.00  -0.00   0.00
  16   6     0.00  -0.00  -0.00     0.00   0.00  -0.00     0.00   0.00  -0.00
  17   8     0.00   0.00  -0.00     0.00   0.01  -0.00    -0.00  -0.00   0.00
  18   6    -0.00   0.00  -0.00    -0.16   0.16  -0.10    -0.00   0.00   0.00
  19   6     0.00  -0.00   0.00     0.02  -0.03   0.02    -0.00   0.00  -0.00
  20   1     0.03  -0.04  -0.11    -0.00   0.00   0.00     0.00  -0.00  -0.00
  21   1    -0.00  -0.01   0.00     0.00   0.00  -0.00    -0.00  -0.00  -0.00
  22   1     0.02   0.01   0.00     0.00   0.00  -0.00    -0.00   0.00   0.00
  23   1    -0.28   0.27   0.87     0.00  -0.00  -0.01    -0.00   0.00   0.00
  24   1     0.01  -0.02  -0.03    -0.00   0.00   0.00     0.00   0.00  -0.00
  25   1     0.02  -0.03   0.02    -0.00   0.00  -0.00     0.01  -0.01   0.01
  26   1     0.00   0.00   0.00    -0.00  -0.00  -0.00     0.00   0.00   0.00
  27   1     0.00  -0.00   0.00    -0.00   0.00   0.00     0.00   0.00  -0.00
  28   1    -0.00   0.01  -0.00     0.01  -0.01   0.01     0.00  -0.00   0.00
  29   1     0.00   0.00   0.00     0.00   0.00   0.00     0.00   0.00  -0.00
  30   1    -0.00  -0.00  -0.00    -0.00  -0.00  -0.00    -0.16   0.02  -0.22
  31   1     0.00   0.00  -0.00     0.00   0.00  -0.00    -0.67  -0.62   0.10
  32   1    -0.00   0.00   0.00     0.00   0.00   0.00     0.00   0.00   0.00
  33   1     0.02   0.00  -0.03     0.01   0.00  -0.02     0.00   0.00  -0.00
  34   1    -0.00   0.00  -0.00     0.00   0.00  -0.00     0.00  -0.00   0.00
  35   1     0.00   0.00   0.00    -0.00  -0.00  -0.00    -0.00  -0.00  -0.00
  36   1    -0.00  -0.00   0.01    -0.00  -0.00   0.00    -0.00   0.00   0.00
  37   1    -0.00   0.00   0.00    -0.02   0.02  -0.04    -0.00  -0.00  -0.00
  38   1     0.00  -0.01   0.00     0.59  -0.63   0.40     0.00  -0.00   0.00
  39   1    -0.00   0.00  -0.00    -0.09   0.09  -0.07     0.00  -0.00   0.00
  40   1    -0.00  -0.00   0.00     0.01   0.02   0.01    -0.00  -0.00  -0.00
  41   1     0.00  -0.00  -0.00     0.00  -0.01  -0.01     0.00   0.00   0.00
                    106                    107                    108
                        a                      a                      a 
 Frequencies --  3018.8603              3021.0537              3021.4613
 Red. masses --     1.7612                 1.7682                 1.7775
 Frc consts  --     0.0000                 0.0000                 0.0000
 IR Inten    --    55.9457                49.3679                35.8027
 Raman Activ --     0.0000                 0.0000                 0.0000
 Depolar     --     0.0000                 0.0000                 0.0000
 Atom AN      X      Y      Z        X      Y      Z        X      Y      Z
   1   6    -0.00   0.00   0.00     0.00  -0.00  -0.00     0.01  -0.01  -0.02
   2   6    -0.00   0.00   0.00     0.00  -0.00  -0.00     0.00  -0.00  -0.00
   3   8    -0.00  -0.00  -0.00     0.00   0.00  -0.00     0.00   0.00  -0.00
   4  15    -0.00   0.00   0.00     0.00   0.00  -0.00     0.00  -0.00  -0.00
   5  16     0.00  -0.00  -0.00    -0.00   0.00   0.00    -0.00   0.00   0.00
   6   8    -0.00   0.00  -0.00    -0.00  -0.00   0.00    -0.00  -0.00   0.00
   7   6    -0.00   0.00  -0.00     0.01  -0.01   0.01     0.02  -0.04   0.01
   8   6    -0.01   0.02  -0.01     0.03  -0.07   0.03     0.10  -0.21   0.08
   9  16    -0.00   0.00  -0.00    -0.00   0.00   0.00    -0.00   0.00   0.00
  10   6    -0.00  -0.00   0.00     0.00   0.00  -0.00     0.00   0.00  -0.00
  11  16    -0.00   0.00   0.00    -0.00   0.00  -0.00     0.00  -0.00   0.00
  12  15    -0.00  -0.00   0.00     0.00  -0.00   0.00    -0.00   0.00  -0.00
  13  16     0.00   0.00  -0.00    -0.00   0.00  -0.00    -0.00  -0.00   0.00
  14   8     0.00   0.00   0.00    -0.00   0.00   0.00     0.00  -0.00  -0.00
  15   6     0.00   0.00  -0.00    -0.02  -0.00   0.03     0.01   0.00  -0.01
  16   6     0.01   0.00  -0.02    -0.12  -0.00   0.21     0.04   0.00  -0.07
  17   8     0.00   0.00  -0.00     0.00  -0.00  -0.00     0.00   0.00   0.00
  18   6    -0.03   0.03  -0.02    -0.00   0.00  -0.00    -0.00   0.00  -0.00
  19   6    -0.15   0.16  -0.13    -0.02   0.02  -0.02    -0.01   0.01  -0.01
  20   1     0.00  -0.00  -0.01    -0.01   0.01   0.02    -0.03   0.03   0.09
  21   1    -0.00   0.00   0.00     0.00  -0.00  -0.00     0.00   0.01  -0.00
  22   1     0.00   0.00   0.00     0.00  -0.00  -0.00    -0.00  -0.00  -0.00
  23   1     0.00  -0.00  -0.00    -0.00   0.00   0.00    -0.00   0.00   0.01
  24   1    -0.00  -0.00   0.00     0.00   0.00   0.00     0.00   0.00  -0.00
  25   1     0.01  -0.01   0.01    -0.02   0.04  -0.02    -0.06   0.10  -0.06
  26   1    -0.00  -0.00  -0.00     0.00   0.00   0.00     0.01   0.01   0.01
  27   1    -0.00   0.00  -0.00     0.00  -0.01  -0.00     0.01  -0.03  -0.01
  28   1     0.05  -0.08   0.04    -0.14   0.25  -0.12    -0.40   0.71  -0.35
  29   1    -0.00  -0.00  -0.01     0.02   0.02   0.02     0.04   0.05   0.06
  30   1    -0.00   0.00  -0.00     0.00   0.00   0.00     0.00  -0.00   0.00
  31   1     0.00   0.00  -0.00    -0.00  -0.00   0.00    -0.00  -0.00   0.00
  32   1    -0.00  -0.00  -0.00    -0.01  -0.00  -0.01     0.00   0.00   0.00
  33   1    -0.01  -0.00   0.01     0.07   0.00  -0.09    -0.03  -0.00   0.03
  34   1     0.01  -0.00  -0.00    -0.01   0.00   0.03     0.00   0.00  -0.01
  35   1     0.01   0.00   0.01    -0.06  -0.02  -0.04     0.02   0.01   0.01
  36   1    -0.06  -0.00   0.08     0.51   0.03  -0.73    -0.18  -0.01   0.26
  37   1    -0.00   0.00   0.01    -0.00   0.00   0.00    -0.00   0.00   0.00
  38   1     0.09  -0.09   0.06     0.01  -0.02   0.01     0.01  -0.01   0.01
  39   1     0.57  -0.61   0.43     0.08  -0.08   0.06     0.04  -0.04   0.03
  40   1    -0.02   0.01  -0.02    -0.00   0.00  -0.00    -0.00   0.00  -0.00
  41   1    -0.02   0.04   0.05    -0.00   0.00   0.01    -0.00   0.00   0.00
                    109                    110                    111
                        a                      a                      a 
 Frequencies --  3023.3132              3043.3698              3047.3976
 Red. masses --     1.7703                 1.6379                 1.6205
 Frc consts  --     0.0000                 0.0000                 0.0000
 IR Inten    --    45.2007                22.2847                15.0584
 Raman Activ --     0.0000                 0.0000                 0.0000
 Depolar     --     0.0000                 0.0000                 0.0000
 Atom AN      X      Y      Z        X      Y      Z        X      Y      Z
   1   6     0.07  -0.10  -0.23     0.00   0.00  -0.00    -0.00  -0.14  -0.00
   2   6     0.01  -0.02  -0.04    -0.00  -0.00  -0.00     0.00  -0.01  -0.00
   3   8     0.00  -0.00  -0.00     0.00   0.00  -0.00    -0.00   0.00  -0.00
   4  15    -0.00   0.00  -0.00     0.00   0.00   0.00     0.00  -0.00   0.00
   5  16     0.00   0.00   0.00    -0.00   0.00  -0.00     0.00  -0.00  -0.00
   6   8     0.00   0.00   0.00    -0.00  -0.00  -0.00    -0.00   0.00  -0.00
   7   6    -0.00   0.00  -0.00     0.01   0.02   0.01     0.00   0.00  -0.00
   8   6    -0.01   0.02  -0.01     0.10   0.19   0.11     0.00   0.00   0.00
   9  16    -0.00   0.00  -0.00    -0.00   0.00   0.00     0.00  -0.00  -0.00
  10   6     0.00   0.00   0.00     0.00   0.00  -0.00    -0.00   0.00  -0.00
  11  16    -0.00   0.00  -0.00     0.00   0.00   0.00    -0.00  -0.00   0.00
  12  15     0.00  -0.00   0.00    -0.00   0.00  -0.00     0.00   0.00   0.00
  13  16    -0.00   0.00  -0.00    -0.00  -0.00  -0.00    -0.00   0.00   0.00
  14   8     0.00   0.00  -0.00    -0.00   0.00   0.00    -0.00  -0.00  -0.00
  15   6    -0.00  -0.00   0.00    -0.00  -0.00   0.00     0.01   0.00   0.01
  16   6    -0.00  -0.00   0.00    -0.00   0.00   0.00     0.11   0.06   0.14
  17   8    -0.00   0.00  -0.00     0.00   0.00   0.00     0.00   0.00   0.00
  18   6     0.00  -0.00   0.00    -0.00   0.00  -0.00     0.00  -0.00   0.00
  19   6    -0.00   0.00  -0.00     0.00   0.01   0.01    -0.00   0.00   0.01
  20   1    -0.26   0.31   0.86    -0.00   0.00   0.01     0.01  -0.03  -0.05
  21   1     0.03   0.06  -0.03    -0.00  -0.01  -0.00     0.09   0.56   0.04
  22   1    -0.01  -0.02  -0.03     0.00   0.00  -0.00    -0.09  -0.04   0.01
  23   1    -0.04   0.04   0.11    -0.00   0.00   0.00    -0.00   0.00   0.00
  24   1     0.00   0.02  -0.00    -0.00   0.00   0.00     0.00   0.02   0.00
  25   1     0.00  -0.01   0.00     0.00  -0.00   0.00     0.00  -0.00   0.00
  26   1    -0.00  -0.01  -0.00    -0.01  -0.04  -0.02    -0.00  -0.00  -0.00
  27   1    -0.00   0.00   0.01    -0.00   0.02   0.07     0.00   0.00  -0.00
  28   1     0.04  -0.08   0.04    -0.04   0.11  -0.03    -0.00   0.00  -0.00
  29   1    -0.00   0.00  -0.00    -0.32  -0.79  -0.44    -0.00  -0.01  -0.00
  30   1    -0.00   0.00  -0.00     0.00  -0.00   0.00     0.00  -0.00   0.00
  31   1    -0.00  -0.00  -0.00    -0.00  -0.00   0.00    -0.00  -0.00  -0.00
  32   1     0.00   0.00   0.00     0.00   0.00   0.00    -0.01  -0.01  -0.03
  33   1     0.00   0.00  -0.00     0.00   0.00  -0.00     0.00   0.00  -0.00
  34   1    -0.00   0.00   0.00     0.00  -0.00   0.00     0.07  -0.05   0.03
  35   1    -0.00  -0.00  -0.00     0.00   0.00   0.00    -0.42  -0.17  -0.61
  36   1     0.01   0.00  -0.01     0.00   0.00  -0.00    -0.03   0.00   0.08
  37   1    -0.00  -0.00  -0.00    -0.00   0.00   0.00    -0.00  -0.00  -0.00
  38   1    -0.00   0.00  -0.00     0.00  -0.00   0.00    -0.00   0.00  -0.00
  39   1     0.00  -0.00   0.00     0.00  -0.00   0.00     0.00  -0.00   0.00
  40   1    -0.00  -0.00  -0.00    -0.00  -0.01  -0.00    -0.00  -0.00   0.00
  41   1    -0.00   0.00  -0.00    -0.00  -0.01  -0.04    -0.00  -0.01  -0.03
                    112                    113                    114
                        a                      a                      a 
 Frequencies --  3047.3884              3048.1724              3052.8985
 Red. masses --     1.6113                 1.5990                 1.7909
 Frc consts  --     0.0000                 0.0000                 0.0000
 IR Inten    --    21.0014                13.9767                12.2650
 Raman Activ --     0.0000                 0.0000                 0.0000
 Depolar     --     0.0000                 0.0000                 0.0000
 Atom AN      X      Y      Z        X      Y      Z        X      Y      Z
   1   6     0.01   0.19   0.00    -0.00   0.01   0.00    -0.25  -0.09   0.03
   2   6    -0.00   0.01   0.00    -0.00   0.00   0.00    -0.01  -0.01   0.01
   3   8    -0.00  -0.00   0.00    -0.00  -0.00   0.00     0.00   0.00  -0.00
   4  15    -0.00   0.00  -0.00    -0.00   0.00  -0.00     0.00  -0.00  -0.00
   5  16     0.00   0.00   0.00    -0.00  -0.00  -0.00     0.00  -0.00  -0.00
   6   8     0.00  -0.00   0.00     0.00  -0.00   0.00    -0.00   0.00  -0.00
   7   6    -0.00  -0.00  -0.00    -0.00  -0.00  -0.00     0.00  -0.00   0.00
   8   6    -0.00  -0.00  -0.00    -0.00  -0.01  -0.00    -0.00   0.00   0.00
   9  16    -0.00   0.00  -0.00     0.00   0.00   0.00     0.00  -0.00   0.00
  10   6    -0.00  -0.00  -0.00     0.00   0.00  -0.00     0.00   0.00   0.00
  11  16    -0.00   0.00   0.00    -0.00  -0.00   0.00    -0.00   0.00  -0.00
  12  15     0.00   0.00   0.00    -0.00  -0.00   0.00     0.00   0.00  -0.00
  13  16    -0.00   0.00   0.00     0.00  -0.00   0.00    -0.00   0.00   0.00
  14   8    -0.00  -0.00  -0.00     0.00   0.00  -0.00     0.00  -0.00   0.00
  15   6     0.00   0.00   0.01    -0.00  -0.00  -0.00    -0.00   0.00  -0.00
  16   6     0.08   0.05   0.11    -0.00   0.00  -0.00    -0.00   0.00  -0.00
  17   8     0.00   0.00   0.00     0.00  -0.00  -0.00    -0.00  -0.00   0.00
  18   6    -0.00  -0.00  -0.00     0.00  -0.00   0.02     0.00  -0.00  -0.00
  19   6     0.00   0.00  -0.00    -0.02   0.01   0.23     0.00  -0.00  -0.00
  20   1    -0.01   0.04   0.06    -0.00   0.00   0.00    -0.03  -0.01   0.01
  21   1    -0.12  -0.75  -0.05    -0.01  -0.03  -0.00    -0.01   0.14   0.02
  22   1     0.12   0.05  -0.02     0.01   0.00  -0.00     0.92   0.18  -0.13
  23   1     0.00  -0.00  -0.01     0.00  -0.00  -0.00     0.01  -0.01  -0.02
  24   1    -0.00  -0.03  -0.01    -0.00  -0.00  -0.00     0.00   0.01   0.00
  25   1     0.00  -0.00   0.00    -0.00   0.00  -0.00    -0.00   0.00  -0.00
  26   1     0.00   0.00   0.00     0.00   0.00   0.00    -0.00  -0.00  -0.00
  27   1    -0.00  -0.00   0.00     0.00  -0.00  -0.01     0.00   0.00  -0.00
  28   1     0.00  -0.00  -0.00     0.00  -0.01   0.00    -0.00  -0.00   0.00
  29   1     0.00   0.01   0.01     0.01   0.03   0.02    -0.00  -0.00  -0.00
  30   1     0.00  -0.00   0.00     0.00  -0.00   0.00    -0.00   0.00  -0.00
  31   1     0.00   0.00  -0.00    -0.00  -0.00   0.00    -0.00  -0.00   0.00
  32   1    -0.01  -0.01  -0.02     0.00   0.00   0.00    -0.00   0.00  -0.00
  33   1     0.00   0.00  -0.00     0.00   0.00  -0.00    -0.00   0.00   0.00
  34   1     0.06  -0.04   0.02     0.00  -0.00   0.00     0.01  -0.01   0.00
  35   1    -0.32  -0.13  -0.46     0.01   0.00   0.01    -0.00   0.00   0.00
  36   1    -0.02   0.00   0.06     0.00   0.00  -0.00    -0.00   0.00   0.00
  37   1     0.00   0.00   0.00    -0.00  -0.00  -0.04    -0.00   0.00   0.00
  38   1     0.00  -0.00   0.00    -0.01   0.01  -0.00    -0.00   0.00  -0.00
  39   1     0.00  -0.00   0.00     0.04  -0.04   0.06    -0.00   0.00  -0.00
  40   1    -0.00  -0.00  -0.00     0.06   0.17   0.06     0.00   0.00   0.00
  41   1     0.00   0.00   0.02    -0.01  -0.17  -0.93    -0.00   0.00   0.01
                    115                    116                    117
                        a                      a                      a 
 Frequencies --  3054.3196              3056.5814              3062.0408
 Red. masses --     1.8060                 1.7712                 1.7437
 Frc consts  --     0.0000                 0.0000                 0.0000
 IR Inten    --    10.5659                12.1500                 9.1731
 Raman Activ --     0.0000                 0.0000                 0.0000
 Depolar     --     0.0000                 0.0000                 0.0000
 Atom AN      X      Y      Z        X      Y      Z        X      Y      Z
   1   6    -0.00   0.00   0.00     0.00   0.00  -0.00    -0.00  -0.00   0.00
   2   6    -0.00   0.00   0.00     0.00  -0.00  -0.00    -0.00  -0.00   0.00
   3   8    -0.00  -0.00   0.00    -0.00   0.00  -0.00    -0.00   0.00  -0.00
   4  15    -0.00   0.00  -0.00     0.00  -0.00   0.00     0.00  -0.00   0.00
   5  16     0.00   0.00  -0.00    -0.00   0.00  -0.00    -0.00  -0.00   0.00
   6   8     0.00   0.00   0.00    -0.00   0.00  -0.00     0.00   0.00   0.00
   7   6    -0.00  -0.00  -0.00     0.00  -0.00   0.00    -0.00   0.00  -0.01
   8   6    -0.00  -0.00  -0.00    -0.00  -0.00   0.00     0.05  -0.00  -0.25
   9  16     0.00   0.00   0.00    -0.00   0.00   0.00     0.00   0.00   0.00
  10   6    -0.00  -0.00  -0.00     0.00  -0.00   0.00     0.00   0.00  -0.00
  11  16    -0.00   0.00   0.00     0.00  -0.00  -0.00     0.00  -0.00  -0.00
  12  15     0.00  -0.00   0.00     0.00   0.00  -0.00     0.00   0.00  -0.00
  13  16    -0.00  -0.00   0.00     0.00  -0.00  -0.00    -0.00  -0.00  -0.00
  14   8     0.00   0.00  -0.00     0.00   0.00   0.00    -0.00  -0.00   0.00
  15   6    -0.00  -0.00   0.00    -0.01   0.00   0.00    -0.00   0.00  -0.00
  16   6    -0.00   0.00  -0.00    -0.20   0.16  -0.04    -0.00   0.00  -0.00
  17   8     0.00  -0.00  -0.00    -0.00   0.00   0.00    -0.00  -0.00   0.00
  18   6    -0.00   0.01   0.00     0.00  -0.00  -0.00     0.00  -0.00  -0.00
  19   6     0.08   0.24   0.09     0.00  -0.00  -0.00    -0.00  -0.00   0.00
  20   1     0.00  -0.00  -0.00     0.00   0.00   0.00     0.00  -0.00  -0.01
  21   1    -0.00  -0.00  -0.00     0.00   0.00   0.00     0.00   0.00   0.00
  22   1     0.00   0.00  -0.00    -0.02  -0.00   0.00     0.00   0.00  -0.00
  23   1     0.00  -0.00  -0.00    -0.00   0.00   0.00     0.00  -0.00  -0.00
  24   1    -0.00  -0.00  -0.00    -0.00   0.00  -0.00     0.00   0.00   0.00
  25   1    -0.00   0.00  -0.00    -0.00   0.00  -0.00     0.01  -0.01   0.01
  26   1     0.00   0.00   0.00     0.00   0.00   0.00     0.00   0.01   0.00
  27   1    -0.00  -0.00   0.00     0.00   0.00  -0.00    -0.20  -0.05   0.94
  28   1     0.00  -0.00   0.00    -0.00   0.00  -0.00    -0.00   0.01  -0.04
  29   1     0.01   0.02   0.01     0.00   0.00   0.00     0.02   0.05  -0.00
  30   1     0.00  -0.00   0.00    -0.00   0.00  -0.00     0.00   0.00   0.00
  31   1     0.00   0.00  -0.00     0.00   0.00  -0.00    -0.00  -0.00   0.00
  32   1     0.00   0.00   0.00     0.01   0.00   0.01     0.00   0.00   0.00
  33   1     0.00   0.00  -0.00     0.01   0.00  -0.02     0.00  -0.00  -0.00
  34   1     0.00  -0.00   0.00     0.72  -0.63   0.09     0.00  -0.00   0.00
  35   1     0.00   0.00   0.01     0.03   0.04   0.08     0.00   0.00   0.00
  36   1     0.00   0.00  -0.00    -0.02   0.02  -0.01    -0.00   0.00  -0.00
  37   1    -0.00  -0.00  -0.02     0.00   0.00   0.00     0.00   0.00   0.00
  38   1     0.01  -0.01   0.01    -0.00   0.00  -0.00    -0.00   0.00  -0.00
  39   1     0.01   0.03   0.01    -0.00   0.00  -0.00     0.00  -0.00   0.00
  40   1    -0.30  -0.88  -0.16     0.00   0.01   0.00     0.00   0.00   0.00
  41   1     0.01  -0.00  -0.17    -0.00   0.00   0.01    -0.00  -0.00  -0.00
