 Entering Gaussian System
 *********************************************
 Gaussian 98:
 frequency output generated by the xtb code
 *********************************************
                         Standard orientation:
 --------------------------------------------------------------------
  Center     Atomic     Atomic              Coordinates (Angstroms)
  Number     Number      Type              X           Y           Z
 --------------------------------------------------------------------
    1          6             0        1.244350   -2.854662    1.022795
    2          6             0        2.150348   -1.714604    1.440509
    3          8             0        1.644993   -0.465286    0.927357
    4         15             0        2.346171    0.295634   -0.290284
    5         16             0        3.083674   -0.827295   -1.706517
    6          8             0        3.497039    1.201965    0.322358
    7          6             0        3.296283    2.195208    1.357771
    8          6             0        3.394719    1.587347    2.743354
    9         16             0        0.797948    1.654926   -0.763642
   10          6             0        0.044253    0.681709   -2.091274
   11         16             0       -0.657855   -0.891318   -1.526844
   12         15             0       -2.152316   -0.094590   -0.270944
   13         16             0       -2.994189    1.588894   -0.834486
   14          8             0       -1.424834   -0.092880    1.128611
   15          6             0       -1.872266    0.691440    2.259033
   16          6             0       -0.650394    1.180640    3.008704
   17          8             0       -3.165121   -1.307611   -0.086643
   18          6             0       -4.141607   -1.655039   -1.089418
   19          6             0       -5.169561   -2.562568   -0.443529
   20          1             0        0.220393   -2.641445    1.319888
   21          1             0        1.273859   -2.978926   -0.057665
   22          1             0        1.577903   -3.771555    1.497949
   23          1             0        3.170429   -1.870242    1.075505
   24          1             0        2.165546   -1.596972    2.526195
   25          1             0        4.095145    2.918239    1.184666
   26          1             0        2.327517    2.677149    1.199972
   27          1             0        4.331396    1.045516    2.846085
   28          1             0        3.359959    2.383030    3.480878
   29          1             0        2.567817    0.906274    2.922554
   30          1             0        0.796885    0.427595   -2.837183
   31          1             0       -0.742700    1.306335   -2.513609
   32          1             0       -2.478800    1.526877    1.893059
   33          1             0       -2.490892    0.039843    2.880172
   34          1             0       -0.059921    1.833524    2.370802
   35          1             0       -0.965662    1.728530    3.890657
   36          1             0       -0.040755    0.332795    3.307847
   37          1             0       -4.597744   -0.733478   -1.466197
   38          1             0       -3.623921   -2.159743   -1.909566
   39          1             0       -5.893594   -2.868866   -1.191484
   40          1             0       -4.680748   -3.442244   -0.034852
   41          1             0       -5.682107   -2.039014    0.358431
 --------------------------------------------------------------------
     1 basis functions        1 primitive gaussians
     1 alpha electrons        1 beta electrons
 
 Harmonic frequencies (cm**-1), IR intensities (km*mol⁻¹),
 Raman scattering activities (A**4/amu), Raman depolarization ratios,
 reduced masses (AMU), force constants (mDyne/A) and normal coordinates:
                      1                      2                      3
                        a                      a                      a 
 Frequencies --    48.5428                52.0901                49.8192
 Red. masses --    23.5316                22.3304                15.6891
 Frc consts  --     0.0000                 0.0000                 0.0000
 IR Inten    --     5.1374                 2.6240                 3.8844
 Raman Activ --     0.0000                 0.0000                 0.0000
 Depolar     --     0.0000                 0.0000                 0.0000
 Atom AN      X      Y      Z        X      Y      Z        X      Y      Z
   1   6    -0.01   0.03   0.07     0.07  -0.09  -0.06    -0.16  -0.03  -0.05
   2   6    -0.06   0.05   0.12     0.15  -0.15  -0.10    -0.19   0.00  -0.07
   3   8    -0.08   0.05   0.13     0.18  -0.13  -0.02    -0.23  -0.03  -0.16
   4  15    -0.12  -0.06   0.09     0.18  -0.01   0.03    -0.09   0.02  -0.06
   5  16    -0.43  -0.23   0.06     0.18   0.21  -0.15     0.12   0.10  -0.01
   6   8     0.06  -0.16  -0.02     0.11  -0.02   0.05    -0.11  -0.05   0.14
   7   6     0.16  -0.07  -0.06     0.10  -0.06   0.08    -0.16  -0.10   0.17
   8   6     0.15  -0.01  -0.03     0.06  -0.11   0.06    -0.16  -0.17   0.14
   9  16     0.06   0.17   0.19     0.06  -0.06   0.27     0.06   0.11  -0.26
  10   6     0.02   0.25   0.02     0.02   0.03   0.13     0.02   0.02  -0.12
  11  16     0.09   0.29  -0.22    -0.04   0.04   0.09     0.10   0.04  -0.11
  12  15     0.04   0.01  -0.10    -0.18   0.04  -0.08     0.17   0.04  -0.04
  13  16    -0.28  -0.12  -0.01    -0.35  -0.14  -0.35     0.00  -0.08  -0.14
  14   8     0.09   0.07  -0.10    -0.11   0.20  -0.07     0.23   0.17  -0.08
  15   6     0.06   0.02  -0.07    -0.08   0.20  -0.08     0.05  -0.01  -0.02
  16   6     0.05   0.03  -0.06    -0.07   0.14  -0.07    -0.04  -0.05   0.14
  17   8     0.18  -0.12  -0.07    -0.05  -0.02   0.04     0.18  -0.00   0.13
  18   6     0.12  -0.13  -0.01    -0.09  -0.07   0.10     0.05  -0.03   0.23
  19   6     0.14  -0.11   0.06    -0.08  -0.01   0.19     0.08   0.02   0.36
  20   1    -0.01  -0.00   0.01     0.03  -0.02   0.00    -0.05  -0.01  -0.02
  21   1     0.01   0.01   0.02    -0.00  -0.02  -0.02    -0.04  -0.02  -0.01
  22   1    -0.00   0.01   0.02     0.02  -0.03  -0.03    -0.04  -0.00  -0.00
  23   1    -0.01   0.02   0.05     0.03  -0.05  -0.05    -0.05   0.00  -0.01
  24   1    -0.03   0.01   0.04     0.07  -0.05  -0.03    -0.06   0.01  -0.02
  25   1     0.06  -0.04  -0.03     0.03  -0.02   0.04    -0.05  -0.02   0.06
  26   1     0.05  -0.00  -0.01     0.03  -0.01   0.02    -0.05  -0.04   0.05
  27   1     0.04  -0.01  -0.01     0.01  -0.04   0.02    -0.04  -0.04   0.03
  28   1     0.06   0.01  -0.02     0.02  -0.04   0.03    -0.05  -0.06   0.05
  29   1     0.04   0.01   0.01     0.01  -0.03   0.01    -0.04  -0.06   0.03
  30   1     0.00   0.10  -0.01     0.01   0.01   0.04     0.00   0.01  -0.04
  31   1     0.00   0.08   0.03     0.01   0.02   0.04    -0.00   0.00  -0.03
  32   1     0.01   0.01  -0.02    -0.01   0.06  -0.03     0.01   0.00   0.00
  33   1     0.02  -0.00  -0.02    -0.03   0.07  -0.02     0.00  -0.03  -0.04
  34   1     0.01   0.02  -0.01    -0.01   0.04  -0.02     0.00   0.00   0.07
  35   1     0.01   0.00  -0.02    -0.01   0.04  -0.02    -0.04  -0.03   0.04
  36   1     0.02   0.01  -0.02    -0.03   0.03  -0.02    -0.02  -0.02   0.04
  37   1     0.03  -0.04  -0.00    -0.03  -0.03   0.01     0.01  -0.01   0.06
  38   1     0.02  -0.05  -0.00    -0.04  -0.04   0.03    -0.01  -0.02   0.06
  39   1     0.03  -0.04   0.03    -0.03  -0.01   0.07     0.01   0.00   0.12
  40   1     0.04  -0.03   0.02    -0.02   0.00   0.06     0.03   0.01   0.10
  41   1     0.05  -0.02   0.02    -0.01   0.01   0.05     0.04   0.02   0.11
                      4                      5                      6
                        a                      a                      a 
 Frequencies --    57.8581                60.8910                72.9480
 Red. masses --    18.8576                17.4896                25.7919
 Frc consts  --     0.0000                 0.0000                 0.0000
 IR Inten    --     0.0571                 2.3561                 2.1992
 Raman Activ --     0.0000                 0.0000                 0.0000
 Depolar     --     0.0000                 0.0000                 0.0000
 Atom AN      X      Y      Z        X      Y      Z        X      Y      Z
   1   6    -0.02  -0.02  -0.01    -0.29   0.14   0.05     0.05  -0.09   0.03
   2   6    -0.08   0.04  -0.05    -0.13   0.05  -0.03     0.02  -0.04  -0.03
   3   8    -0.12  -0.02  -0.19    -0.00   0.11  -0.05    -0.09  -0.08  -0.02
   4  15     0.05  -0.04  -0.16     0.09   0.10  -0.06    -0.22   0.02   0.02
   5  16     0.02  -0.06  -0.17     0.07   0.05  -0.03    -0.37   0.25  -0.24
   6   8     0.08  -0.16   0.01     0.09   0.02  -0.03    -0.11  -0.05   0.02
   7   6     0.05  -0.11  -0.02     0.11   0.01  -0.01    -0.03  -0.07   0.05
   8   6    -0.09  -0.10  -0.00     0.07  -0.02  -0.02    -0.02  -0.10   0.03
   9  16     0.25   0.15  -0.20     0.16   0.17  -0.07    -0.26   0.02   0.20
  10   6    -0.03   0.02   0.03     0.01   0.06   0.03    -0.02  -0.03   0.07
  11  16     0.08   0.09   0.34     0.24   0.02   0.12     0.23  -0.15   0.15
  12  15    -0.06   0.06   0.18     0.02  -0.24   0.04     0.18  -0.09   0.05
  13  16    -0.10   0.02   0.10    -0.10  -0.29   0.11     0.35  -0.09  -0.18
  14   8    -0.16   0.08   0.19    -0.09  -0.21   0.09     0.02  -0.03   0.09
  15   6    -0.16   0.14   0.11    -0.05  -0.06   0.01     0.06   0.16  -0.03
  16   6    -0.16   0.18   0.09    -0.03   0.03  -0.08     0.08   0.24  -0.11
  17   8    -0.00  -0.00   0.05     0.07  -0.24  -0.13     0.07  -0.01   0.02
  18   6     0.17  -0.10  -0.09    -0.08   0.01  -0.05     0.10   0.02  -0.04
  19   6     0.19  -0.23  -0.24    -0.30   0.32   0.03     0.00   0.11  -0.07
  20   1    -0.01  -0.01  -0.01    -0.07   0.08   0.02     0.01  -0.03   0.02
  21   1     0.01  -0.02  -0.00    -0.10   0.03   0.02     0.00  -0.03   0.01
  22   1     0.00   0.01   0.02    -0.11   0.04   0.02     0.03  -0.02   0.01
  23   1    -0.02   0.02   0.00    -0.05  -0.02  -0.02     0.00   0.00  -0.02
  24   1    -0.04   0.03  -0.02    -0.02   0.02  -0.01     0.02  -0.01  -0.01
  25   1     0.03  -0.05   0.01     0.04  -0.01   0.01    -0.00  -0.03   0.01
  26   1     0.03  -0.02  -0.03     0.04   0.01  -0.00    -0.01  -0.01   0.02
  27   1    -0.04  -0.04   0.02     0.01  -0.02  -0.01    -0.01  -0.04   0.00
  28   1    -0.03  -0.02  -0.01     0.03  -0.01  -0.00     0.00  -0.03   0.01
  29   1    -0.04  -0.01  -0.02     0.01   0.01  -0.01    -0.01  -0.03   0.01
  30   1    -0.03  -0.01  -0.01    -0.01   0.03  -0.01     0.01   0.01   0.03
  31   1    -0.02  -0.00   0.03    -0.02   0.01   0.03    -0.02  -0.03   0.01
  32   1    -0.05   0.03   0.01    -0.02  -0.03  -0.02     0.02   0.04  -0.04
  33   1    -0.04   0.05   0.04    -0.01  -0.00   0.03     0.02   0.08   0.02
  34   1    -0.05   0.04   0.02    -0.02  -0.01  -0.05     0.02   0.05  -0.06
  35   1    -0.05   0.07   0.02    -0.00   0.03  -0.04     0.03   0.10  -0.05
  36   1    -0.05   0.06   0.04    -0.00   0.02  -0.00     0.02   0.08  -0.01
  37   1     0.03  -0.04  -0.04     0.04   0.03  -0.02     0.05   0.01  -0.03
  38   1     0.10  -0.01  -0.01    -0.07  -0.05  -0.01     0.03  -0.01   0.00
  39   1     0.09  -0.08  -0.09    -0.11   0.13   0.02     0.01   0.04  -0.03
  40   1     0.07  -0.06  -0.06    -0.15   0.07   0.03    -0.02   0.02  -0.01
  41   1     0.02  -0.09  -0.08    -0.05   0.14   0.00    -0.00   0.05  -0.03
                      7                      8                      9
                        a                      a                      a 
 Frequencies --    62.3603                66.2610                67.4364
 Red. masses --    15.4211                13.3309                12.4403
 Frc consts  --     0.0000                 0.0000                 0.0000
 IR Inten    --     3.2876                 0.2610                 1.5210
 Raman Activ --     0.0000                 0.0000                 0.0000
 Depolar     --     0.0000                 0.0000                 0.0000
 Atom AN      X      Y      Z        X      Y      Z        X      Y      Z
   1   6    -0.18  -0.04  -0.06     0.28  -0.14   0.43    -0.25  -0.06  -0.25
   2   6    -0.10  -0.10  -0.06     0.17   0.06   0.11    -0.06  -0.25  -0.15
   3   8    -0.05  -0.08  -0.03    -0.07  -0.15  -0.16     0.13  -0.12   0.05
   4  15     0.00  -0.03   0.05     0.02  -0.10  -0.08     0.06  -0.10   0.04
   5  16     0.23   0.05   0.11     0.06   0.07  -0.20    -0.04  -0.08  -0.03
   6   8    -0.07   0.01   0.11     0.02  -0.16   0.08     0.04  -0.03  -0.03
   7   6    -0.10   0.01   0.08    -0.05  -0.03  -0.05    -0.04   0.15  -0.21
   8   6    -0.07   0.02   0.08    -0.35   0.10   0.02    -0.33   0.35  -0.11
   9  16    -0.02  -0.07  -0.01     0.09  -0.01   0.04     0.04  -0.06   0.25
  10   6    -0.01  -0.00  -0.04     0.02   0.08  -0.02     0.04   0.07   0.07
  11  16    -0.17   0.03  -0.16    -0.03   0.11  -0.16     0.09   0.06  -0.02
  12  15    -0.03  -0.02   0.05     0.01  -0.00  -0.04     0.11   0.01   0.03
  13  16    -0.14   0.01   0.31    -0.04   0.05   0.20     0.11   0.01   0.04
  14   8     0.01  -0.07   0.02     0.02  -0.07  -0.03     0.08   0.03   0.02
  15   6     0.23   0.17  -0.06    -0.02  -0.08  -0.02    -0.08  -0.06   0.02
  16   6     0.34   0.32  -0.35    -0.05   0.04  -0.06    -0.17   0.09   0.08
  17   8     0.03  -0.06   0.00     0.03  -0.03  -0.08     0.09  -0.00   0.02
  18   6     0.07  -0.07  -0.04    -0.05   0.03  -0.01     0.06   0.00   0.04
  19   6     0.06  -0.08  -0.08    -0.10   0.15   0.07     0.06   0.02   0.07
  20   1    -0.05   0.01  -0.01     0.08  -0.06   0.14    -0.06   0.02  -0.06
  21   1    -0.06  -0.01  -0.02     0.05  -0.10   0.13    -0.08   0.01  -0.07
  22   1    -0.07  -0.02  -0.02     0.13  -0.00   0.16    -0.11  -0.05  -0.10
  23   1    -0.03  -0.04  -0.03     0.05   0.04   0.02    -0.03  -0.10  -0.06
  24   1    -0.02  -0.04  -0.02     0.07   0.08   0.02     0.00  -0.11  -0.04
  25   1    -0.04   0.01   0.02     0.02  -0.04   0.00     0.02   0.02  -0.06
  26   1    -0.03  -0.01   0.02     0.01   0.02  -0.07     0.01   0.06  -0.13
  27   1    -0.01   0.02   0.03    -0.12   0.01   0.07    -0.11   0.10   0.04
  28   1    -0.04   0.01   0.02    -0.12   0.05  -0.02    -0.13   0.13  -0.06
  29   1    -0.01  -0.01   0.02    -0.13   0.05  -0.01    -0.11   0.11  -0.05
  30   1     0.00  -0.01  -0.01     0.00   0.03  -0.01     0.01   0.03   0.02
  31   1     0.01   0.01  -0.02     0.01   0.04   0.00     0.01   0.02   0.03
  32   1     0.05   0.03  -0.03    -0.03  -0.04  -0.00    -0.05  -0.04   0.00
  33   1     0.09   0.08   0.05     0.02  -0.04   0.00    -0.01  -0.04  -0.01
  34   1     0.06   0.07  -0.16    -0.03   0.02  -0.03    -0.07   0.05   0.03
  35   1     0.13   0.13  -0.11    -0.02   0.01  -0.02    -0.08   0.01   0.02
  36   1     0.12   0.11  -0.09     0.01   0.03  -0.01    -0.02   0.05   0.03
  37   1     0.02  -0.02  -0.01     0.01   0.02  -0.01     0.02   0.00   0.01
  38   1     0.03  -0.02  -0.01    -0.04  -0.01  -0.00     0.01  -0.00   0.01
  39   1     0.02  -0.02  -0.03    -0.04   0.04   0.03     0.01   0.01   0.02
  40   1     0.01  -0.02  -0.02    -0.04   0.04   0.03     0.02   0.00   0.02
  41   1     0.01  -0.03  -0.03    -0.01   0.07   0.01     0.02   0.01   0.02
                     10                     11                     12
                        a                      a                      a 
 Frequencies --    60.8541                74.3684                96.3728
 Red. masses --    11.4681                11.2606                15.2804
 Frc consts  --     0.0000                 0.0000                 0.0000
 IR Inten    --     2.3621                 2.7311                 5.3876
 Raman Activ --     0.0000                 0.0000                 0.0000
 Depolar     --     0.0000                 0.0000                 0.0000
 Atom AN      X      Y      Z        X      Y      Z        X      Y      Z
   1   6    -0.46   0.11   0.48    -0.02   0.04   0.01     0.02   0.01   0.06
   2   6    -0.02  -0.06  -0.01     0.01   0.01   0.01     0.11  -0.04  -0.00
   3   8     0.11  -0.02  -0.03     0.04   0.03   0.03     0.14  -0.01   0.07
   4  15     0.07   0.03  -0.05     0.03   0.02  -0.00    -0.00  -0.02  -0.02
   5  16     0.02   0.17  -0.19     0.02   0.02  -0.00     0.04  -0.06   0.03
   6   8     0.04   0.05  -0.07     0.02   0.03  -0.03    -0.06   0.14  -0.12
   7   6     0.05  -0.00  -0.01     0.04  -0.07   0.07    -0.09  -0.02   0.02
   8   6     0.05  -0.06  -0.04     0.21  -0.17   0.02     0.07  -0.15  -0.05
   9  16    -0.07  -0.06   0.12    -0.02  -0.03   0.01    -0.16  -0.17  -0.02
  10   6     0.01  -0.01   0.02     0.02   0.01  -0.03    -0.01  -0.06  -0.08
  11  16    -0.07  -0.01  -0.07    -0.04   0.00  -0.16    -0.13  -0.04  -0.15
  12  15    -0.01   0.04  -0.03     0.04  -0.02  -0.06     0.12   0.04   0.08
  13  16     0.07   0.08  -0.04     0.22   0.14   0.15    -0.26  -0.13   0.14
  14   8     0.01   0.01  -0.03     0.00  -0.11  -0.02     0.20   0.19   0.01
  15   6     0.02  -0.01  -0.01    -0.21  -0.23  -0.01    -0.05   0.04   0.02
  16   6     0.03  -0.16   0.07    -0.36   0.38  -0.16    -0.20   0.14   0.19
  17   8    -0.03   0.05   0.01    -0.02   0.02  -0.05     0.17  -0.03   0.12
  18   6     0.04  -0.05  -0.02    -0.11  -0.01   0.06     0.30   0.01  -0.07
  19   6     0.14  -0.19  -0.05     0.06  -0.14   0.16    -0.03   0.29  -0.22
  20   1    -0.09   0.13   0.22    -0.00   0.02   0.00     0.01   0.02   0.04
  21   1    -0.24  -0.03   0.14    -0.01   0.01   0.00    -0.02   0.00   0.02
  22   1    -0.16   0.03   0.16    -0.01   0.01   0.00    -0.00  -0.00   0.01
  23   1    -0.06  -0.10  -0.10     0.00  -0.00   0.00     0.02  -0.02  -0.03
  24   1     0.11   0.03  -0.01     0.01   0.00   0.00     0.06  -0.01  -0.00
  25   1     0.02  -0.00   0.00    -0.01   0.00   0.02    -0.05   0.02   0.01
  26   1     0.02   0.00   0.00    -0.00  -0.04   0.06    -0.04  -0.03   0.04
  27   1     0.01  -0.03  -0.02     0.07  -0.04  -0.04     0.03  -0.04  -0.06
  28   1     0.03  -0.02  -0.00     0.08  -0.06   0.02     0.03  -0.06   0.01
  29   1     0.01  -0.01  -0.01     0.07  -0.06   0.02     0.03  -0.05  -0.01
  30   1     0.01  -0.00   0.01     0.01   0.00  -0.01     0.01  -0.02  -0.01
  31   1     0.01   0.00  -0.00     0.01   0.01  -0.01     0.01  -0.01  -0.04
  32   1     0.03   0.02  -0.00    -0.18  -0.15   0.01    -0.03  -0.00   0.00
  33   1    -0.02   0.01  -0.02     0.04  -0.14   0.03    -0.02  -0.02  -0.03
  34   1     0.04  -0.05   0.04    -0.21   0.17  -0.08    -0.05   0.07   0.08
  35   1     0.01  -0.05   0.02    -0.15   0.09  -0.05    -0.11   0.02   0.05
  36   1    -0.02  -0.06   0.02     0.02   0.20  -0.05    -0.04   0.06   0.07
  37   1    -0.02  -0.03  -0.00    -0.07  -0.01   0.05     0.16   0.01  -0.08
  38   1     0.03   0.01  -0.00    -0.05   0.02  -0.01     0.12  -0.05   0.03
  39   1     0.05  -0.07  -0.02    -0.00  -0.05   0.07     0.02   0.10  -0.11
  40   1     0.07  -0.04  -0.02     0.06  -0.03   0.02    -0.09   0.07  -0.00
  41   1     0.02  -0.08  -0.01     0.03  -0.06   0.07    -0.03   0.14  -0.11
                     13                     14                     15
                        a                      a                      a 
 Frequencies --   100.2611               100.5649               119.4199
 Red. masses --    11.8374                11.5505                14.5822
 Frc consts  --     0.0000                 0.0000                 0.0000
 IR Inten    --     0.1620                 2.6232                 5.7569
 Raman Activ --     0.0000                 0.0000                 0.0000
 Depolar     --     0.0000                 0.0000                 0.0000
 Atom AN      X      Y      Z        X      Y      Z        X      Y      Z
   1   6     0.02   0.18  -0.05     0.02   0.03  -0.10     0.02  -0.09   0.11
   2   6     0.13   0.08   0.00    -0.04   0.04   0.03     0.23  -0.14  -0.21
   3   8     0.24   0.18   0.15     0.00   0.04   0.00     0.12  -0.10   0.02
   4  15     0.10   0.10  -0.01     0.02   0.02  -0.01    -0.07  -0.03  -0.04
   5  16    -0.18  -0.17   0.06     0.04   0.03  -0.01    -0.04  -0.27   0.15
   6   8     0.08   0.18  -0.16     0.03   0.01  -0.02    -0.17   0.16  -0.06
   7   6     0.01  -0.07   0.08     0.07  -0.01   0.00    -0.39   0.01   0.03
   8   6    -0.50  -0.39  -0.02    -0.02  -0.06  -0.01     0.06  -0.05  -0.03
   9  16     0.02   0.02  -0.02    -0.04  -0.03   0.04     0.08   0.14  -0.08
  10   6     0.00  -0.01   0.00     0.01   0.01  -0.01    -0.04   0.12  -0.02
  11  16     0.01  -0.02   0.01    -0.12   0.04  -0.12     0.21   0.18   0.16
  12  15    -0.00  -0.02  -0.01    -0.06   0.00  -0.03    -0.03   0.06  -0.03
  13  16     0.01  -0.01   0.01     0.26   0.22   0.13     0.03   0.09  -0.03
  14   8     0.02  -0.02  -0.02    -0.19  -0.08   0.05    -0.15  -0.03   0.05
  15   6     0.06   0.02  -0.03    -0.09   0.16  -0.08    -0.03   0.02   0.04
  16   6     0.08   0.03  -0.07    -0.06  -0.10   0.02     0.04  -0.02  -0.05
  17   8    -0.01  -0.00   0.01    -0.01  -0.02  -0.05     0.04  -0.01  -0.15
  18   6    -0.06   0.03   0.04     0.19  -0.46  -0.08    -0.01  -0.09  -0.06
  19   6     0.02  -0.06   0.03    -0.08   0.05   0.22     0.00   0.01   0.10
  20   1     0.01   0.07  -0.00    -0.00   0.00  -0.06     0.04  -0.01   0.13
  21   1    -0.00   0.07  -0.02     0.04   0.02  -0.03    -0.10  -0.03   0.03
  22   1    -0.01   0.04  -0.03    -0.01   0.01  -0.02     0.04  -0.03   0.00
  23   1     0.03   0.01  -0.02     0.00   0.02   0.04     0.03  -0.05  -0.17
  24   1     0.05  -0.00   0.00    -0.05   0.01   0.01     0.19  -0.05  -0.06
  25   1     0.06  -0.06   0.13     0.04  -0.02   0.01    -0.20   0.10  -0.01
  26   1     0.05   0.05  -0.02     0.03   0.02  -0.00    -0.17  -0.10   0.06
  27   1    -0.20  -0.21   0.02    -0.02  -0.04   0.00     0.08   0.08  -0.07
  28   1    -0.10  -0.15   0.03     0.01  -0.02   0.00    -0.03  -0.03   0.01
  29   1    -0.22  -0.03  -0.09    -0.02   0.00  -0.01     0.10  -0.10   0.02
  30   1    -0.00  -0.00   0.00     0.01  -0.00   0.01    -0.03   0.05  -0.03
  31   1     0.00  -0.00   0.00     0.01   0.01  -0.01    -0.03   0.03   0.02
  32   1     0.02   0.01  -0.01     0.05   0.08  -0.07    -0.01   0.01   0.02
  33   1     0.02   0.01   0.00    -0.10   0.11  -0.03    -0.00   0.02   0.03
  34   1     0.02  -0.00  -0.03     0.06  -0.09   0.01     0.00  -0.00  -0.02
  35   1     0.03   0.02  -0.02    -0.01   0.02  -0.02     0.04  -0.01  -0.00
  36   1     0.02   0.01  -0.02    -0.09  -0.07   0.05     0.02  -0.01  -0.04
  37   1    -0.03   0.01   0.04     0.11  -0.18  -0.20     0.00  -0.03  -0.04
  38   1    -0.03   0.03  -0.01     0.09  -0.29   0.10    -0.01  -0.06  -0.00
  39   1    -0.00  -0.01   0.02     0.01  -0.08   0.07    -0.01  -0.02   0.05
  40   1     0.02  -0.02  -0.02    -0.08   0.06   0.24     0.00   0.02   0.05
  41   1     0.01  -0.04   0.03    -0.05   0.17  -0.06     0.02   0.04   0.02
                     16                     17                     18
                        a                      a                      a 
 Frequencies --   109.6143               148.2003               137.5436
 Red. masses --    10.9036                23.7047                13.4065
 Frc consts  --     0.0000                 0.0000                 0.0000
 IR Inten    --     4.5564                 8.7468                 3.6548
 Raman Activ --     0.0000                 0.0000                 0.0000
 Depolar     --     0.0000                 0.0000                 0.0000
 Atom AN      X      Y      Z        X      Y      Z        X      Y      Z
   1   6    -0.04   0.02   0.00    -0.03   0.02  -0.04    -0.02   0.13  -0.04
   2   6     0.01  -0.01  -0.03     0.07  -0.08  -0.00    -0.16   0.12   0.30
   3   8     0.01   0.02   0.03     0.14   0.00   0.15     0.11   0.11   0.02
   4  15     0.02   0.03   0.05     0.09   0.01   0.16     0.22  -0.11  -0.10
   5  16    -0.14   0.04  -0.04    -0.44   0.16  -0.23    -0.03  -0.03  -0.31
   6   8     0.04  -0.03   0.08     0.06  -0.01   0.17     0.06   0.02  -0.03
   7   6     0.04   0.01   0.04    -0.05   0.02   0.12    -0.43  -0.09  -0.00
   8   6    -0.05   0.05   0.06     0.04   0.13   0.16    -0.02  -0.02  -0.00
   9  16     0.10   0.04  -0.09     0.21  -0.08  -0.30     0.14  -0.12   0.20
  10   6     0.01  -0.06   0.03     0.19  -0.22  -0.10    -0.00   0.07   0.08
  11  16    -0.08  -0.02   0.14     0.06  -0.17   0.07    -0.04   0.06  -0.04
  12  15    -0.11   0.11   0.00     0.00   0.03  -0.11    -0.01  -0.02   0.04
  13  16    -0.06   0.06  -0.24    -0.16   0.09   0.29     0.04  -0.04  -0.09
  14   8     0.09   0.03  -0.09     0.01   0.04  -0.08     0.01  -0.02   0.02
  15   6     0.10  -0.40   0.21    -0.03   0.07  -0.12     0.04  -0.01   0.03
  16   6     0.15   0.02  -0.13    -0.06  -0.03  -0.01     0.05   0.01  -0.01
  17   8    -0.11   0.12   0.12     0.04  -0.01  -0.10    -0.02   0.00   0.04
  18   6     0.17  -0.20  -0.05    -0.03  -0.00  -0.02    -0.00   0.01   0.02
  19   6    -0.07   0.08  -0.03     0.01  -0.00   0.05    -0.02   0.00  -0.01
  20   1    -0.01   0.01   0.02    -0.00   0.02   0.00    -0.04   0.05  -0.14
  21   1    -0.03   0.01   0.00    -0.02   0.02  -0.01     0.12   0.03  -0.01
  22   1    -0.01   0.00  -0.01    -0.02  -0.01  -0.03    -0.07   0.04   0.03
  23   1    -0.01  -0.01  -0.02     0.01  -0.03  -0.02    -0.00   0.02   0.22
  24   1     0.02  -0.01  -0.01     0.04  -0.05   0.00    -0.19   0.05   0.09
  25   1     0.02  -0.01   0.01    -0.04   0.03   0.02    -0.24   0.10  -0.01
  26   1     0.02   0.01  -0.00    -0.03  -0.03   0.03    -0.20  -0.18   0.02
  27   1    -0.02   0.01   0.04     0.03   0.08   0.06     0.08   0.13  -0.02
  28   1    -0.02   0.02   0.01    -0.03   0.05   0.03    -0.11  -0.01  -0.01
  29   1    -0.02   0.02   0.01     0.04   0.00   0.06     0.10  -0.13   0.02
  30   1    -0.00  -0.03   0.01     0.07  -0.11   0.00    -0.01   0.03   0.01
  31   1     0.01  -0.02   0.00     0.08  -0.07  -0.07    -0.00   0.03   0.05
  32   1    -0.12  -0.17   0.17     0.02   0.04  -0.05     0.00  -0.01   0.01
  33   1     0.18  -0.23   0.09    -0.04   0.04  -0.05     0.02  -0.00   0.01
  34   1    -0.11   0.12  -0.06     0.02  -0.03   0.01     0.01   0.00  -0.01
  35   1     0.07  -0.09   0.03    -0.03   0.00  -0.01     0.02   0.00  -0.00
  36   1     0.19   0.07  -0.15    -0.05  -0.03   0.02     0.02   0.01  -0.00
  37   1     0.09  -0.09  -0.14    -0.02   0.00   0.00     0.00   0.00   0.01
  38   1     0.11  -0.15   0.08    -0.03  -0.00  -0.02     0.00   0.00   0.01
  39   1     0.04  -0.04  -0.04    -0.01  -0.01   0.03     0.00   0.00  -0.01
  40   1    -0.07   0.06   0.12     0.01   0.00   0.01    -0.01  -0.00  -0.00
  41   1    -0.08   0.11  -0.10     0.02   0.00   0.02    -0.01  -0.00  -0.01
                     19                     20                     21
                        a                      a                      a 
 Frequencies --   162.0213               188.4800               198.4933
 Red. masses --    23.0834                19.1165                17.8764
 Frc consts  --     0.0000                 0.0000                 0.0000
 IR Inten    --     3.1051                12.5539                40.7384
 Raman Activ --     0.0000                 0.0000                 0.0000
 Depolar     --     0.0000                 0.0000                 0.0000
 Atom AN      X      Y      Z        X      Y      Z        X      Y      Z
   1   6    -0.02  -0.03  -0.01     0.01   0.08  -0.01     0.00   0.14  -0.04
   2   6    -0.14   0.01   0.15     0.02   0.13  -0.18     0.03   0.17  -0.20
   3   8    -0.05  -0.01   0.01    -0.11   0.06  -0.24    -0.11   0.10  -0.26
   4  15    -0.11  -0.07  -0.04     0.09   0.14  -0.15     0.15   0.15  -0.15
   5  16     0.19   0.08  -0.01    -0.03  -0.24   0.07    -0.09  -0.24   0.01
   6   8    -0.07   0.03  -0.17     0.10  -0.05   0.08     0.13  -0.08   0.14
   7   6    -0.01  -0.02  -0.12    -0.05  -0.03   0.04     0.02  -0.03   0.09
   8   6    -0.03  -0.12  -0.16     0.02   0.04   0.07    -0.00   0.08   0.14
   9  16    -0.21  -0.09   0.15    -0.05   0.10   0.25    -0.24  -0.16   0.19
  10   6     0.12  -0.11   0.02    -0.06  -0.01   0.19     0.18  -0.14  -0.02
  11  16     0.33  -0.11   0.33     0.13  -0.21   0.13    -0.13  -0.06  -0.07
  12  15     0.03   0.19  -0.18    -0.03  -0.10  -0.16     0.08   0.12   0.05
  13  16    -0.28   0.19   0.20     0.01   0.07   0.24    -0.10  -0.01  -0.10
  14   8    -0.02   0.09  -0.11     0.27   0.13  -0.28    -0.20  -0.07   0.17
  15   6     0.01  -0.08   0.00     0.05   0.01  -0.26    -0.04  -0.01   0.17
  16   6     0.04  -0.05  -0.07    -0.07  -0.01  -0.05     0.05  -0.00   0.03
  17   8     0.10   0.06  -0.23    -0.17   0.08   0.16     0.18  -0.04  -0.20
  18   6     0.01  -0.01  -0.09    -0.03  -0.05   0.04     0.05   0.06  -0.07
  19   6     0.10   0.03   0.12    -0.11  -0.05  -0.09     0.14   0.08   0.11
  20   1    -0.03  -0.02  -0.07     0.01   0.02   0.03     0.01   0.04   0.02
  21   1     0.07  -0.02   0.00    -0.03   0.00  -0.00    -0.04   0.03  -0.01
  22   1    -0.03  -0.00   0.03     0.02   0.03   0.00     0.02   0.05  -0.02
  23   1    -0.02   0.01   0.11    -0.01   0.04  -0.09    -0.00   0.05  -0.09
  24   1    -0.11   0.01   0.04     0.05   0.05  -0.05     0.05   0.06  -0.06
  25   1     0.01  -0.02  -0.02    -0.04   0.02   0.01    -0.01   0.00   0.02
  26   1     0.00   0.01  -0.02    -0.03  -0.05   0.01    -0.00  -0.03   0.01
  27   1    -0.03  -0.07  -0.07     0.04   0.07   0.04     0.03   0.08   0.08
  28   1     0.03  -0.05  -0.03    -0.06   0.02   0.01    -0.07   0.04   0.02
  29   1    -0.03  -0.01  -0.05     0.05  -0.04   0.01     0.03  -0.02   0.03
  30   1     0.06  -0.03   0.04    -0.02   0.03   0.04     0.11  -0.07   0.06
  31   1     0.03  -0.06  -0.04    -0.04  -0.02   0.08     0.10  -0.04  -0.09
  32   1    -0.03  -0.03   0.04     0.03   0.01  -0.09    -0.02  -0.00   0.06
  33   1     0.04  -0.06  -0.00    -0.01  -0.01  -0.11     0.01   0.00   0.07
  34   1    -0.02   0.02  -0.02     0.00   0.01   0.02    -0.02   0.01  -0.00
  35   1     0.03  -0.05   0.01    -0.06  -0.02  -0.02     0.04  -0.02   0.03
  36   1     0.04  -0.01  -0.07    -0.03  -0.00  -0.00     0.03  -0.00  -0.03
  37   1    -0.01  -0.01  -0.03    -0.00  -0.03  -0.03     0.01   0.02   0.01
  38   1    -0.02  -0.02  -0.03     0.03  -0.03   0.04    -0.02   0.02  -0.04
  39   1     0.01  -0.02   0.07     0.02  -0.04  -0.06    -0.01   0.04   0.08
  40   1     0.05   0.03   0.05    -0.05   0.00   0.03     0.06   0.01  -0.01
  41   1     0.05   0.03   0.03    -0.09  -0.00  -0.07     0.11   0.02   0.07
                     22                     23                     24
                        a                      a                      a 
 Frequencies --   202.9718               224.7541               229.8422
 Red. masses --     7.4423                12.6325                11.3022
 Frc consts  --     0.0000                 0.0000                 0.0000
 IR Inten    --    13.0765                10.2847                 2.9359
 Raman Activ --     0.0000                 0.0000                 0.0000
 Depolar     --     0.0000                 0.0000                 0.0000
 Atom AN      X      Y      Z        X      Y      Z        X      Y      Z
   1   6     0.01  -0.11   0.01    -0.01   0.29  -0.07    -0.02   0.02  -0.01
   2   6    -0.05  -0.05  -0.01     0.16   0.12  -0.03     0.02  -0.03   0.05
   3   8    -0.01  -0.07  -0.10     0.02   0.18   0.28     0.15  -0.03  -0.04
   4  15     0.05   0.06   0.00    -0.17  -0.18   0.01     0.12  -0.03  -0.09
   5  16    -0.07  -0.05   0.03     0.21   0.14  -0.04    -0.02  -0.15  -0.11
   6   8    -0.01   0.13  -0.03     0.05  -0.39   0.05    -0.06   0.08   0.12
   7   6     0.00   0.07   0.02    -0.04  -0.23  -0.09     0.10   0.06   0.18
   8   6     0.02  -0.03  -0.03    -0.03   0.03   0.03     0.03   0.12   0.22
   9  16     0.02   0.05   0.03    -0.10  -0.05  -0.04    -0.11  -0.19  -0.10
  10   6     0.15  -0.01  -0.02    -0.13   0.04  -0.05    -0.51   0.13  -0.01
  11  16     0.06   0.03  -0.05     0.08  -0.02   0.01     0.08  -0.09   0.05
  12  15     0.09   0.06   0.04     0.06   0.03  -0.00     0.08   0.05  -0.06
  13  16    -0.18  -0.11  -0.06    -0.07  -0.03  -0.00    -0.05   0.02   0.00
  14   8     0.02  -0.25   0.07    -0.00  -0.08   0.02    -0.02  -0.01  -0.00
  15   6     0.01  -0.14  -0.00    -0.00  -0.03  -0.01    -0.02  -0.01  -0.00
  16   6    -0.03   0.00  -0.04    -0.01  -0.00  -0.01    -0.00  -0.01  -0.03
  17   8    -0.13   0.24   0.08    -0.04   0.10  -0.01     0.05   0.07  -0.11
  18   6    -0.02   0.13   0.03    -0.00   0.06  -0.02     0.04   0.06  -0.08
  19   6     0.08   0.02   0.03     0.06   0.03   0.03     0.13   0.07   0.07
  20   1    -0.01  -0.01  -0.05     0.04   0.03   0.17    -0.02   0.08  -0.12
  21   1     0.05  -0.08   0.01    -0.17   0.24  -0.04     0.10  -0.07   0.01
  22   1    -0.02  -0.01   0.06     0.08   0.01  -0.21    -0.10   0.02   0.09
  23   1    -0.01  -0.02   0.02     0.02   0.05  -0.09     0.02  -0.03   0.05
  24   1    -0.03   0.00  -0.01     0.13  -0.02  -0.01    -0.03   0.01   0.01
  25   1     0.00   0.02   0.01    -0.03  -0.05  -0.05     0.06  -0.02   0.05
  26   1     0.00   0.03   0.01    -0.02  -0.10  -0.05     0.05   0.06   0.06
  27   1     0.01  -0.00  -0.02     0.02   0.07   0.06    -0.04  -0.06   0.05
  28   1    -0.00  -0.02   0.01    -0.08   0.05  -0.04     0.12   0.06   0.04
  29   1     0.01  -0.02  -0.02     0.03  -0.03   0.03    -0.06   0.13   0.11
  30   1     0.07  -0.03   0.03    -0.06   0.04  -0.04    -0.24   0.15  -0.14
  31   1     0.07  -0.01  -0.05    -0.06   0.01   0.03    -0.24   0.04   0.18
  32   1     0.00  -0.05  -0.03     0.00  -0.01  -0.01    -0.00  -0.00   0.00
  33   1    -0.00  -0.02   0.01    -0.01   0.00   0.00    -0.00  -0.00   0.00
  34   1     0.14  -0.26  -0.15     0.04  -0.07  -0.04     0.00  -0.02  -0.02
  35   1    -0.03   0.31  -0.21    -0.01   0.08  -0.05     0.01   0.01  -0.01
  36   1    -0.15   0.01   0.31    -0.04   0.00   0.08    -0.01  -0.01   0.00
  37   1    -0.02   0.02  -0.01    -0.01   0.01  -0.01     0.00   0.01  -0.02
  38   1     0.02   0.04   0.02     0.01   0.02  -0.00     0.00   0.01  -0.02
  39   1     0.18  -0.23  -0.04     0.09  -0.12  -0.01     0.05  -0.05   0.04
  40   1     0.10   0.15   0.23     0.06   0.08   0.12     0.07   0.06   0.07
  41   1    -0.17   0.07  -0.15    -0.07   0.04  -0.07     0.02   0.04  -0.01
                     25                     26                     27
                        a                      a                      a 
 Frequencies --   205.3355               225.7877               245.2405
 Red. masses --     3.8023                 4.0388                 8.6016
 Frc consts  --     0.0000                 0.0000                 0.0000
 IR Inten    --     3.3495                 2.9803                 5.8830
 Raman Activ --     0.0000                 0.0000                 0.0000
 Depolar     --     0.0000                 0.0000                 0.0000
 Atom AN      X      Y      Z        X      Y      Z        X      Y      Z
   1   6     0.00   0.02  -0.00     0.00  -0.08   0.03    -0.00   0.14  -0.03
   2   6     0.01   0.01  -0.01     0.01  -0.07   0.02     0.19  -0.01  -0.07
   3   8     0.00   0.01   0.02     0.05  -0.04   0.04     0.14   0.00   0.07
   4  15    -0.01  -0.01   0.00    -0.02   0.08   0.06    -0.14  -0.04  -0.08
   5  16     0.02   0.01   0.00    -0.01   0.07   0.11     0.08  -0.03   0.00
   6   8     0.00  -0.02   0.01     0.11  -0.02  -0.06    -0.03  -0.20   0.06
   7   6     0.00  -0.01  -0.00     0.19  -0.03  -0.03    -0.02  -0.12   0.00
   8   6    -0.00   0.01   0.01    -0.04  -0.07  -0.04     0.01   0.06   0.09
   9  16    -0.00   0.00  -0.00    -0.10   0.06  -0.11    -0.21   0.06  -0.03
  10   6    -0.08  -0.01   0.05    -0.14   0.01  -0.02     0.17   0.02  -0.15
  11  16    -0.08  -0.01   0.13    -0.02  -0.04  -0.00     0.16   0.15  -0.02
  12  15    -0.07   0.07  -0.03     0.01   0.00  -0.01    -0.03  -0.01   0.02
  13  16     0.00   0.12  -0.06     0.01   0.01   0.00     0.00   0.00   0.01
  14   8     0.09   0.01  -0.09    -0.00   0.02  -0.00    -0.02  -0.01   0.02
  15   6     0.04  -0.16   0.01     0.01   0.01   0.02    -0.01  -0.00   0.01
  16   6    -0.01   0.01  -0.03     0.00   0.01   0.03     0.00  -0.01  -0.00
  17   8     0.05  -0.03   0.02     0.03  -0.02  -0.06    -0.09   0.04   0.14
  18   6     0.12  -0.12  -0.02    -0.01   0.01  -0.03    -0.03  -0.06   0.09
  19   6     0.00   0.02  -0.00     0.02   0.01   0.02    -0.12  -0.07  -0.06
  20   1     0.00  -0.00   0.02    -0.02   0.05  -0.12    -0.04   0.29  -0.33
  21   1    -0.02   0.02  -0.00     0.11  -0.13   0.03     0.26  -0.21   0.03
  22   1     0.01  -0.00  -0.02    -0.09   0.01   0.14    -0.30   0.09   0.30
  23   1     0.00   0.00  -0.01     0.01  -0.02   0.01     0.04  -0.01  -0.05
  24   1     0.01  -0.00  -0.00    -0.01  -0.02   0.01     0.09  -0.01  -0.02
  25   1    -0.00  -0.00  -0.00     0.08  -0.03   0.02    -0.01  -0.03  -0.02
  26   1     0.00  -0.00  -0.00     0.07   0.02  -0.02    -0.01  -0.04  -0.01
  27   1     0.01   0.03   0.02     0.18   0.36   0.21    -0.03  -0.03   0.02
  28   1    -0.03   0.00  -0.00    -0.53  -0.06   0.01     0.08   0.06  -0.01
  29   1     0.02  -0.02  -0.01     0.22  -0.36  -0.24    -0.03   0.08   0.09
  30   1    -0.04   0.00  -0.00    -0.06   0.03  -0.03     0.10  -0.03   0.02
  31   1    -0.03  -0.00   0.03    -0.06   0.00   0.03     0.08  -0.01  -0.12
  32   1    -0.02  -0.06   0.02     0.00   0.00   0.01    -0.00  -0.00   0.00
  33   1     0.04  -0.08  -0.00     0.00  -0.00   0.00    -0.00   0.00   0.01
  34   1     0.15  -0.27  -0.15    -0.01   0.02   0.02    -0.00  -0.00  -0.00
  35   1    -0.03   0.33  -0.22    -0.01  -0.02   0.02     0.01   0.00  -0.00
  36   1    -0.14   0.02   0.33     0.01   0.01  -0.01     0.00  -0.00  -0.00
  37   1     0.05  -0.04  -0.04    -0.01   0.01  -0.00    -0.00  -0.02   0.01
  38   1     0.04  -0.06   0.02    -0.01   0.00  -0.02     0.01  -0.02   0.04
  39   1    -0.22   0.33   0.08     0.01  -0.02   0.01    -0.04   0.05  -0.04
  40   1    -0.10  -0.18  -0.30     0.02   0.02   0.03    -0.07  -0.06  -0.06
  41   1     0.27  -0.07   0.22    -0.00   0.01  -0.01    -0.02  -0.05   0.01
                     28                     29                     30
                        a                      a                      a 
 Frequencies --   262.1457               276.8151               291.7388
 Red. masses --    11.8054                16.3819                13.5447
 Frc consts  --     0.0000                 0.0000                 0.0000
 IR Inten    --    18.1579                 3.5139                 4.7519
 Raman Activ --     0.0000                 0.0000                 0.0000
 Depolar     --     0.0000                 0.0000                 0.0000
 Atom AN      X      Y      Z        X      Y      Z        X      Y      Z
   1   6    -0.00   0.02  -0.01     0.01   0.04  -0.01    -0.00   0.00   0.00
   2   6     0.02   0.01  -0.01     0.09   0.02  -0.12    -0.01  -0.01   0.04
   3   8     0.02   0.00  -0.00    -0.09   0.02   0.05     0.05  -0.01  -0.00
   4  15    -0.01  -0.01  -0.03    -0.09   0.02   0.10     0.00  -0.01  -0.05
   5  16     0.01  -0.02  -0.02    -0.00   0.13   0.12     0.02  -0.05  -0.04
   6   8    -0.02  -0.01   0.02     0.05  -0.11  -0.00    -0.03   0.02  -0.00
   7   6    -0.00  -0.01   0.02    -0.13  -0.05  -0.12     0.04  -0.00   0.04
   8   6     0.01   0.02   0.03    -0.01  -0.05  -0.14     0.01   0.02   0.06
   9  16    -0.04  -0.03  -0.00     0.26   0.20   0.05    -0.11  -0.04  -0.02
  10   6     0.00  -0.02   0.00    -0.08  -0.09   0.26     0.02   0.00  -0.05
  11  16    -0.11   0.06   0.10    -0.38  -0.22   0.06    -0.09   0.17   0.19
  12  15    -0.14  -0.04  -0.00    -0.00  -0.00  -0.00    -0.12   0.00   0.01
  13  16     0.15   0.09  -0.02     0.02  -0.01  -0.03     0.12   0.12  -0.01
  14   8     0.16   0.30  -0.10     0.04  -0.06  -0.03    -0.06   0.09  -0.09
  15   6     0.18  -0.02   0.16    -0.02  -0.02  -0.09    -0.23  -0.06  -0.11
  16   6     0.07   0.16   0.25    -0.04  -0.04  -0.07    -0.05  -0.21  -0.35
  17   8     0.17  -0.35  -0.32     0.15  -0.09  -0.11     0.33  -0.32   0.23
  18   6    -0.21  -0.05  -0.08     0.09   0.12  -0.09     0.13   0.14   0.24
  19   6    -0.16  -0.11  -0.04     0.21   0.13   0.07     0.03   0.06  -0.07
  20   1    -0.00   0.03  -0.02    -0.02   0.14  -0.17     0.00  -0.02   0.03
  21   1     0.01  -0.01  -0.00     0.14  -0.15   0.02    -0.03   0.04  -0.00
  22   1    -0.02   0.01   0.02    -0.14   0.05   0.18     0.02  -0.01  -0.04
  23   1     0.00  -0.00  -0.00     0.01   0.02  -0.09     0.00  -0.01   0.03
  24   1     0.01   0.00  -0.00     0.08  -0.01  -0.03    -0.02   0.00   0.01
  25   1     0.00  -0.01   0.00    -0.07   0.02  -0.04     0.02  -0.01   0.01
  26   1     0.00   0.00   0.00    -0.06  -0.06  -0.04     0.02   0.02   0.01
  27   1    -0.02  -0.03  -0.00    -0.03  -0.08  -0.11     0.01   0.04   0.04
  28   1     0.04   0.01   0.00     0.11  -0.02  -0.03    -0.04   0.01   0.01
  29   1    -0.02   0.03   0.03    -0.04   0.04   0.01     0.02  -0.01   0.00
  30   1     0.01  -0.02   0.01    -0.05  -0.02   0.05     0.02  -0.04   0.01
  31   1     0.01  -0.00  -0.02    -0.02  -0.02   0.09     0.03  -0.00  -0.05
  32   1     0.00  -0.02   0.10     0.00  -0.00  -0.04    -0.07  -0.01  -0.02
  33   1     0.10  -0.07   0.03    -0.02   0.00  -0.03    -0.06  -0.03  -0.04
  34   1     0.08  -0.04   0.04    -0.01  -0.00  -0.01    -0.01  -0.13  -0.17
  35   1    -0.04   0.17  -0.03    -0.01  -0.02  -0.01     0.09  -0.01  -0.10
  36   1    -0.02   0.08   0.24    -0.01  -0.02  -0.03    -0.05  -0.10  -0.12
  37   1    -0.06   0.01   0.05     0.03   0.05   0.01     0.06   0.09   0.16
  38   1    -0.13   0.01  -0.08    -0.00   0.05  -0.05     0.00   0.10   0.01
  39   1     0.07  -0.20  -0.06     0.06  -0.04   0.05     0.12  -0.04  -0.10
  40   1     0.00   0.07   0.15     0.10   0.08   0.07     0.01   0.05   0.06
  41   1    -0.19   0.01  -0.13     0.06   0.06   0.00    -0.12   0.01  -0.09
                     31                     32                     33
                        a                      a                      a 
 Frequencies --   317.2930               334.6441               345.1707
 Red. masses --    18.2180                20.5365                20.4102
 Frc consts  --     0.0000                 0.0000                 0.0000
 IR Inten    --     3.2174                 0.5580                 8.6553
 Raman Activ --     0.0000                 0.0000                 0.0000
 Depolar     --     0.0000                 0.0000                 0.0000
 Atom AN      X      Y      Z        X      Y      Z        X      Y      Z
   1   6    -0.02  -0.04   0.01     0.02   0.20  -0.04    -0.00   0.13  -0.02
   2   6    -0.02  -0.08   0.12     0.08   0.16  -0.13     0.08   0.01   0.07
   3   8     0.21  -0.03   0.02    -0.31   0.01  -0.03     0.05  -0.03   0.05
   4  15    -0.06  -0.01  -0.17    -0.08  -0.20   0.08    -0.27  -0.18  -0.20
   5  16     0.08  -0.12  -0.09    -0.03   0.03  -0.07     0.12  -0.14  -0.19
   6   8    -0.07  -0.00  -0.02    -0.26   0.17  -0.02    -0.39   0.15  -0.11
   7   6     0.05  -0.06   0.07     0.08   0.15   0.05     0.11   0.03   0.13
   8   6     0.01   0.06   0.14     0.02  -0.03  -0.03     0.02   0.06   0.17
   9  16    -0.17   0.24  -0.05     0.27  -0.47   0.10     0.23   0.25   0.12
  10   6     0.08  -0.02   0.02     0.04   0.02  -0.04     0.13  -0.04   0.19
  11  16    -0.26   0.20   0.29     0.00   0.23   0.18    -0.04  -0.23  -0.18
  12  15    -0.06   0.01   0.12    -0.04   0.04   0.07     0.02  -0.08  -0.06
  13  16     0.00  -0.05  -0.09    -0.01   0.02  -0.06     0.02  -0.06   0.07
  14   8     0.25  -0.32  -0.04     0.12  -0.19  -0.02    -0.10   0.19   0.00
  15   6     0.16  -0.03  -0.26     0.08  -0.02  -0.14    -0.08   0.02   0.13
  16   6    -0.07   0.06   0.06    -0.04   0.02   0.02     0.03  -0.02  -0.02
  17   8    -0.04   0.01  -0.11     0.01  -0.01  -0.01    -0.05   0.03   0.00
  18   6     0.00   0.01  -0.13    -0.01  -0.02   0.00     0.01   0.03  -0.04
  19   6     0.10   0.05   0.06    -0.02  -0.01  -0.00     0.05   0.03   0.02
  20   1     0.00  -0.05   0.05     0.01   0.13  -0.06     0.01   0.06   0.00
  21   1    -0.04   0.05  -0.01     0.04   0.01  -0.01    -0.01   0.08  -0.01
  22   1     0.03  -0.03  -0.06    -0.06   0.06   0.04    -0.03   0.01  -0.04
  23   1     0.01  -0.05   0.09     0.00   0.08  -0.11     0.02   0.00   0.03
  24   1    -0.06  -0.01   0.03     0.10   0.02  -0.04     0.01   0.01   0.02
  25   1     0.03  -0.03   0.02     0.08  -0.02   0.01     0.10  -0.07   0.03
  26   1     0.03   0.01   0.03     0.06   0.12   0.04     0.08   0.12   0.08
  27   1     0.00   0.03   0.08     0.03   0.04   0.01     0.03   0.08   0.12
  28   1    -0.02   0.05   0.01    -0.08  -0.05   0.03    -0.09   0.03   0.03
  29   1     0.00   0.02   0.06     0.04  -0.07  -0.08     0.04  -0.03   0.02
  30   1     0.07  -0.08   0.08    -0.01  -0.01  -0.03     0.06  -0.02   0.08
  31   1     0.07  -0.02  -0.10     0.02   0.04   0.02     0.05  -0.02   0.02
  32   1     0.10  -0.00  -0.15     0.05  -0.00  -0.08    -0.05   0.00   0.08
  33   1    -0.02   0.05  -0.08    -0.01   0.03  -0.04     0.01  -0.03   0.04
  34   1    -0.03   0.11   0.11    -0.01   0.05   0.05     0.01  -0.04  -0.04
  35   1    -0.12  -0.08   0.04    -0.06  -0.04   0.02     0.06   0.03  -0.01
  36   1     0.02   0.04  -0.02     0.01   0.02  -0.01    -0.01  -0.02  -0.00
  37   1    -0.00  -0.00  -0.05    -0.00  -0.00   0.00     0.00   0.01  -0.02
  38   1     0.00  -0.01  -0.03    -0.00  -0.01   0.00     0.01   0.01  -0.01
  39   1    -0.01  -0.00   0.07    -0.00  -0.00  -0.00     0.00  -0.00   0.03
  40   1     0.05   0.03   0.01    -0.01  -0.01  -0.00     0.03   0.02   0.01
  41   1     0.07   0.03   0.03    -0.01  -0.00  -0.00     0.03   0.02   0.01
                     34                     35                     36
                        a                      a                      a 
 Frequencies --   370.1871               401.5854               403.4061
 Red. masses --    18.6581                19.6336                11.8186
 Frc consts  --     0.0000                 0.0000                 0.0000
 IR Inten    --    17.8450                20.7668                 8.8376
 Raman Activ --     0.0000                 0.0000                 0.0000
 Depolar     --     0.0000                 0.0000                 0.0000
 Atom AN      X      Y      Z        X      Y      Z        X      Y      Z
   1   6     0.00  -0.01   0.00    -0.00  -0.01  -0.00    -0.02   0.33  -0.06
   2   6     0.00  -0.01   0.01    -0.01  -0.00  -0.00     0.24  -0.06   0.26
   3   8     0.04   0.01   0.02     0.01  -0.00  -0.01     0.04  -0.44  -0.34
   4  15    -0.05  -0.00  -0.05    -0.01   0.02  -0.01     0.02   0.01   0.08
   5  16     0.02  -0.02  -0.02    -0.01   0.00   0.01    -0.07   0.00   0.09
   6   8    -0.04   0.01  -0.03     0.01  -0.00  -0.00    -0.05  -0.11   0.28
   7   6     0.01  -0.02   0.01    -0.00  -0.00  -0.00    -0.01   0.18  -0.04
   8   6     0.00   0.02   0.03    -0.00   0.00   0.00     0.02  -0.08  -0.19
   9  16     0.07   0.14   0.03     0.01  -0.03   0.01    -0.07   0.11  -0.06
  10   6    -0.05  -0.05   0.11     0.03   0.00  -0.04    -0.02  -0.00  -0.00
  11  16     0.02  -0.25  -0.09     0.22  -0.05  -0.11    -0.00  -0.02   0.00
  12  15     0.14   0.27  -0.10    -0.49  -0.22  -0.18     0.01   0.00  -0.01
  13  16    -0.19   0.32  -0.14     0.00   0.19  -0.02    -0.00   0.01  -0.00
  14   8    -0.10  -0.39   0.10    -0.24  -0.16  -0.12    -0.01  -0.01   0.00
  15   6     0.11  -0.03  -0.04     0.19  -0.03   0.01     0.00  -0.00   0.00
  16   6    -0.00   0.07   0.11     0.04   0.13   0.22    -0.00   0.00   0.01
  17   8     0.31  -0.07   0.03    -0.06  -0.21   0.27     0.01  -0.00   0.00
  18   6     0.01  -0.08   0.29     0.16   0.15   0.00     0.00  -0.00   0.01
  19   6    -0.23  -0.13  -0.10     0.24   0.17   0.03    -0.00  -0.00  -0.00
  20   1     0.00  -0.01   0.01     0.00  -0.00   0.00     0.02   0.19   0.01
  21   1    -0.01   0.00  -0.00    -0.00   0.00  -0.00    -0.03   0.26  -0.04
  22   1     0.01  -0.01  -0.01     0.00  -0.00  -0.00    -0.13  -0.02  -0.16
  23   1     0.00  -0.01   0.01    -0.00  -0.00   0.00     0.09  -0.04   0.15
  24   1    -0.01  -0.00   0.00    -0.01   0.00  -0.00    -0.02   0.05   0.07
  25   1     0.01  -0.01   0.00    -0.00   0.00   0.00     0.01   0.03  -0.03
  26   1     0.01   0.01   0.01    -0.00  -0.00  -0.00     0.00   0.05  -0.02
  27   1     0.00   0.01   0.02    -0.00  -0.00  -0.00     0.01  -0.03  -0.12
  28   1    -0.00   0.01  -0.00     0.00   0.00  -0.00     0.00  -0.10   0.03
  29   1     0.00   0.01   0.02    -0.00   0.00   0.00     0.01  -0.05  -0.12
  30   1    -0.03   0.03   0.00     0.01   0.02  -0.02    -0.00  -0.00   0.00
  31   1    -0.04  -0.02   0.06     0.00  -0.00  -0.00    -0.01  -0.01  -0.01
  32   1     0.06  -0.01  -0.06     0.05  -0.00   0.02     0.00  -0.00   0.00
  33   1    -0.00   0.05   0.01     0.06   0.00   0.02     0.00   0.00   0.00
  34   1    -0.00   0.07   0.08     0.02   0.08   0.12    -0.00   0.00   0.00
  35   1    -0.07  -0.02   0.03    -0.10   0.01   0.04    -0.00  -0.00   0.00
  36   1     0.03   0.04   0.04     0.04   0.08   0.12     0.00   0.00   0.00
  37   1     0.01  -0.01   0.11     0.07   0.07   0.03     0.00  -0.00   0.00
  38   1    -0.03  -0.01   0.05     0.06   0.08  -0.01    -0.00  -0.00   0.00
  39   1     0.02   0.03  -0.14     0.05   0.01   0.05     0.00   0.00  -0.00
  40   1    -0.14  -0.08  -0.03     0.11   0.08   0.02    -0.00  -0.00  -0.00
  41   1    -0.16  -0.08  -0.06     0.09   0.07   0.02    -0.00  -0.00  -0.00
                     37                     38                     39
                        a                      a                      a 
 Frequencies --   448.5203               471.8526               483.0209
 Red. masses --    20.0738                22.2370                26.5661
 Frc consts  --     0.0000                 0.0000                 0.0000
 IR Inten    --    85.7532               163.1019               117.7829
 Raman Activ --     0.0000                 0.0000                 0.0000
 Depolar     --     0.0000                 0.0000                 0.0000
 Atom AN      X      Y      Z        X      Y      Z        X      Y      Z
   1   6    -0.02   0.06  -0.01    -0.01  -0.09   0.02     0.01   0.05  -0.01
   2   6     0.06  -0.05   0.10    -0.07  -0.00  -0.01     0.03   0.01  -0.00
   3   8     0.09  -0.20  -0.26     0.28   0.16   0.08    -0.18  -0.07  -0.01
   4  15    -0.24   0.23  -0.13    -0.22   0.29  -0.32     0.16  -0.20   0.22
   5  16    -0.13   0.20   0.33    -0.01  -0.01   0.05     0.03  -0.04  -0.10
   6   8     0.09   0.05  -0.38    -0.16  -0.22   0.36     0.09   0.13  -0.14
   7   6     0.00  -0.32  -0.03    -0.01   0.15  -0.02     0.01  -0.03   0.02
   8   6    -0.01   0.08   0.19     0.01  -0.05  -0.14    -0.00   0.02   0.05
   9  16     0.23  -0.24   0.05     0.19  -0.17   0.09    -0.14   0.19  -0.03
  10   6    -0.00  -0.04  -0.02     0.02  -0.05  -0.01     0.00  -0.02   0.00
  11  16     0.05   0.01  -0.03     0.15  -0.08  -0.14     0.24  -0.19  -0.24
  12  15    -0.04   0.03   0.10    -0.15   0.07   0.31    -0.25   0.09   0.51
  13  16    -0.01   0.02  -0.02    -0.05   0.11  -0.07    -0.08   0.22  -0.12
  14   8     0.06   0.00   0.02     0.17   0.01   0.05     0.27   0.01   0.08
  15   6    -0.02   0.00  -0.01    -0.04   0.00  -0.03    -0.06   0.01  -0.05
  16   6    -0.01  -0.02  -0.03    -0.03  -0.04  -0.07    -0.05  -0.05  -0.10
  17   8    -0.00  -0.01  -0.02    -0.01  -0.06  -0.04    -0.03  -0.14  -0.05
  18   6    -0.01  -0.01  -0.02    -0.03  -0.01  -0.07    -0.05  -0.02  -0.11
  19   6    -0.00  -0.00   0.00     0.00  -0.00   0.01     0.01   0.01   0.02
  20   1     0.00   0.04   0.01    -0.01  -0.07   0.01     0.01   0.04  -0.01
  21   1    -0.01   0.08  -0.01    -0.00  -0.06   0.01     0.00   0.02  -0.00
  22   1    -0.03  -0.02  -0.06     0.05   0.00   0.03    -0.02   0.00  -0.01
  23   1     0.03  -0.03   0.09    -0.01  -0.03   0.03     0.00   0.02  -0.03
  24   1    -0.05   0.04   0.02    -0.05  -0.00  -0.00     0.04  -0.00  -0.00
  25   1    -0.03  -0.05   0.01     0.03  -0.00  -0.03    -0.01   0.01   0.02
  26   1    -0.02  -0.11   0.01     0.02   0.08  -0.01    -0.01  -0.03   0.01
  27   1    -0.01   0.03   0.15     0.01  -0.02  -0.10    -0.00   0.00   0.03
  28   1     0.01   0.14  -0.07    -0.01  -0.09   0.04     0.00   0.03  -0.01
  29   1    -0.02   0.07   0.17     0.02  -0.05  -0.11    -0.01   0.02   0.03
  30   1    -0.03   0.01  -0.04    -0.01   0.02  -0.03     0.01   0.04  -0.01
  31   1    -0.01   0.02   0.05    -0.01   0.00   0.04    -0.02  -0.03   0.01
  32   1    -0.00  -0.00  -0.01    -0.00  -0.00  -0.03    -0.00  -0.00  -0.05
  33   1    -0.01   0.00  -0.01    -0.03   0.01  -0.02    -0.04   0.01  -0.03
  34   1    -0.00  -0.01  -0.01    -0.01  -0.02  -0.03    -0.02  -0.03  -0.05
  35   1     0.01  -0.00  -0.01     0.02  -0.01  -0.01     0.03  -0.01  -0.01
  36   1    -0.01  -0.01  -0.01    -0.02  -0.02  -0.04    -0.02  -0.03  -0.06
  37   1    -0.00  -0.00  -0.01    -0.01  -0.00  -0.01    -0.01   0.00  -0.02
  38   1    -0.00  -0.00  -0.00    -0.01  -0.00  -0.02    -0.02  -0.00  -0.03
  39   1    -0.00  -0.00   0.01    -0.01  -0.01   0.02    -0.02  -0.03   0.04
  40   1     0.00   0.00   0.00     0.01   0.01   0.01     0.03   0.02   0.01
  41   1     0.00   0.00   0.00     0.01   0.01   0.01     0.03   0.02   0.01
                     40                     41                     42
                        a                      a                      a 
 Frequencies --   628.8461               640.0433               670.2154
 Red. masses --    26.2807                23.1150                18.3121
 Frc consts  --     0.0000                 0.0000                 0.0000
 IR Inten    --   191.3457                61.3091                 6.0052
 Raman Activ --     0.0000                 0.0000                 0.0000
 Depolar     --     0.0000                 0.0000                 0.0000
 Atom AN      X      Y      Z        X      Y      Z        X      Y      Z
   1   6    -0.00  -0.01  -0.00    -0.01  -0.03  -0.00    -0.00  -0.01  -0.00
   2   6     0.03  -0.04   0.05     0.09  -0.14   0.16     0.02  -0.02   0.02
   3   8    -0.09  -0.04   0.07    -0.31  -0.14   0.24    -0.02  -0.00   0.02
   4  15    -0.09   0.12   0.02    -0.30   0.42   0.02    -0.01   0.09   0.03
   5  16     0.06  -0.09  -0.11     0.18  -0.25  -0.31     0.03  -0.04  -0.04
   6   8     0.11   0.03  -0.01     0.33   0.07  -0.02    -0.02  -0.02  -0.01
   7   6     0.00   0.03   0.02     0.01   0.09   0.05    -0.00  -0.02  -0.01
   8   6    -0.00   0.00   0.01    -0.01   0.01   0.03     0.00  -0.00  -0.00
   9  16     0.03   0.03   0.05     0.08  -0.04   0.07    -0.15  -0.17  -0.32
  10   6    -0.07  -0.14  -0.03    -0.04  -0.06  -0.11    -0.00  -0.27   0.71
  11  16     0.09  -0.01  -0.08    -0.03   0.04   0.04     0.15   0.36  -0.18
  12  15    -0.35   0.45   0.12     0.13  -0.15  -0.06     0.02  -0.06  -0.01
  13  16     0.24  -0.48   0.15    -0.08   0.14  -0.05    -0.02   0.03  -0.01
  14   8    -0.19   0.02  -0.18     0.06  -0.01   0.06     0.00  -0.01  -0.00
  15   6     0.09  -0.05  -0.12    -0.03   0.02   0.04    -0.01   0.01   0.01
  16   6    -0.01  -0.01  -0.01     0.00   0.00   0.00     0.00   0.00   0.00
  17   8     0.15   0.17  -0.14    -0.05  -0.05   0.05     0.01   0.03  -0.01
  18   6     0.06   0.01   0.12    -0.02  -0.00  -0.04     0.00   0.00   0.01
  19   6    -0.01  -0.01   0.00     0.00   0.00  -0.00    -0.00  -0.00   0.00
  20   1     0.00   0.02  -0.01     0.00   0.05  -0.03     0.00   0.01  -0.00
  21   1     0.01   0.02  -0.00     0.02   0.06  -0.01     0.00   0.01  -0.00
  22   1    -0.03  -0.02  -0.01    -0.09  -0.06  -0.05    -0.01  -0.01  -0.01
  23   1     0.00   0.00  -0.01     0.00   0.01  -0.03     0.00  -0.00  -0.00
  24   1     0.03  -0.02   0.01     0.09  -0.07   0.05     0.01  -0.01   0.00
  25   1    -0.02   0.03   0.01    -0.06   0.09   0.04     0.00  -0.01  -0.00
  26   1    -0.01  -0.02  -0.00    -0.03  -0.06  -0.00     0.00  -0.00  -0.00
  27   1    -0.00  -0.01  -0.00    -0.01  -0.02  -0.01     0.00   0.00   0.00
  28   1     0.00  -0.01   0.01     0.01  -0.02   0.03    -0.00   0.01  -0.01
  29   1    -0.00   0.00  -0.01    -0.01   0.01  -0.02     0.00   0.00   0.00
  30   1    -0.02   0.00  -0.02    -0.02  -0.02  -0.03    -0.02  -0.06   0.17
  31   1    -0.02  -0.03   0.02    -0.01   0.01  -0.01     0.02  -0.06   0.16
  32   1     0.01  -0.00   0.01    -0.00   0.00  -0.00    -0.00   0.00   0.00
  33   1     0.04  -0.03  -0.03    -0.01   0.01   0.01    -0.00   0.00   0.00
  34   1     0.01   0.02   0.04    -0.00  -0.01  -0.01     0.00  -0.00  -0.00
  35   1    -0.08  -0.01  -0.02     0.03   0.01   0.01     0.01   0.00   0.00
  36   1     0.01   0.02   0.04    -0.00  -0.01  -0.01    -0.00  -0.00  -0.00
  37   1    -0.00  -0.01   0.01     0.00   0.00  -0.00    -0.00  -0.00   0.00
  38   1     0.01  -0.01   0.03    -0.00   0.00  -0.01     0.00  -0.00   0.01
  39   1     0.04   0.04  -0.06    -0.01  -0.01   0.02     0.01   0.01  -0.01
  40   1    -0.04  -0.03  -0.01     0.01   0.01   0.00    -0.00  -0.00  -0.00
  41   1    -0.05  -0.03  -0.01     0.01   0.01   0.00    -0.01  -0.00  -0.00
                     43                     44                     45
                        a                      a                      a 
 Frequencies --   700.3746               727.9285               752.5643
 Red. masses --    16.5401                19.0810                23.9997
 Frc consts  --     0.0000                 0.0000                 0.0000
 IR Inten    --    60.3677               241.4663               228.9118
 Raman Activ --     0.0000                 0.0000                 0.0000
 Depolar     --     0.0000                 0.0000                 0.0000
 Atom AN      X      Y      Z        X      Y      Z        X      Y      Z
   1   6     0.00   0.02  -0.00     0.00   0.03  -0.01    -0.00  -0.07   0.01
   2   6    -0.03   0.05  -0.06    -0.04   0.06  -0.10     0.07  -0.12   0.18
   3   8     0.09   0.03  -0.07     0.17   0.04  -0.14    -0.31  -0.03   0.26
   4  15    -0.01  -0.14   0.05    -0.44  -0.41  -0.08     0.26  -0.19  -0.63
   5  16    -0.02   0.02   0.02    -0.01   0.06   0.06    -0.14   0.21   0.26
   6   8     0.01   0.02   0.01     0.51   0.08   0.00     0.09   0.01  -0.00
   7   6     0.00   0.01   0.01     0.06   0.31   0.15     0.01   0.12   0.06
   8   6    -0.00   0.00   0.00    -0.01   0.02   0.10     0.00   0.01   0.05
   9  16     0.12   0.20   0.26    -0.03  -0.03  -0.06    -0.02   0.04   0.02
  10   6    -0.41  -0.64  -0.22     0.06   0.06   0.09    -0.03  -0.06   0.02
  11  16     0.10   0.30  -0.09    -0.01  -0.01   0.00     0.02   0.03  -0.02
  12  15     0.05  -0.09  -0.06    -0.01  -0.01  -0.01     0.03   0.00   0.04
  13  16    -0.02   0.04  -0.01     0.00  -0.00   0.00    -0.01   0.01  -0.00
  14   8     0.04  -0.01   0.03     0.01  -0.00   0.01    -0.04   0.02  -0.02
  15   6    -0.03   0.02   0.04    -0.01   0.00   0.01     0.02  -0.01  -0.03
  16   6     0.00   0.01   0.01     0.00   0.00  -0.00    -0.00  -0.00  -0.01
  17   8    -0.01   0.01   0.02     0.01   0.02  -0.01    -0.01  -0.01   0.01
  18   6    -0.01   0.00  -0.01     0.00   0.00   0.01    -0.00  -0.00  -0.01
  19   6    -0.00  -0.00  -0.00     0.00   0.00   0.00    -0.00  -0.00  -0.00
  20   1     0.00  -0.02   0.01     0.00  -0.02   0.03    -0.01   0.03  -0.05
  21   1    -0.01  -0.02   0.00    -0.02  -0.05   0.00     0.05   0.08  -0.01
  22   1     0.03   0.03   0.02     0.05   0.05   0.04    -0.10  -0.09  -0.07
  23   1    -0.00   0.00   0.01     0.01  -0.00   0.04    -0.02   0.02  -0.09
  24   1    -0.03   0.02  -0.02    -0.08   0.05  -0.03     0.17  -0.08   0.05
  25   1    -0.00   0.01   0.00    -0.10   0.21   0.06    -0.02   0.05   0.01
  26   1     0.00   0.01   0.00    -0.06  -0.07   0.01    -0.01  -0.00   0.01
  27   1     0.00  -0.00  -0.01    -0.02  -0.05  -0.03    -0.01  -0.02  -0.01
  28   1    -0.00  -0.01   0.01     0.00  -0.11   0.15     0.00  -0.04   0.06
  29   1     0.00  -0.00  -0.00    -0.02  -0.00  -0.10    -0.01   0.00  -0.04
  30   1    -0.04  -0.18   0.01     0.00   0.02   0.01     0.01  -0.02   0.02
  31   1    -0.04  -0.13  -0.13     0.01   0.01   0.03     0.00  -0.03  -0.03
  32   1    -0.00   0.00   0.00    -0.00   0.00  -0.00    -0.00  -0.00   0.00
  33   1    -0.01   0.01   0.01    -0.00   0.00   0.00     0.02  -0.01  -0.00
  34   1    -0.00  -0.01  -0.01    -0.00   0.00  -0.00     0.01   0.00   0.01
  35   1     0.03   0.01   0.01     0.01  -0.00   0.00    -0.02  -0.00  -0.01
  36   1    -0.00  -0.00  -0.01     0.00  -0.00  -0.00    -0.00   0.00   0.01
  37   1    -0.00   0.00  -0.00    -0.00  -0.00  -0.00     0.00   0.00   0.00
  38   1     0.00  -0.00   0.00     0.00  -0.00   0.00    -0.00   0.00  -0.00
  39   1    -0.00  -0.00   0.00     0.00   0.00  -0.01    -0.00  -0.00   0.00
  40   1     0.00   0.00  -0.00    -0.00  -0.00  -0.00     0.00   0.00   0.00
  41   1     0.00  -0.00   0.00    -0.00  -0.00  -0.00     0.00   0.00   0.00
                     46                     47                     48
                        a                      a                      a 
 Frequencies --   764.6253               785.3915               804.4843
 Red. masses --    17.4010                19.8423                 5.8441
 Frc consts  --     0.0000                 0.0000                 0.0000
 IR Inten    --   165.1088               279.7997                 5.6999
 Raman Activ --     0.0000                 0.0000                 0.0000
 Depolar     --     0.0000                 0.0000                 0.0000
 Atom AN      X      Y      Z        X      Y      Z        X      Y      Z
   1   6     0.00  -0.01   0.00    -0.00   0.00  -0.00     0.00   0.00   0.00
   2   6     0.01  -0.01   0.02    -0.00   0.00  -0.01    -0.00  -0.00   0.01
   3   8    -0.04  -0.00   0.03     0.02   0.00  -0.01    -0.00   0.00   0.00
   4  15     0.04   0.00  -0.05    -0.01   0.01   0.03     0.01  -0.04  -0.02
   5  16    -0.01   0.01   0.02     0.00  -0.01  -0.01    -0.00   0.00   0.00
   6   8    -0.01   0.00   0.00    -0.00   0.00   0.00    -0.02   0.03   0.02
   7   6     0.00  -0.00  -0.00    -0.00  -0.01  -0.00     0.01  -0.02  -0.01
   8   6     0.00  -0.00  -0.00    -0.00  -0.00  -0.00     0.00  -0.00  -0.01
   9  16    -0.01   0.00   0.00     0.01   0.01   0.02    -0.10   0.10   0.05
  10   6     0.02   0.04  -0.02     0.01   0.00  -0.05     0.44  -0.30  -0.11
  11  16    -0.01  -0.03   0.02    -0.03   0.01   0.01    -0.10   0.11   0.03
  12  15    -0.41  -0.26  -0.23     0.08  -0.48   0.38     0.01  -0.02  -0.02
  13  16     0.01  -0.01   0.01    -0.09   0.18  -0.06     0.00  -0.00   0.00
  14   8     0.37  -0.12   0.17    -0.29   0.16  -0.16     0.00  -0.00   0.01
  15   6    -0.16   0.08   0.22     0.13  -0.05  -0.19    -0.00   0.00  -0.00
  16   6    -0.00   0.04   0.07     0.00  -0.04  -0.07     0.00   0.00   0.00
  17   8     0.19   0.33  -0.27     0.11   0.30  -0.28    -0.00  -0.00   0.03
  18   6     0.10   0.04   0.21     0.09   0.04   0.19    -0.02  -0.00  -0.02
  19   6     0.05   0.02   0.04     0.04   0.02   0.05    -0.01  -0.00  -0.00
  20   1     0.00   0.01  -0.00    -0.00  -0.00  -0.00    -0.00  -0.00  -0.01
  21   1     0.00   0.01  -0.00     0.00  -0.00   0.00     0.01   0.01   0.00
  22   1    -0.01  -0.01  -0.01     0.00   0.01   0.00    -0.00  -0.00  -0.00
  23   1    -0.00   0.00  -0.01    -0.00  -0.00   0.00    -0.00  -0.00  -0.01
  24   1     0.01  -0.01   0.01    -0.00   0.00  -0.00     0.01   0.00   0.00
  25   1     0.00  -0.00  -0.00     0.00  -0.01   0.00     0.00  -0.00  -0.00
  26   1    -0.00  -0.00   0.00     0.00   0.00  -0.00     0.00   0.00   0.00
  27   1    -0.00  -0.00   0.00     0.00   0.00  -0.00    -0.00   0.00   0.00
  28   1    -0.00   0.00  -0.00     0.00   0.00  -0.00    -0.00   0.00  -0.01
  29   1    -0.00   0.00  -0.00     0.00  -0.00   0.01    -0.00   0.00  -0.00
  30   1     0.00   0.01  -0.01    -0.00  -0.00  -0.02    -0.22   0.24  -0.47
  31   1    -0.00   0.01   0.00    -0.00  -0.00   0.00    -0.19  -0.08   0.53
  32   1     0.03   0.03  -0.04    -0.04  -0.03   0.04    -0.00  -0.00  -0.00
  33   1    -0.12   0.07   0.03     0.13  -0.06  -0.01     0.00   0.00   0.00
  34   1    -0.06  -0.05  -0.10     0.06   0.04   0.10     0.00  -0.00   0.00
  35   1     0.19   0.05   0.06    -0.17  -0.05  -0.05     0.00   0.00   0.00
  36   1     0.01  -0.02  -0.08    -0.02   0.01   0.07    -0.00  -0.00  -0.00
  37   1    -0.00  -0.03  -0.01     0.01  -0.02  -0.02     0.00   0.00  -0.01
  38   1     0.01  -0.04   0.08    -0.00  -0.05   0.07     0.00  -0.00   0.00
  39   1     0.11   0.10  -0.13     0.10   0.10  -0.12    -0.01  -0.01   0.01
  40   1    -0.07  -0.06  -0.03    -0.06  -0.05  -0.03     0.01   0.01  -0.00
  41   1    -0.09  -0.07  -0.01    -0.09  -0.07  -0.01     0.00  -0.00   0.00
                     49                     50                     51
                        a                      a                      a 
 Frequencies --   820.4157               821.2859               827.4045
 Red. masses --     2.7846                 2.9213                 2.1905
 Frc consts  --     0.0000                 0.0000                 0.0000
 IR Inten    --     1.2778                 1.9723                 3.9146
 Raman Activ --     0.0000                 0.0000                 0.0000
 Depolar     --     0.0000                 0.0000                 0.0000
 Atom AN      X      Y      Z        X      Y      Z        X      Y      Z
   1   6     0.02  -0.03  -0.03     0.06  -0.04  -0.07     0.00   0.00   0.00
   2   6     0.08  -0.04  -0.07     0.17  -0.08  -0.17    -0.00   0.00   0.00
   3   8    -0.07   0.02   0.05    -0.13   0.04   0.12     0.00   0.00  -0.00
   4  15    -0.02  -0.02  -0.05     0.07   0.03  -0.05    -0.00  -0.00   0.00
   5  16    -0.00   0.01   0.01    -0.01   0.01   0.01     0.00  -0.00  -0.00
   6   8     0.17  -0.01  -0.05    -0.08   0.00   0.01    -0.00   0.00   0.00
   7   6    -0.25   0.03   0.04     0.10  -0.01  -0.01     0.00   0.00  -0.00
   8   6    -0.10   0.00   0.03     0.04  -0.00  -0.01     0.00   0.00   0.00
   9  16    -0.01  -0.00   0.00     0.00   0.00   0.01    -0.00   0.00   0.00
  10   6     0.01  -0.00   0.00     0.00  -0.01  -0.01     0.01  -0.00  -0.00
  11  16    -0.00   0.00   0.00    -0.00   0.00  -0.00    -0.00   0.00   0.00
  12  15    -0.01   0.00  -0.01     0.01  -0.01   0.02    -0.01  -0.04   0.02
  13  16     0.00  -0.00   0.00    -0.00   0.00  -0.00    -0.00   0.01  -0.00
  14   8     0.02  -0.02   0.00    -0.03   0.04  -0.01    -0.00   0.01  -0.01
  15   6    -0.01   0.04  -0.01     0.01  -0.06   0.01     0.00  -0.01   0.01
  16   6    -0.00   0.02  -0.00     0.00  -0.03   0.00    -0.00  -0.01   0.00
  17   8    -0.00   0.00   0.00     0.00   0.00  -0.00    -0.05   0.10  -0.04
  18   6     0.00  -0.01  -0.00    -0.00  -0.00  -0.00     0.16  -0.20  -0.03
  19   6     0.00  -0.00  -0.00     0.00  -0.00   0.00     0.07  -0.09  -0.01
  20   1     0.07   0.13   0.11     0.15   0.29   0.24    -0.00  -0.01  -0.01
  21   1    -0.14  -0.09   0.00    -0.32  -0.20   0.00     0.01   0.00   0.00
  22   1    -0.05  -0.00   0.04    -0.11   0.00   0.10     0.00  -0.00  -0.00
  23   1     0.09   0.08   0.15     0.21   0.19   0.33    -0.00  -0.00  -0.01
  24   1    -0.18  -0.06  -0.01    -0.41  -0.12  -0.02     0.01   0.00   0.00
  25   1     0.24  -0.26   0.25    -0.10   0.11  -0.10    -0.00   0.00  -0.00
  26   1     0.14   0.33  -0.25    -0.06  -0.13   0.11    -0.00  -0.01   0.00
  27   1     0.12   0.18  -0.32    -0.05  -0.08   0.13    -0.00  -0.00   0.01
  28   1     0.14  -0.00   0.02    -0.05   0.00  -0.01    -0.00  -0.00   0.00
  29   1     0.18  -0.16   0.30    -0.07   0.07  -0.13    -0.00   0.00  -0.01
  30   1    -0.00   0.00  -0.01    -0.00   0.00  -0.01    -0.00   0.00  -0.01
  31   1    -0.00  -0.00   0.01    -0.00  -0.00   0.01    -0.00  -0.00   0.01
  32   1    -0.06  -0.03   0.01     0.09   0.05  -0.01     0.02   0.01  -0.00
  33   1     0.06  -0.02   0.02    -0.08   0.03  -0.04    -0.02   0.01  -0.01
  34   1     0.05  -0.01   0.03    -0.07   0.01  -0.05    -0.02   0.00  -0.01
  35   1     0.01  -0.02   0.02    -0.02   0.02  -0.02    -0.00   0.01  -0.01
  36   1    -0.05  -0.04  -0.02     0.08   0.06   0.02     0.02   0.01   0.01
  37   1    -0.01  -0.00   0.01    -0.00  -0.00   0.00    -0.30  -0.05   0.39
  38   1     0.00   0.01  -0.01    -0.00   0.00  -0.00     0.05   0.40  -0.28
  39   1    -0.00   0.00   0.00    -0.00   0.00   0.00    -0.07   0.14   0.02
  40   1    -0.01  -0.00   0.01    -0.00  -0.00   0.00    -0.36  -0.11   0.25
  41   1     0.00   0.01  -0.01     0.00   0.00  -0.00     0.14   0.36  -0.17
                     52                     53                     54
                        a                      a                      a 
 Frequencies --   828.5622               908.1423               920.0988
 Red. masses --     2.6919                13.1844                13.6660
 Frc consts  --     0.0000                 0.0000                 0.0000
 IR Inten    --     3.2463               357.4677               467.7287
 Raman Activ --     0.0000                 0.0000                 0.0000
 Depolar     --     0.0000                 0.0000                 0.0000
 Atom AN      X      Y      Z        X      Y      Z        X      Y      Z
   1   6     0.01  -0.01  -0.01    -0.02  -0.13   0.01    -0.02  -0.12   0.01
   2   6     0.03  -0.01  -0.03     0.12  -0.13   0.10     0.11  -0.10   0.08
   3   8    -0.02   0.01   0.02    -0.05   0.29  -0.15    -0.02   0.25  -0.14
   4  15     0.02   0.01  -0.00    -0.15  -0.16  -0.05    -0.02  -0.02   0.06
   5  16    -0.00  -0.00  -0.00    -0.01  -0.00  -0.00     0.00  -0.00  -0.00
   6   8    -0.05   0.00   0.01     0.12   0.44   0.46    -0.03  -0.05  -0.04
   7   6     0.06  -0.01  -0.01     0.07  -0.32  -0.13    -0.00   0.03   0.01
   8   6     0.02  -0.00  -0.01    -0.00  -0.05  -0.25     0.00   0.01   0.03
   9  16     0.00  -0.00   0.00     0.00  -0.02  -0.00     0.01  -0.00   0.01
  10   6    -0.00   0.00  -0.00    -0.01   0.02   0.02     0.01  -0.01  -0.01
  11  16     0.00  -0.00   0.01     0.01  -0.01  -0.00    -0.01   0.01   0.01
  12  15    -0.04   0.03  -0.05    -0.02  -0.00  -0.02     0.17   0.09   0.15
  13  16     0.01  -0.01   0.00     0.00  -0.00   0.00    -0.00   0.01  -0.00
  14   8     0.09  -0.14   0.02     0.00   0.02   0.06    -0.01  -0.20  -0.49
  15   6    -0.04   0.26  -0.07     0.02  -0.02  -0.02    -0.16   0.14   0.18
  16   6    -0.01   0.11  -0.02    -0.00  -0.01  -0.02     0.04   0.08   0.15
  17   8    -0.00  -0.00   0.01     0.03   0.02   0.02    -0.34  -0.22  -0.18
  18   6     0.01  -0.01  -0.00    -0.01  -0.00  -0.02     0.12   0.01   0.20
  19   6     0.00  -0.00  -0.00    -0.01  -0.01  -0.00     0.12   0.08   0.04
  20   1     0.02   0.04   0.04     0.00   0.04  -0.01     0.00   0.03  -0.02
  21   1    -0.05  -0.03   0.00     0.00   0.04  -0.01     0.00   0.04  -0.01
  22   1    -0.02  -0.00   0.01    -0.11  -0.11  -0.06    -0.11  -0.10  -0.06
  23   1     0.03   0.03   0.05     0.02   0.01  -0.00     0.02   0.01   0.00
  24   1    -0.06  -0.02  -0.00     0.04   0.04   0.01     0.03   0.04   0.01
  25   1    -0.06   0.06  -0.06     0.01  -0.03   0.11    -0.00   0.00  -0.02
  26   1    -0.03  -0.08   0.06     0.03  -0.02   0.03    -0.00   0.00  -0.00
  27   1    -0.03  -0.04   0.08     0.01   0.04   0.07    -0.00  -0.01  -0.01
  28   1    -0.03   0.00  -0.00    -0.02   0.18  -0.27     0.00  -0.02   0.03
  29   1    -0.04   0.04  -0.07    -0.00   0.03   0.09    -0.00  -0.00  -0.02
  30   1     0.00  -0.00   0.00     0.01  -0.01   0.02    -0.01   0.00  -0.01
  31   1     0.00   0.00  -0.00     0.01   0.01  -0.02    -0.01  -0.00   0.01
  32   1    -0.43  -0.21   0.05     0.00  -0.00   0.00    -0.01   0.03  -0.00
  33   1     0.40  -0.15   0.17     0.01   0.00   0.01    -0.06  -0.03  -0.06
  34   1     0.32  -0.05   0.22     0.00   0.01   0.01    -0.04  -0.03  -0.07
  35   1     0.06  -0.10   0.10    -0.02  -0.01  -0.01     0.20   0.07   0.08
  36   1    -0.34  -0.26  -0.10     0.00   0.00   0.01     0.01  -0.01  -0.05
  37   1    -0.02  -0.00   0.02    -0.00   0.00  -0.00    -0.00  -0.02   0.02
  38   1     0.00   0.02  -0.02     0.00   0.00  -0.00    -0.04  -0.03   0.02
  39   1    -0.00   0.01   0.00    -0.01  -0.01   0.01     0.12   0.11  -0.11
  40   1    -0.02  -0.00   0.01     0.00   0.00   0.00    -0.03  -0.03  -0.02
  41   1     0.01   0.02  -0.01     0.01   0.00   0.00    -0.06  -0.03  -0.01
                     55                     56                     57
                        a                      a                      a 
 Frequencies --   922.3257               947.5480              1032.7477
 Red. masses --    12.5631                12.5667                 8.3544
 Frc consts  --     0.0000                 0.0000                 0.0000
 IR Inten    --   130.1683               134.1317               160.1170
 Raman Activ --     0.0000                 0.0000                 0.0000
 Depolar     --     0.0000                 0.0000                 0.0000
 Atom AN      X      Y      Z        X      Y      Z        X      Y      Z
   1   6    -0.04  -0.25   0.03    -0.00  -0.01   0.00    -0.04  -0.13   0.01
   2   6     0.20  -0.19   0.16     0.01  -0.01   0.01     0.01   0.17  -0.03
   3   8    -0.03   0.49  -0.28    -0.00   0.02  -0.01     0.05  -0.06   0.03
   4  15     0.01   0.00   0.16     0.00   0.00   0.01     0.01  -0.00   0.01
   5  16     0.01  -0.00  -0.01     0.00   0.00   0.00     0.00   0.01   0.01
   6   8    -0.09  -0.23  -0.21    -0.01  -0.01  -0.01     0.03  -0.24  -0.16
   7   6    -0.03   0.15   0.05    -0.00   0.01  -0.00    -0.02   0.18   0.53
   8   6     0.00   0.03   0.14     0.00   0.00   0.01    -0.01  -0.06  -0.42
   9  16     0.01  -0.01   0.02    -0.00   0.00   0.00     0.00   0.00   0.00
  10   6    -0.00  -0.00  -0.02    -0.00  -0.02   0.01     0.01  -0.01  -0.00
  11  16    -0.00  -0.00  -0.00     0.01   0.01  -0.02    -0.00   0.00   0.00
  12  15    -0.07  -0.05  -0.06     0.01   0.13  -0.17    -0.00  -0.00  -0.00
  13  16     0.00  -0.00   0.00     0.01  -0.01   0.00    -0.00   0.00  -0.00
  14   8     0.00   0.08   0.19     0.08   0.18   0.46     0.01  -0.01  -0.01
  15   6     0.06  -0.05  -0.07     0.14  -0.10  -0.12     0.02   0.02   0.02
  16   6    -0.01  -0.03  -0.06    -0.04  -0.08  -0.16    -0.02  -0.02  -0.02
  17   8     0.16   0.11   0.09    -0.41  -0.28  -0.20    -0.00   0.00  -0.00
  18   6    -0.06  -0.01  -0.10     0.09  -0.02   0.23     0.00   0.00   0.00
  19   6    -0.06  -0.04  -0.02     0.21   0.13   0.07    -0.00  -0.00  -0.00
  20   1     0.01   0.07  -0.03     0.00   0.00  -0.00    -0.01   0.03  -0.02
  21   1     0.01   0.09  -0.01     0.00   0.00  -0.00    -0.01   0.03  -0.01
  22   1    -0.21  -0.21  -0.13    -0.01  -0.01  -0.01    -0.10  -0.09  -0.06
  23   1     0.04   0.01  -0.00     0.00   0.00   0.00     0.02   0.06   0.01
  24   1     0.06   0.08   0.02     0.00   0.00   0.00     0.01   0.07  -0.01
  25   1    -0.00   0.01  -0.07     0.00  -0.00  -0.00     0.01   0.03   0.19
  26   1    -0.01   0.01  -0.02    -0.00   0.00  -0.00    -0.02   0.02   0.22
  27   1    -0.01  -0.02  -0.04    -0.00  -0.00  -0.00     0.02   0.07   0.10
  28   1     0.00  -0.10   0.15     0.00  -0.01   0.01    -0.04   0.25  -0.38
  29   1    -0.00  -0.02  -0.06     0.00  -0.00  -0.00    -0.04   0.09   0.09
  30   1     0.00   0.01  -0.00    -0.01  -0.01  -0.01     0.01   0.02  -0.00
  31   1    -0.01  -0.01  -0.00    -0.00   0.00   0.01    -0.01  -0.02  -0.00
  32   1     0.01  -0.01   0.00     0.02  -0.01   0.01     0.00   0.01   0.01
  33   1     0.02   0.01   0.02     0.05   0.04   0.07     0.01   0.00   0.01
  34   1     0.01   0.02   0.03     0.03   0.04   0.07    -0.01   0.00  -0.00
  35   1    -0.08  -0.03  -0.03    -0.21  -0.07  -0.08    -0.03  -0.01  -0.01
  36   1    -0.00   0.00   0.02    -0.01   0.01   0.05    -0.01  -0.00   0.00
  37   1     0.00   0.01  -0.01    -0.05  -0.05   0.02     0.00   0.00   0.00
  38   1     0.02   0.02  -0.01    -0.08  -0.06   0.02     0.00   0.00   0.00
  39   1    -0.06  -0.06   0.06     0.20   0.19  -0.19    -0.00  -0.00   0.00
  40   1     0.02   0.02   0.01    -0.07  -0.05  -0.04     0.00   0.00   0.00
  41   1     0.03   0.02   0.01    -0.09  -0.04  -0.03     0.00   0.00   0.00
                     58                     59                     60
                        a                      a                      a 
 Frequencies --  1034.0002              1043.2892              1049.8766
 Red. masses --     8.2597                 8.8055                 9.5806
 Frc consts  --     0.0000                 0.0000                 0.0000
 IR Inten    --   138.7659               131.9665                87.7913
 Raman Activ --     0.0000                 0.0000                 0.0000
 Depolar     --     0.0000                 0.0000                 0.0000
 Atom AN      X      Y      Z        X      Y      Z        X      Y      Z
   1   6     0.00   0.01  -0.00     0.11   0.40  -0.01     0.01   0.02   0.00
   2   6     0.00  -0.02   0.00    -0.02  -0.57   0.09    -0.00  -0.02   0.00
   3   8    -0.00   0.01  -0.01    -0.14   0.24  -0.14    -0.00   0.01  -0.00
   4  15    -0.00   0.00   0.00     0.01   0.00  -0.01     0.00   0.00  -0.00
   5  16     0.00   0.00  -0.00    -0.00   0.01   0.01    -0.00  -0.00  -0.00
   6   8     0.00  -0.02  -0.02    -0.01  -0.09  -0.06     0.00   0.00   0.00
   7   6    -0.00   0.02   0.04    -0.01   0.05   0.18    -0.00  -0.00   0.00
   8   6    -0.00  -0.00  -0.03    -0.00   0.00  -0.13     0.00   0.00  -0.00
   9  16     0.00  -0.00  -0.00     0.01  -0.01   0.01     0.00  -0.00  -0.00
  10   6    -0.00  -0.00   0.00     0.00  -0.00  -0.00    -0.00   0.00  -0.00
  11  16     0.00  -0.00  -0.01    -0.00   0.00   0.00    -0.01  -0.00   0.01
  12  15     0.01   0.00   0.01    -0.00   0.00  -0.00     0.01   0.00   0.02
  13  16    -0.00   0.00  -0.00     0.00  -0.00   0.00     0.00  -0.00   0.00
  14   8    -0.14   0.14   0.18     0.01  -0.00   0.00     0.01  -0.08  -0.13
  15   6    -0.10  -0.30  -0.45     0.01   0.01   0.02     0.03   0.12   0.16
  16   6     0.18   0.22   0.33    -0.01  -0.01  -0.01    -0.06  -0.07  -0.09
  17   8     0.04   0.00   0.07    -0.01  -0.00  -0.01     0.21   0.06   0.26
  18   6    -0.15  -0.09  -0.05     0.02   0.01   0.01    -0.50  -0.29  -0.15
  19   6     0.12   0.08   0.01    -0.02  -0.01   0.00     0.35   0.24  -0.03
  20   1    -0.00  -0.01   0.00     0.01  -0.08   0.06     0.00  -0.00   0.00
  21   1     0.00  -0.00   0.00     0.05  -0.09   0.03     0.00  -0.00   0.00
  22   1     0.01   0.01   0.01     0.29   0.28   0.16     0.01   0.01   0.01
  23   1     0.00  -0.01   0.00    -0.04  -0.22  -0.02    -0.00  -0.01  -0.00
  24   1    -0.00  -0.00   0.00    -0.05  -0.20   0.02    -0.00  -0.01   0.00
  25   1     0.00   0.00   0.01     0.01  -0.00   0.05     0.00  -0.00   0.00
  26   1    -0.00   0.00   0.02    -0.01   0.01   0.07     0.00   0.00  -0.00
  27   1     0.00   0.01   0.01     0.00   0.02   0.01    -0.00  -0.00  -0.00
  28   1    -0.00   0.02  -0.03    -0.01   0.07  -0.10     0.00   0.00  -0.00
  29   1    -0.00   0.01   0.01    -0.01   0.03   0.00    -0.00   0.00  -0.00
[...]
  33   1     0.01   0.01  -0.01    -0.53  -0.58   0.55     0.02   0.02  -0.02
  34   1    -0.00  -0.00  -0.00     0.04   0.04  -0.04     0.00   0.00  -0.00
  35   1    -0.00   0.00   0.00     0.00  -0.01  -0.01     0.00  -0.00  -0.00
  36   1     0.00  -0.00   0.00    -0.01   0.00   0.00    -0.00   0.00  -0.00
  37   1     0.12  -0.20   0.05     0.00  -0.00   0.00     0.00  -0.00   0.00
  38   1    -0.45   0.45   0.69    -0.01   0.01   0.01    -0.00   0.00   0.00
  39   1    -0.01  -0.00  -0.01    -0.00  -0.00  -0.00    -0.00  -0.00  -0.00
  40   1    -0.00   0.00   0.00    -0.00   0.00   0.00     0.00  -0.00   0.00
  41   1     0.02  -0.02  -0.03     0.00  -0.00  -0.00    -0.00   0.00   0.00
                    103                    104                    105
                        a                      a                      a 
 Frequencies --  2972.3076              2974.0310              2985.3953
 Red. masses --     1.4723                 1.7192                 2.0566
 Frc consts  --     0.0000                 0.0000                 0.0000
 IR Inten    --     0.2777                 9.5086                 8.6890
 Raman Activ --     0.0000                 0.0000                 0.0000
 Depolar     --     0.0000                 0.0000                 0.0000
 Atom AN      X      Y      Z        X      Y      Z        X      Y      Z
   1   6     0.00  -0.00  -0.00    -0.00  -0.00  -0.00    -0.00   0.00  -0.00
   2   6    -0.00   0.00   0.00     0.00   0.00   0.00     0.00   0.00   0.00
   3   8     0.00  -0.00   0.00    -0.00  -0.00   0.00    -0.00  -0.00   0.00
   4  15    -0.00   0.00  -0.00     0.00   0.00   0.00     0.00   0.00   0.00
   5  16     0.00   0.00  -0.00    -0.00   0.00  -0.00     0.00  -0.00   0.00
   6   8     0.00   0.00   0.00    -0.00  -0.01  -0.01    -0.00   0.00   0.00
   7   6    -0.00   0.00  -0.00    -0.18  -0.17   0.05     0.00   0.00  -0.00
   8   6    -0.00  -0.00  -0.00     0.01   0.01   0.00    -0.00   0.00   0.00
   9  16    -0.00  -0.00  -0.00     0.00  -0.00   0.00    -0.00   0.00   0.00
  10   6    -0.03   0.08  -0.19    -0.00   0.00  -0.00    -0.26   0.14   0.08
  11  16     0.00   0.00  -0.00    -0.00   0.00  -0.00    -0.00   0.00   0.00
  12  15     0.00  -0.00  -0.00     0.00   0.00  -0.00     0.00  -0.00  -0.00
  13  16     0.00  -0.00  -0.00    -0.00  -0.00   0.00     0.00  -0.00  -0.00
  14   8    -0.00   0.00   0.00    -0.00   0.00   0.00    -0.00  -0.00  -0.00
  15   6     0.00   0.00  -0.00     0.00   0.00  -0.00     0.00   0.00  -0.00
  16   6     0.00   0.00  -0.00    -0.00   0.00  -0.00    -0.00  -0.00   0.00
  17   8    -0.00   0.00   0.00    -0.00  -0.00   0.00    -0.00   0.00   0.00
  18   6    -0.00  -0.00   0.00    -0.00  -0.00  -0.00     0.00  -0.00  -0.00
  19   6    -0.00   0.00  -0.00    -0.00  -0.00  -0.00    -0.00   0.00   0.00
  20   1    -0.00   0.00  -0.00     0.00  -0.00  -0.00     0.00  -0.00  -0.00
  21   1    -0.00   0.00   0.00    -0.00   0.00   0.00    -0.00   0.00   0.00
  22   1    -0.00   0.00  -0.00    -0.00   0.00  -0.00     0.00  -0.00   0.00
  23   1     0.00  -0.00  -0.00    -0.00   0.00   0.00    -0.00   0.00   0.00
  24   1     0.00  -0.00  -0.00     0.00  -0.00  -0.01    -0.00  -0.00  -0.00
  25   1    -0.01  -0.00   0.00     0.71   0.63  -0.15    -0.00  -0.00   0.00
  26   1     0.01  -0.00   0.00    -0.06  -0.00   0.00     0.00  -0.00   0.00
  27   1    -0.00   0.00  -0.00    -0.01   0.01  -0.00     0.00  -0.00  -0.00
  28   1    -0.00   0.00   0.00     0.00  -0.01  -0.01    -0.00  -0.00  -0.00
  29   1     0.00   0.00  -0.00    -0.05  -0.04   0.01     0.00   0.00  -0.00
  30   1    -0.44   0.15   0.40    -0.00   0.00   0.00     0.51  -0.16  -0.52
  31   1     0.56  -0.43   0.28     0.00  -0.00   0.00     0.42  -0.34   0.25
  32   1    -0.00   0.00  -0.00     0.00  -0.00  -0.00     0.00  -0.00   0.00
  33   1    -0.00  -0.00   0.00    -0.00  -0.00   0.00    -0.00  -0.00   0.00
  34   1    -0.00  -0.00   0.00     0.00   0.00  -0.00     0.00   0.00  -0.00
  35   1     0.00  -0.00  -0.00    -0.00   0.00   0.00     0.00  -0.00  -0.00
  36   1    -0.00   0.00  -0.00     0.00  -0.00   0.00    -0.00   0.00   0.00
  37   1    -0.00   0.00  -0.00     0.00  -0.00   0.00     0.00  -0.00   0.00
  38   1     0.00  -0.00  -0.00    -0.00   0.00   0.00    -0.00   0.00   0.00
  39   1     0.00   0.00   0.00     0.00   0.00   0.00    -0.00  -0.00  -0.00
  40   1     0.00  -0.00   0.00     0.00  -0.00   0.00     0.00  -0.00   0.00
  41   1    -0.00  -0.00  -0.00    -0.00  -0.00  -0.00     0.00  -0.00  -0.00
                    106                    107                    108
                        a                      a                      a 
 Frequencies --  3037.4841              3043.5738              3043.8302
 Red. masses --     1.8726                 1.6934                 1.5540
 Frc consts  --     0.0000                 0.0000                 0.0000
 IR Inten    --    38.9948                34.4537                16.3777
 Raman Activ --     0.0000                 0.0000                 0.0000
 Depolar     --     0.0000                 0.0000                 0.0000
 Atom AN      X      Y      Z        X      Y      Z        X      Y      Z
   1   6     0.09  -0.05  -0.26    -0.11   0.01  -0.01     0.18  -0.01   0.00
   2   6     0.01  -0.01  -0.03    -0.01  -0.00  -0.00     0.01   0.00  -0.00
   3   8     0.00   0.00  -0.00    -0.00   0.00   0.00    -0.00   0.00  -0.00
   4  15    -0.00  -0.00  -0.00     0.00   0.00  -0.00     0.00   0.00   0.00
   5  16     0.00   0.00  -0.00     0.00  -0.00  -0.00    -0.00  -0.00  -0.00
   6   8     0.00  -0.00  -0.00     0.00  -0.00  -0.00     0.00   0.00  -0.00
   7   6     0.00   0.00   0.00    -0.00   0.00  -0.00     0.00   0.00  -0.00
   8   6     0.00  -0.00  -0.00    -0.01   0.01  -0.00     0.00   0.01  -0.00
   9  16     0.00  -0.00  -0.00     0.00  -0.00   0.00    -0.00   0.00   0.00
  10   6     0.00  -0.00   0.00     0.00  -0.00  -0.00    -0.00  -0.00  -0.00
  11  16    -0.00   0.00  -0.00    -0.00  -0.00  -0.00     0.00   0.00   0.00
  12  15    -0.00   0.00   0.00    -0.00  -0.00  -0.00    -0.00  -0.00   0.00
  13  16     0.00  -0.00   0.00    -0.00  -0.00   0.00    -0.00   0.00  -0.00
  14   8     0.00  -0.00  -0.00     0.00   0.00   0.00     0.00   0.00  -0.00
  15   6    -0.00   0.00  -0.00    -0.01  -0.02   0.01    -0.01  -0.01   0.01
  16   6    -0.00   0.00  -0.00    -0.09  -0.16   0.13    -0.06  -0.09   0.07
  17   8     0.00   0.00  -0.00    -0.00  -0.00  -0.00    -0.00  -0.00  -0.00
  18   6     0.00  -0.00   0.00    -0.00  -0.00   0.00     0.00  -0.00   0.00
  19   6     0.00  -0.00  -0.00    -0.00   0.00   0.00     0.00  -0.00  -0.00
  20   1    -0.31   0.07   0.06     0.43  -0.10  -0.13    -0.73   0.16   0.22
  21   1    -0.02   0.09   0.90    -0.02   0.02   0.18     0.03  -0.03  -0.28
  22   1     0.01   0.01  -0.04    -0.03   0.06  -0.03     0.06  -0.10   0.05
  23   1    -0.02   0.00   0.01     0.02  -0.00  -0.01    -0.03   0.01   0.01
  24   1    -0.00   0.01   0.07    -0.00   0.00   0.01     0.00  -0.00  -0.01
  25   1    -0.00  -0.00   0.00    -0.00  -0.00   0.00    -0.00  -0.00   0.00
  26   1    -0.00   0.00  -0.00    -0.00  -0.00   0.00    -0.00   0.00   0.00
  27   1    -0.01   0.01  -0.00     0.03  -0.02   0.00     0.01  -0.01   0.00
  28   1     0.00   0.00   0.00    -0.00   0.00   0.00     0.00   0.00  -0.00
  29   1    -0.01  -0.00   0.00    -0.01  -0.01   0.00    -0.02  -0.02   0.00
  30   1     0.00  -0.00  -0.00    -0.00   0.00   0.00    -0.00   0.00   0.00
  31   1    -0.00   0.00  -0.00    -0.00   0.00  -0.00     0.00  -0.00   0.00
  32   1     0.00  -0.00   0.00    -0.01   0.01  -0.00    -0.00   0.00  -0.00
  33   1    -0.00  -0.00   0.00     0.03   0.03  -0.03     0.02   0.02  -0.02
  34   1    -0.01  -0.01   0.01     0.44   0.49  -0.48     0.27   0.29  -0.29
  35   1    -0.00   0.00   0.00    -0.02   0.00   0.05    -0.02   0.01   0.04
  36   1     0.01  -0.01   0.00    -0.08   0.07  -0.01    -0.03   0.02  -0.00
  37   1    -0.00   0.00  -0.00    -0.00   0.00  -0.00    -0.00   0.00  -0.00
  38   1    -0.00   0.00  -0.00     0.00  -0.00  -0.00     0.00  -0.00  -0.00
  39   1     0.00   0.00   0.00     0.00   0.00   0.00     0.00  -0.00   0.00
  40   1     0.00  -0.00   0.00    -0.00  -0.00   0.00    -0.01   0.01  -0.00
  41   1    -0.00   0.00   0.00     0.00  -0.00  -0.00    -0.01   0.01   0.01
                    109                    110                    111
                        a                      a                      a 
 Frequencies --  3046.8557              3051.7390              3052.3544
 Red. masses --     1.7350                 1.6096                 1.9041
 Frc consts  --     0.0000                 0.0000                 0.0000
 IR Inten    --    26.1592                20.6705                18.1069
 Raman Activ --     0.0000                 0.0000                 0.0000
 Depolar     --     0.0000                 0.0000                 0.0000
 Atom AN      X      Y      Z        X      Y      Z        X      Y      Z
   1   6     0.00   0.00  -0.00    -0.01   0.01  -0.00    -0.01   0.00   0.00
   2   6    -0.00  -0.00  -0.00    -0.00   0.00   0.00    -0.00   0.00   0.00
   3   8    -0.00   0.00  -0.00    -0.00   0.00   0.00    -0.00   0.00   0.00
   4  15    -0.00   0.00  -0.00     0.00  -0.00  -0.00     0.00   0.00  -0.00
   5  16     0.00  -0.00  -0.00     0.00  -0.00  -0.00     0.00  -0.00  -0.00
   6   8    -0.00  -0.00   0.00     0.00   0.00   0.00     0.00  -0.00  -0.00
   7   6    -0.02   0.01  -0.00     0.00   0.00   0.00     0.00   0.00   0.00
   8   6    -0.23   0.11  -0.03     0.03   0.01   0.01     0.01   0.00   0.00
   9  16    -0.00   0.00   0.00    -0.00   0.00  -0.00    -0.00   0.00  -0.00
  10   6     0.00  -0.00  -0.00     0.00  -0.00  -0.00    -0.00   0.00  -0.00
  11  16    -0.00   0.00   0.00     0.00   0.00  -0.00     0.00  -0.00  -0.00
  12  15     0.00   0.00   0.00     0.00   0.00   0.00     0.00  -0.00   0.00
  13  16    -0.00  -0.00  -0.00    -0.00   0.00  -0.00    -0.00  -0.00  -0.00
  14   8    -0.00  -0.00  -0.00     0.00   0.00  -0.00    -0.00  -0.00  -0.00
  15   6    -0.00   0.00  -0.00    -0.01   0.01  -0.01    -0.00   0.00  -0.00
  16   6    -0.01   0.02  -0.02    -0.14   0.15  -0.08    -0.03   0.04  -0.02
  17   8    -0.00  -0.00   0.00    -0.00  -0.00  -0.00    -0.00   0.00   0.00
  18   6     0.00  -0.00  -0.00    -0.00   0.00   0.00     0.01  -0.02  -0.01
  19   6     0.00  -0.00  -0.00    -0.04   0.05   0.03     0.16  -0.20  -0.11
  20   1    -0.01   0.00   0.00     0.02  -0.00  -0.01     0.03  -0.01  -0.01
  21   1    -0.00   0.00   0.01    -0.00   0.00  -0.00    -0.00   0.00   0.00
  22   1     0.00  -0.00   0.00     0.01  -0.03   0.01    -0.00   0.00  -0.00
  23   1     0.00  -0.00  -0.00     0.00  -0.00  -0.00     0.00  -0.00  -0.00
  24   1    -0.00   0.00   0.00    -0.00   0.00  -0.00    -0.00   0.00  -0.00
  25   1     0.01   0.01  -0.00    -0.01  -0.01   0.00    -0.00  -0.00   0.00
  26   1     0.04  -0.02   0.01    -0.01   0.00  -0.00    -0.00   0.00  -0.00
  27   1     0.82  -0.47   0.08    -0.08   0.05  -0.01    -0.03   0.02  -0.00
  28   1    -0.03   0.04   0.03     0.01  -0.04  -0.03     0.00  -0.02  -0.01
  29   1     0.02   0.05  -0.01    -0.04  -0.03   0.01    -0.01  -0.01   0.00
  30   1    -0.00   0.00   0.00    -0.00   0.00   0.00     0.00  -0.00  -0.00
  31   1     0.00  -0.00   0.00     0.00  -0.00   0.00     0.00  -0.00   0.00
  32   1     0.00  -0.00   0.00     0.02  -0.03   0.01     0.00  -0.01   0.00
  33   1    -0.00  -0.00   0.00    -0.00  -0.00   0.00    -0.00  -0.00   0.00
  34   1    -0.02  -0.01   0.01     0.05   0.09  -0.08     0.01   0.02  -0.02
  35   1    -0.01   0.02   0.02    -0.06   0.09   0.10    -0.02   0.02   0.03
  36   1     0.06  -0.09   0.03     0.51  -0.72   0.25     0.12  -0.17   0.06
  37   1    -0.00   0.00  -0.00     0.00  -0.00   0.00    -0.01   0.02  -0.01
  38   1    -0.00  -0.00   0.00     0.01  -0.01  -0.01    -0.02   0.02   0.03
  39   1     0.00   0.00   0.00     0.00   0.01   0.01     0.01  -0.03  -0.03
  40   1    -0.00   0.01  -0.00     0.04  -0.08   0.04    -0.19   0.34  -0.19
  41   1    -0.00   0.00   0.01     0.09  -0.10  -0.15    -0.38   0.39   0.61
                    112                    113                    114
                        a                      a                      a 
 Frequencies --  3055.1315              3058.1098              3059.4460
 Red. masses --     1.4330                 1.7227                 1.8023
 Frc consts  --     0.0000                 0.0000                 0.0000
 IR Inten    --    13.5638                23.3936                14.8322
 Raman Activ --     0.0000                 0.0000                 0.0000
 Depolar     --     0.0000                 0.0000                 0.0000
 Atom AN      X      Y      Z        X      Y      Z        X      Y      Z
   1   6    -0.00   0.00  -0.00     0.01  -0.01   0.00     0.10  -0.21   0.11
   2   6    -0.00   0.00  -0.00     0.00  -0.00  -0.00     0.01  -0.01   0.01
   3   8    -0.00   0.00  -0.00    -0.00  -0.00  -0.00    -0.00   0.00  -0.00
   4  15    -0.00  -0.00   0.00     0.00   0.00   0.00     0.00   0.00  -0.00
   5  16     0.00   0.00  -0.00    -0.00   0.00   0.00    -0.00  -0.00  -0.00
   6   8     0.00  -0.00  -0.00    -0.00  -0.00  -0.00    -0.00  -0.00   0.00
   7   6    -0.00  -0.00   0.00    -0.02  -0.02   0.00     0.00   0.00   0.00
   8   6    -0.00  -0.00   0.00    -0.18  -0.18   0.03    -0.00   0.05   0.04
   9  16     0.00   0.00   0.00     0.00  -0.00   0.00    -0.00   0.00   0.00
  10   6     0.00  -0.00   0.00     0.00  -0.00  -0.00    -0.00   0.00   0.00
  11  16     0.00   0.00  -0.00    -0.00  -0.00   0.00     0.00  -0.00   0.00
  12  15    -0.00  -0.00  -0.00    -0.00   0.00  -0.00    -0.00  -0.00   0.00
  13  16     0.00   0.00  -0.00     0.00  -0.00   0.00     0.00   0.00  -0.00
  14   8    -0.00  -0.00   0.00     0.00   0.00   0.00     0.00   0.00   0.00
  15   6     0.00   0.00  -0.00    -0.00   0.00  -0.00    -0.00  -0.00  -0.00
  16   6    -0.00   0.00  -0.00    -0.01  -0.00  -0.00    -0.00  -0.00  -0.01
  17   8     0.00   0.00   0.00     0.00   0.00   0.00     0.00   0.00  -0.00
  18   6    -0.00   0.01  -0.01    -0.00  -0.00  -0.00    -0.00   0.00   0.00
  19   6    -0.02   0.13  -0.14    -0.00  -0.00  -0.00    -0.00   0.00  -0.00
  20   1     0.00  -0.00  -0.00    -0.02   0.00   0.01    -0.10  -0.00   0.05
  21   1    -0.00   0.00  -0.00     0.00  -0.00  -0.00     0.02  -0.03  -0.04
  22   1     0.00  -0.01   0.01    -0.01   0.02  -0.01    -0.29   0.78  -0.41
  23   1     0.00  -0.00  -0.00    -0.01   0.00   0.00    -0.01   0.00   0.00
  24   1    -0.00   0.00   0.00     0.00  -0.00   0.00     0.00  -0.00  -0.02
  25   1     0.00   0.00  -0.00     0.05   0.04  -0.01    -0.00  -0.00   0.00
  26   1     0.00  -0.00   0.00     0.00  -0.00   0.00     0.00  -0.00   0.00
  27   1     0.00  -0.00   0.00    -0.08   0.01  -0.01     0.01   0.00   0.01
  28   1    -0.00  -0.00  -0.00    -0.03   0.03   0.05     0.01  -0.18  -0.16
  29   1     0.01   0.01  -0.00     0.73   0.60  -0.15    -0.01  -0.00   0.01
  30   1     0.00  -0.00  -0.00     0.00  -0.00  -0.00     0.00  -0.00  -0.00
  31   1    -0.00   0.00  -0.00    -0.00   0.00  -0.00     0.00  -0.00   0.00
  32   1    -0.00   0.00  -0.00     0.00  -0.00   0.00     0.00  -0.00   0.00
  33   1    -0.00  -0.00   0.00    -0.00  -0.00   0.00     0.00   0.00  -0.00
  34   1     0.00   0.00  -0.00     0.02   0.02  -0.02     0.00   0.00  -0.00
  35   1    -0.00   0.00   0.00    -0.01   0.02   0.03    -0.01   0.02   0.03
  36   1     0.01  -0.01   0.00     0.02  -0.04   0.01     0.01  -0.01   0.00
  37   1     0.01  -0.03   0.01    -0.00   0.00  -0.00     0.00  -0.00   0.00
  38   1    -0.01   0.01   0.01    -0.00  -0.00  -0.00     0.00  -0.00  -0.00
  39   1    -0.10  -0.03  -0.12     0.01   0.01   0.01    -0.00  -0.00  -0.00
  40   1     0.40  -0.69   0.31    -0.01   0.01  -0.00     0.01  -0.01   0.01
  41   1    -0.22   0.24   0.32     0.00  -0.00  -0.01     0.00   0.00  -0.00
                    115                    116                    117
                        a                      a                      a 
 Frequencies --  3059.7516              3061.5877              3062.6575
 Red. masses --     1.7089                 1.8196                 1.8163
 Frc consts  --     0.0000                 0.0000                 0.0000
 IR Inten    --     8.6392                13.0618                11.0545
 Raman Activ --     0.0000                 0.0000                 0.0000
 Depolar     --     0.0000                 0.0000                 0.0000
 Atom AN      X      Y      Z        X      Y      Z        X      Y      Z
   1   6    -0.03   0.05  -0.03    -0.00   0.00  -0.00     0.00  -0.00   0.00
   2   6    -0.00   0.00  -0.00    -0.00   0.00   0.00     0.00   0.00   0.00
   3   8     0.00   0.00  -0.00     0.00  -0.00  -0.00    -0.00   0.00   0.00
   4  15    -0.00  -0.00   0.00    -0.00  -0.00   0.00     0.00  -0.00   0.00
   5  16     0.00  -0.00   0.00     0.00   0.00  -0.00     0.00  -0.00  -0.00
   6   8     0.00  -0.00   0.00    -0.00   0.00   0.00    -0.00  -0.00   0.00
   7   6    -0.00   0.01   0.00     0.00   0.00  -0.00     0.00   0.00  -0.00
   8   6    -0.03   0.17   0.17     0.01  -0.01  -0.01     0.00   0.00   0.00
   9  16     0.00   0.00   0.00     0.00  -0.00  -0.00    -0.00   0.00  -0.00
  10   6     0.00  -0.00  -0.00    -0.00   0.00   0.00    -0.00   0.00   0.00
  11  16    -0.00   0.00   0.00    -0.00   0.00   0.00    -0.00  -0.00   0.00
  12  15     0.00  -0.00  -0.00     0.00  -0.00   0.00     0.00   0.00  -0.00
  13  16     0.00  -0.00   0.00    -0.00   0.00   0.00     0.00  -0.00   0.00
  14   8    -0.00   0.00   0.00    -0.00   0.00   0.00    -0.00  -0.00  -0.00
  15   6     0.00  -0.00   0.00     0.01  -0.00  -0.01     0.00   0.00   0.00
  16   6     0.01  -0.02  -0.00     0.10  -0.14  -0.21    -0.00   0.00   0.00
  17   8     0.00   0.00  -0.00    -0.00  -0.00  -0.00     0.00  -0.00   0.00
  18   6    -0.00   0.00   0.00    -0.00   0.00  -0.00    -0.00  -0.00  -0.01
  19   6    -0.00   0.00   0.00    -0.00   0.00  -0.00    -0.17  -0.06  -0.20
  20   1     0.02   0.00  -0.01     0.01  -0.00  -0.00     0.00  -0.00   0.00
  21   1    -0.00   0.01   0.01    -0.00   0.00   0.00     0.00  -0.00  -0.00
  22   1     0.07  -0.20   0.10     0.00  -0.01   0.01    -0.00   0.00  -0.00
  23   1     0.00  -0.00  -0.00     0.00  -0.00  -0.00    -0.00  -0.00   0.00
  24   1    -0.00   0.00   0.01    -0.00  -0.00  -0.00    -0.00  -0.00  -0.00
  25   1    -0.01  -0.01   0.00    -0.00  -0.00   0.00    -0.00  -0.00   0.00
  26   1     0.01  -0.00   0.00    -0.00  -0.00  -0.00    -0.00   0.00  -0.00
  27   1     0.03   0.00   0.02    -0.01   0.00  -0.00    -0.00   0.00   0.00
  28   1     0.03  -0.69  -0.63    -0.00   0.03   0.03     0.00  -0.01  -0.01
  29   1     0.06   0.08   0.01    -0.02  -0.02   0.00    -0.01  -0.01   0.00
  30   1    -0.00   0.00   0.00     0.00  -0.00  -0.00     0.00  -0.00  -0.00
  31   1    -0.00   0.00  -0.00     0.00  -0.00   0.00     0.00  -0.00  -0.00
  32   1    -0.00   0.00  -0.00    -0.01   0.01  -0.00    -0.00   0.00  -0.00
  33   1    -0.00  -0.00   0.00    -0.01  -0.01   0.01    -0.00  -0.00   0.00
  34   1    -0.00  -0.01   0.00    -0.03  -0.06   0.02    -0.00  -0.00   0.00
  35   1    -0.01   0.02   0.03    -0.28   0.48   0.77     0.00  -0.01  -0.01
  36   1    -0.03   0.04  -0.02    -0.06   0.09  -0.06    -0.00   0.00   0.00
  37   1    -0.00   0.00  -0.00     0.00  -0.00   0.00     0.01  -0.01   0.00
  38   1     0.00  -0.00  -0.00     0.00  -0.00  -0.00    -0.01   0.01   0.01
  39   1    -0.00  -0.00  -0.00     0.01   0.00   0.01     0.63   0.27   0.66
  40   1    -0.00   0.00  -0.00     0.00  -0.00   0.00     0.03  -0.10   0.02
  41   1     0.01  -0.01  -0.01     0.00  -0.00  -0.00    -0.06   0.04   0.04
