      -----------------------------------------------------------      
     |                   =====================                   |     
     |                           x T B                           |     
     |                   =====================                   |     
     |                         S. Grimme                         |     
     |          Mulliken Center for Theoretical Chemistry        |     
     |                    University of Bonn                     |     
      -----------------------------------------------------------      

   * xtb version 6.7.1 (edcfbbe) compiled by 'albert@albert-system' on 2024-07-22

   xtb is free software: you can redistribute it and/or modify it under
   the terms of the GNU Lesser General Public License as published by
   the Free Software Foundation, either version 3 of the License, or
   (at your option) any later version.
   
   xtb is distributed in the hope that it will be useful,
   but WITHOUT ANY WARRANTY; without even the implied warranty of
   MERCHANTABILITY or FITNESS FOR A PARTICULAR PURPOSE.  See the
   GNU Lesser General Public License for more details.
   
   Cite this work as:
   * C. Bannwarth, E. Caldeweyher, S. Ehlert, A. Hansen, P. Pracht,
     J. Seibert, S. Spicher, S. Grimme, WIREs Comput. Mol. Sci., 2020, 11,
     e01493. DOI: 10.1002/wcms.1493
   
   for GFN2-xTB:
   * C. Bannwarth, S. Ehlert and S. Grimme., J. Chem. Theory Comput., 2019,
     15, 1652-1671. DOI: 10.1021/acs.jctc.8b01176
   for GFN1-xTB:
   * S. Grimme, C. Bannwarth, P. Shushkov, J. Chem. Theory Comput., 2017,
     13, 1989-2009. DOI: 10.1021/acs.jctc.7b00118
   for GFN0-xTB:
   * P. Pracht, E. Caldeweyher, S. Ehlert, S. Grimme, ChemRxiv, 2019, preprint.
     DOI: 10.26434/chemrxiv.8326202.v1
   for GFN-FF:
   * S. Spicher and S. Grimme, Angew. Chem. Int. Ed., 2020, 59, 15665-15673.
     DOI: 10.1002/anie.202004239
   
   for ALPB and GBSA implicit solvation:
   * S. Ehlert, M. Stahn, S. Spicher, S. Grimme, J. Chem. Theory Comput.,
     2021, 17, 4250-4261. DOI: 10.1021/acs.jctc.1c00471
   
   for ddCOSMO and CPCM-X implicit solvation:
   * M. Stahn, S. Ehlert, S. Grimme, J. Phys. Chem. A,
     2023, XX, XXXX-XXXX. DOI: 10.1021/acs.jpca.3c04382
   
   for DFT-D4:
   * E. Caldeweyher, C. Bannwarth and S. Grimme, J. Chem. Phys., 2017,
     147, 034112. DOI: 10.1063/1.4993215
   * E. Caldeweyher, S. Ehlert, A. Hansen, H. Neugebauer, S. Spicher,
     C. Bannwarth and S. Grimme, J. Chem. Phys., 2019, 150, 154122.
     DOI: 10.1063/1.5090222
   * E. Caldeweyher, J.-M. Mewes, S. Ehlert and S. Grimme, Phys. Chem. Chem. Phys.
     2020, 22, 8499-8512. DOI: 10.1039/D0CP00502A
   
   for sTDA-xTB:
   * S. Grimme and C. Bannwarth, J. Chem. Phys., 2016, 145, 054103.
     DOI: 10.1063/1.4959605
   
   in the mass-spec context:
   * V. Asgeirsson, C. Bauer and S. Grimme, Chem. Sci., 2017, 8, 4879.
     DOI: 10.1039/c7sc00601b
   * J. Koopman and S. Grimme, ACS Omega 2019, 4, 12, 15120-15133.
     DOI: 10.1021/acsomega.9b02011
   
   for metadynamics refer to:
   * S. Grimme, J. Chem. Theory Comput., 2019, 155, 2847-2862
     DOI: 10.1021/acs.jctc.9b00143
   
   for SPH calculations refer to:
   * S. Spicher and S. Grimme, J. Chem. Theory Comput., 2021, 17, 1701-1714
     DOI: 10.1021/acs.jctc.0c01306
   
   for ONIOM refer to:
   * C. Plett, A. Katbashev, S. Ehlert, S. Grimme, M. Bursch,
     Phys. Chem. Chem. Phys., 2023, 25, 17860-17868. DOI: 10.1039/D3CP02178E
   
   for DIPRO refer to:
   * J. Kohn, N. Gildemeister, S. Grimme, D. Fazzi, A. Hansen,
     J. Chem. Phys., 2023, just accepted.
   
   for PTB refer to:
   * S. Grimme, M. Mueller, A. Hansen, J. Chem. Phys., 2023, 158, 124111.
     DOI: 10.1063/5.0137838
   
   with help from (in alphabetical order)
   P. Atkinson, C. Bannwarth, F. Bohle, G. Brandenburg, E. Caldeweyher
   M. Checinski, S. Dohm, S. Ehlert, S. Ehrlich, I. Gerasimov, C. Hölzer
   A. Katbashev, J. Kohn, J. Koopman, C. Lavigne, S. Lehtola, F. März, M. Müller,
   F. Musil, H. Neugebauer, J. Pisarek, C. Plett, P. Pracht, F. Pultar,
   J. Seibert, P. Shushkov, S. Spicher, M. Stahn, M. Steiner, T. Strunk,
   J. Stückrath, T. Rose, and J. Unsleber
   
 * started run on 2025/04/09 at 13:59:14.438     
   ID    Z sym.   atoms
    1    6 C      1, 2, 7, 8, 10, 15, 16, 18, 19
    2    8 O      3, 6, 14, 17
    3   15 P      4, 12
    4   16 S      5, 9, 11, 13
    5    1 H      20-41

           -------------------------------------------------
          |                Calculation Setup                |
           -------------------------------------------------

          program call               : /srv/scratch/z5358697/.xtb/bin/xtb xtb_rrho.coord --gfn2 --bhess vtight --chrg 0 --enso --norestart -I rrho-xcontrol-inp --parallel 1 --alpb water
          hostname                   : k163
          coordinate file            : xtb_rrho.coord
          omp threads                :                     1


           -------------------------------------------------
          |                 G F N 2 - x T B                 |
           -------------------------------------------------

        Reference                      10.1021/acs.jctc.8b01176
      * Hamiltonian:
        H0-scaling (s, p, d)           1.850000    2.230000    2.230000
        zeta-weighting                 0.500000
      * Dispersion:
        s8                             2.700000
        a1                             0.520000
        a2                             5.000000
        s9                             5.000000
      * Repulsion:
        kExp                           1.500000    1.000000
        rExp                           1.000000
      * Coulomb:
        alpha                          2.000000
        third order                    shell-resolved
        anisotropic                    true
        a3                             3.000000
        a5                             4.000000
        cn-shift                       1.200000
        cn-exp                         4.000000
        max-rad                        5.000000

      * Solvation model:               ALPB
        Solvent                        water
        Parameter file                 internal GFN2-xTB/ALPB
        Dielectric constant                8.0200E+01
        Reference state                gsolv [1 M gas/solution]
        Free energy shift                  1.0808E-03 Eh       6.7819E-01 kcal/mol
        Temperature                        2.9815E+02 K
        Density                            1.0000E+00 kg/L
        Solvent mass                       1.8000E+01 g/mol
        Interaction kernel             P16
        Born radius scaling (c1)           1.4744E+00
        Born radii integrator          GBOBC
        Born offset                        0.0000E+00 a0       0.0000E+00 AA
        H-bond correction              true
        Ion screening                  false
        Surface tension                    1.0000E-05 Eh       1.5569E+01 dyn/cm
        Grid points                               974 per atom

          ...................................................
          :                      SETUP                      :
          :.................................................:
          :  # basis functions                 134          :
          :  # atomic orbitals                 128          :
          :  # shells                           66          :
          :  # electrons                       116          :
          :  max. iterations                   250          :
          :  Hamiltonian                  GFN2-xTB          :
          :  restarted?                      false          :
          :  GBSA solvation                   true          :
          :  PC potential                    false          :
          :  electronic temp.          300.0000000     K    :
          :  accuracy                    1.0000000          :
          :  -> integral cutoff          0.2500000E+02      :
          :  -> integral neglect         0.1000000E-07      :
          :  -> SCF convergence          0.1000000E-05 Eh   :
          :  -> wf. convergence          0.1000000E-03 e    :
          :  Broyden damping             0.4000000          :
          :  net charge                          0          :
          :  unpaired electrons                  0          :
          ...................................................

 iter      E             dE          RMSdq      gap      omega  full diag
   1    -65.4073424 -0.654073E+02  0.634E+00    4.19       0.0  T
   2    -65.5325472 -0.125205E+00  0.356E+00    3.58       1.0  T
   3    -65.5522191 -0.196719E-01  0.106E+00    3.09       1.0  T
   4    -65.5551076 -0.288853E-02  0.495E-01    3.02       1.0  T
   5    -65.5557709 -0.663248E-03  0.249E-01    3.08       1.0  T
   6    -65.5559610 -0.190137E-03  0.118E-01    3.07       1.0  T
   7    -65.5560088 -0.478079E-04  0.396E-02    3.09       1.0  T
   8    -65.5560123 -0.345832E-05  0.174E-02    3.09       1.0  T
   9    -65.5560131 -0.865007E-06  0.505E-03    3.09       3.1  T
  10    -65.5560132 -0.324742E-07  0.273E-03    3.09       5.7  T
  11    -65.5560132 -0.393135E-07  0.833E-04    3.09      18.8  T
  12    -65.5560132 -0.129110E-08  0.390E-04    3.09      40.0  T

   *** convergence criteria satisfied after 12 iterations ***

         #    Occupation            Energy/Eh            Energy/eV
      -------------------------------------------------------------
         1        2.0000           -0.7608674             -20.7043
       ...           ...                  ...                  ...
        52        2.0000           -0.4464015             -12.1472
        53        2.0000           -0.4199985             -11.4287
        54        2.0000           -0.4147460             -11.2858
        55        2.0000           -0.3965211             -10.7899
        56        2.0000           -0.3950427             -10.7497
        57        2.0000           -0.3939149             -10.7190
        58        2.0000           -0.3911136             -10.6427 (HOMO)
        59                         -0.2776583              -7.5555 (LUMO)
        60                         -0.2483060              -6.7568
        61                         -0.2213604              -6.0235
        62                         -0.1975240              -5.3749
        63                         -0.1907663              -5.1910
       ...                                ...                  ...
       128                          1.2701545              34.5627
      -------------------------------------------------------------
                  HL-Gap            0.1134553 Eh            3.0873 eV
             Fermi-level           -0.3343859 Eh           -9.0991 eV

 SCC (total)                   0 d,  0 h,  0 min,  0.076 sec
 SCC setup                      ...        0 min,  0.002 sec (  2.855%)
 Dispersion                     ...        0 min,  0.000 sec (  0.356%)
 classical contributions        ...        0 min,  0.000 sec (  0.066%)
 integral evaluation            ...        0 min,  0.033 sec ( 43.163%)
 iterations                     ...        0 min,  0.022 sec ( 28.469%)
 molecular gradient             ...        0 min,  0.019 sec ( 24.812%)
 printout                       ...        0 min,  0.000 sec (  0.264%)

         :::::::::::::::::::::::::::::::::::::::::::::::::::::
         ::                     SUMMARY                     ::
         :::::::::::::::::::::::::::::::::::::::::::::::::::::
         :: total energy             -65.015794583608 Eh    ::
         :: total w/o Gsasa/hb       -65.018014038510 Eh    ::
         :: gradient norm              0.050121761599 Eh/a0 ::
         :: HOMO-LUMO gap              3.087275827786 eV    ::
         ::.................................................::
         :: SCC energy               -65.554490787612 Eh    ::
         :: -> isotropic ES            0.128036270713 Eh    ::
         :: -> anisotropic ES         -0.012803200644 Eh    ::
         :: -> anisotropic XC          0.031124058948 Eh    ::
         :: -> dispersion             -0.051912548591 Eh    ::
         :: -> Gsolv                  -0.022382774899 Eh    ::
         ::    -> Gelec               -0.024602229801 Eh    ::
         ::    -> Gsasa                0.004944805855 Eh    ::
         ::    -> Ghb                 -0.003806110651 Eh    ::
         ::    -> Gshift               0.001080759698 Eh    ::
         :: repulsion energy           0.538696204004 Eh    ::
         :: add. restraining           0.000000000000 Eh    ::
         :: total charge              -0.000000000000 e     ::
         :::::::::::::::::::::::::::::::::::::::::::::::::::::

metadynamics with 1 initial structures loaded
           -------------------------------------------------
          |           Optimal kpush determination           |
           -------------------------------------------------
      ----------------------------------------------------------- 
     |                   =====================                   |
     |                        A N C O P T                        |
     |                   =====================                   |
     |               Approximate Normal Coordinate               |
     |                Rational Function Optimizer                |
      ----------------------------------------------------------- 
target rmsd / Å         0.100000
unbiased initial rmsd   0.224342
 
iter. min.        max.        rmsd       kpush
      ----------------------------------------------------------- 
     |                   =====================                   |
     |                        A N C O P T                        |
     |                   =====================                   |
     |               Approximate Normal Coordinate               |
     |                Rational Function Optimizer                |
      ----------------------------------------------------------- 
 1    0.000000    1.863636    0.016579   -0.931818
      ----------------------------------------------------------- 
     |                   =====================                   |
     |                        A N C O P T                        |
     |                   =====================                   |
     |               Approximate Normal Coordinate               |
     |                Rational Function Optimizer                |
      ----------------------------------------------------------- 
 2    0.000000    0.931818    0.024092   -0.465909
      ----------------------------------------------------------- 
     |                   =====================                   |
     |                        A N C O P T                        |
     |                   =====================                   |
     |               Approximate Normal Coordinate               |
     |                Rational Function Optimizer                |
      ----------------------------------------------------------- 
 3    0.000000    0.465909    0.035298   -0.232955
      ----------------------------------------------------------- 
     |                   =====================                   |
     |                        A N C O P T                        |
     |                   =====================                   |
     |               Approximate Normal Coordinate               |
     |                Rational Function Optimizer                |
      ----------------------------------------------------------- 
 4    0.000000    0.232955    0.050772   -0.116477
      ----------------------------------------------------------- 
     |                   =====================                   |
     |                        A N C O P T                        |
     |                   =====================                   |
     |               Approximate Normal Coordinate               |
     |                Rational Function Optimizer                |
      ----------------------------------------------------------- 
 5    0.000000    0.116477    0.069222   -0.058239
      ----------------------------------------------------------- 
     |                   =====================                   |
     |                        A N C O P T                        |
     |                   =====================                   |
     |               Approximate Normal Coordinate               |
     |                Rational Function Optimizer                |
      ----------------------------------------------------------- 
 6    0.000000    0.058239    0.089184   -0.029119
      ----------------------------------------------------------- 
     |                   =====================                   |
     |                        A N C O P T                        |
     |                   =====================                   |
     |               Approximate Normal Coordinate               |
     |                Rational Function Optimizer                |
      ----------------------------------------------------------- 
 7    0.000000    0.029119    0.110761   -0.014560
      ----------------------------------------------------------- 
     |                   =====================                   |
     |                        A N C O P T                        |
     |                   =====================                   |
     |               Approximate Normal Coordinate               |
     |                Rational Function Optimizer                |
      ----------------------------------------------------------- 
 8    0.014560    0.029119    0.097709   -0.021839
      ----------------------------------------------------------- 
     |                   =====================                   |
     |                        A N C O P T                        |
     |                   =====================                   |
     |               Approximate Normal Coordinate               |
     |                Rational Function Optimizer                |
      ----------------------------------------------------------- 
 9    0.014560    0.021839    0.103644   -0.018200
      ----------------------------------------------------------- 
     |                   =====================                   |
     |                        A N C O P T                        |
     |                   =====================                   |
     |               Approximate Normal Coordinate               |
     |                Rational Function Optimizer                |
      ----------------------------------------------------------- 
10    0.018200    0.021839    0.100467   -0.020020
final kpush: -0.020020
           -------------------------------------------------
          |            Biased Numerical Hessian             |
           -------------------------------------------------
kpush                :  -0.02002
alpha                :   1.00000
step length          :   0.00500
SCC accuracy         :   0.30000
Hessian scale factor :   1.00000
frozen atoms in %    :   0.00000    0
RMS gradient         :   0.00007
estimated CPU  time      0.16 min
estimated wall time      0.16 min

writing file <hessian>.

 projected vibrational frequencies (cm⁻¹)
eigval :       -0.00    -0.00     0.00     0.00     0.00     0.00
eigval :       48.54    52.09    49.82    57.86    60.89    72.95
eigval :       62.36    66.26    67.44    60.85    74.37    96.37
eigval :      100.26   100.56   119.42   109.61   148.20   137.54
eigval :      162.02   188.48   198.49   202.97   224.75   229.84
eigval :      205.34   225.79   245.24   262.15   276.82   291.74
eigval :      317.29   334.64   345.17   370.19   401.59   403.41
eigval :      448.52   471.85   483.02   628.85   640.04   670.22
eigval :      700.37   727.93   752.56   764.63   785.39   804.48
eigval :      820.42   821.29   827.40   828.56   908.14   920.10
eigval :      922.33   947.55  1032.75  1034.00  1043.29  1049.88
eigval :     1081.96  1091.89  1095.67  1098.45  1101.47  1128.55
eigval :     1131.72  1133.18  1135.51  1164.26  1234.66  1237.36
eigval :     1238.10  1246.30  1302.34  1310.20  1312.35  1315.04
eigval :     1354.19  1388.41  1391.22  1391.61  1396.89  1439.35
eigval :     1441.94  1447.57  1454.86  1456.04  1458.46  1460.57
eigval :     1462.50  1473.82  1476.05  1484.03  1484.32  2915.70
eigval :     2920.69  2926.52  2936.24  2943.76  2954.36  2959.12
eigval :     2972.31  2974.03  2985.40  3037.48  3043.57  3043.83
eigval :     3046.86  3051.74  3052.35  3055.13  3058.11  3059.45
eigval :     3059.75  3061.59  3062.66
           -------------------------------------------------
          |                Property Printout                |
           -------------------------------------------------

    * Orbital Energies and Occupations

         #    Occupation            Energy/Eh            Energy/eV
      -------------------------------------------------------------
         1        2.0000           -0.7659080             -20.8414
       ...           ...                  ...                  ...
        46        2.0000           -0.4686500             -12.7526
        47        2.0000           -0.4644621             -12.6387
        48        2.0000           -0.4590814             -12.4922
        49        2.0000           -0.4542485             -12.3607
        50        2.0000           -0.4520426             -12.3007
        51        2.0000           -0.4497610             -12.2386
        52        2.0000           -0.4460755             -12.1383
        53        2.0000           -0.4219265             -11.4812
        54        2.0000           -0.4136902             -11.2571
        55        2.0000           -0.3973313             -10.8119
        56        2.0000           -0.3947199             -10.7409
        57        2.0000           -0.3921447             -10.6708
        58        2.0000           -0.3912490             -10.6464 (HOMO)
        59                         -0.2797241              -7.6117 (LUMO)
        60                         -0.2542095              -6.9174
        61                         -0.2140599              -5.8249
        62                         -0.1928178              -5.2468
        63                         -0.1854756              -5.0470
        64                         -0.1746441              -4.7523
        65                         -0.1658273              -4.5124
        66                         -0.1528495              -4.1592
        67                         -0.1396471              -3.8000
        68                         -0.1281402              -3.4869
        69                         -0.0520077              -1.4152
       ...                                ...                  ...
       128                          1.2925363              35.1717
      -------------------------------------------------------------
                  HL-Gap            0.1115249 Eh            3.0347 eV
             Fermi-level           -0.3354866 Eh           -9.1291 eV

     #   Z          covCN         q      C6AA      α(0)
     1   6 C        3.751    -0.124    22.942     6.831
     2   6 C        3.859     0.087    19.097     6.215
     3   8 O        1.655    -0.269    18.475     5.802
     4  15 P        3.834     0.390   144.065    21.561
     5  16 S        0.926    -0.449   158.930    21.323
     6   8 O        1.654    -0.275    18.577     5.818
     7   6 C        3.828     0.075    19.314     6.253
     8   6 C        3.751    -0.132    23.096     6.854
     9  16 S        2.012    -0.137   146.805    20.393
    10   6 C        3.823     0.038    19.924     6.352
    11  16 S        2.013    -0.126   146.351    20.361
    12  15 P        3.860     0.374   144.677    21.607
    13  16 S        0.926    -0.471   160.007    21.395
    14   8 O        1.655    -0.253    18.210     5.761
    15   6 C        3.854     0.084    19.159     6.225
    16   6 C        3.751    -0.125    22.954     6.832
    17   8 O        1.655    -0.263    18.372     5.786
    18   6 C        3.861     0.083    19.169     6.226
    19   6 C        3.751    -0.134    23.142     6.860
    20   1 H        0.925     0.066     2.130     2.282
    21   1 H        0.925     0.056     2.241     2.341
    22   1 H        0.925     0.082     1.963     2.191
    23   1 H        0.924     0.052     2.290     2.367
    24   1 H        0.924     0.080     1.980     2.200
    25   1 H        0.924     0.092     1.860     2.133
    26   1 H        0.924     0.064     2.148     2.292
    27   1 H        0.925     0.070     2.082     2.257
    28   1 H        0.925     0.088     1.900     2.156
    29   1 H        0.925     0.063     2.160     2.298
    30   1 H        0.925     0.100     1.789     2.091
    31   1 H        0.925     0.104     1.747     2.067
    32   1 H        0.924     0.060     2.205     2.322
    33   1 H        0.924     0.075     2.034     2.231
    34   1 H        0.925     0.061     2.183     2.311
    35   1 H        0.925     0.088     1.896     2.154
    36   1 H        0.925     0.070     2.082     2.257
    37   1 H        0.924     0.060     2.196     2.318
    38   1 H        0.924     0.063     2.168     2.303
    39   1 H        0.925     0.084     1.936     2.176
    40   1 H        0.925     0.076     2.020     2.223
    41   1 H        0.925     0.071     2.070     2.250

 Mol. C6AA /au·bohr⁶  :      26421.351400
 Mol. C8AA /au·bohr⁸  :     862510.601851
 Mol. α(0) /au        :        257.674574


Wiberg/Mayer (AO) data.
largest (>0.10) Wiberg bond orders for each atom

 ---------------------------------------------------------------------------
     #   Z sym  total        # sym  WBO       # sym  WBO       # sym  WBO
 ---------------------------------------------------------------------------
     1   6 C    3.987 --     2 C    1.022    21 H    0.983    20 H    0.982
                            22 H    0.976
     2   6 C    3.898 --     1 C    1.022    23 H    0.967    24 H    0.966
                             3 O    0.881
     3   8 O    2.375 --     4 P    1.282     2 C    0.881
     4  15 P    5.284 --     5 S    1.555     6 O    1.323     3 O    1.282
                             9 S    0.984
     5  16 S    1.859 --     4 P    1.555     9 S    0.125
     6   8 O    2.384 --     4 P    1.323     7 C    0.869
     7   6 C    3.887 --     8 C    1.021    25 H    0.966    26 H    0.963
                             6 O    0.869
     8   6 C    3.984 --     7 C    1.021    27 H    0.982    29 H    0.979
                            28 H    0.975
     9  16 S    2.293 --     4 P    0.984    10 C    0.983     5 S    0.125
    10   6 C    3.951 --    11 S    0.987     9 S    0.983    30 H    0.956
                            31 H    0.955
    11  16 S    2.300 --    12 P    0.996    10 C    0.987    13 S    0.134
    12  15 P    5.294 --    13 S    1.510    14 O    1.338    17 O    1.321
                            11 S    0.996
    13  16 S    1.838 --    12 P    1.510    11 S    0.134
    14   8 O    2.404 --    12 P    1.338    15 C    0.870
    15   6 C    3.886 --    16 C    1.020    33 H    0.970    32 H    0.964
                            14 O    0.870
    16   6 C    3.983 --    15 C    1.020    34 H    0.982    36 H    0.982
                            35 H    0.974
    17   8 O    2.401 --    12 P    1.321    18 C    0.885
    18   6 C    3.891 --    19 C    1.018    38 H    0.972    37 H    0.967
                            17 O    0.885
    19   6 C    3.981 --    18 C    1.018    41 H    0.983    40 H    0.982
                            39 H    0.976
    20   1 H    0.996 --     1 C    0.982
    21   1 H    0.997 --     1 C    0.983
    22   1 H    0.992 --     1 C    0.976
    23   1 H    0.997 --     2 C    0.967
    24   1 H    0.994 --     2 C    0.966
    25   1 H    0.991 --     7 C    0.966
    26   1 H    0.996 --     7 C    0.963
    27   1 H    0.995 --     8 C    0.982
    28   1 H    0.991 --     8 C    0.975
    29   1 H    0.996 --     8 C    0.979
    30   1 H    0.990 --    10 C    0.956
    31   1 H    0.989 --    10 C    0.955
    32   1 H    0.996 --    15 C    0.964
    33   1 H    0.994 --    15 C    0.970
    34   1 H    0.996 --    16 C    0.982
    35   1 H    0.991 --    16 C    0.974
    36   1 H    0.995 --    16 C    0.982
    37   1 H    0.996 --    18 C    0.967
    38   1 H    0.996 --    18 C    0.972
    39   1 H    0.991 --    19 C    0.976
    40   1 H    0.994 --    19 C    0.982
    41   1 H    0.995 --    19 C    0.983
 ---------------------------------------------------------------------------

Topologies differ in total number of bonds
Writing topology from bond orders to xtbtopo.mol

molecular dipole:
                 x           y           z       tot (Debye)
 q only:       -0.630      -0.584       3.107
   full:       -0.519      -0.611       3.197       8.378
molecular quadrupole (traceless):
                xx          xy          yy          xz          yz          zz
 q only:       -8.728      27.821       0.020      20.367       6.134       8.709
  q+dip:       -5.824      28.509      -3.237      18.912       2.200       9.060
   full:       -6.324      28.880      -2.814      19.666       3.402       9.138

           -------------------------------------------------
          |                Geometry Summary                 |
           -------------------------------------------------

      molecular mass/u    :      384.4756129
   center of mass at/Å    :       -0.0095681       0.0209301      -0.0367520
  moments of inertia/u·Å² :        0.1394305E+04   0.3199730E+04   0.3384307E+04
rotational constants/cm⁻¹ :        0.1209034E-01   0.5268454E-02   0.4981118E-02

 * 38 selected distances

     #   Z          #   Z                                           value/Å
     1   6 C        2   6 C                                       1.5149419
     2   6 C        3   8 O                                       1.4420480
     3   8 O        4  15 P                                       1.5979042
     4  15 P        5  16 S                                       1.9520751
     4  15 P        6   8 O                                       1.5878488
     6   8 O        7   6 C                                       1.4487629
     7   6 C        8   6 C                                       1.5162535
     4  15 P        9  16 S                                       2.1139392 (max)
    11  16 S       12  15 P                                       2.1084291
    12  15 P       13  16 S                                       1.9648027
    12  15 P       14   8 O                                       1.5773349
    14   8 O       15   6 C                                       1.4467924
    15   6 C       16   6 C                                       1.5146929
    12  15 P       17   8 O                                       1.5909621
    17   8 O       18   6 C                                       1.4421468
    18   6 C       19   6 C                                       1.5157413
     1   6 C       20   1 H                                       1.0872967
     1   6 C       21   1 H                                       1.0879831
     1   6 C       22   1 H                                       1.0852294
     2   6 C       23   1 H                                       1.0945394
     2   6 C       24   1 H                                       1.0921466
     7   6 C       25   1 H                                       1.0912925
     7   6 C       26   1 H                                       1.0934696
     8   6 C       27   1 H                                       1.0869673
     8   6 C       28   1 H                                       1.0854773
     8   6 C       29   1 H                                       1.0861587
    10   6 C       30   1 H                                       1.0896834
    10   6 C       31   1 H                                       1.0898714
    15   6 C       32   1 H                                       1.0953422
    15   6 C       33   1 H                                       1.0922868
    16   6 C       34   1 H                                       1.0871218
    16   6 C       35   1 H                                       1.0850892 (min)
    16   6 C       36   1 H                                       1.0862730
    18   6 C       37   1 H                                       1.0951248
    18   6 C       38   1 H                                       1.0933291
    19   6 C       39   1 H                                       1.0851171
    19   6 C       40   1 H                                       1.0861783
    19   6 C       41   1 H                                       1.0862562

 * 5 distinct bonds (by element types)

   Z      Z             #   av. dist./Å        max./Å        min./Å
   1 H    6 C          22     1.0891924     1.0953422     1.0850892
   6 C    6 C           4     1.5154074     1.5162535     1.5146929
   6 C    8 O           4     1.4449375     1.4487629     1.4420480
   8 O   15 P           4     1.5885125     1.5979042     1.5773349
  15 P   16 S           4     2.0348115     2.1139392     1.9520751

           -------------------------------------------------
          |               Frequency Printout                |
           -------------------------------------------------
 projected vibrational frequencies (cm⁻¹)
eigval :       -0.00    -0.00     0.00     0.00     0.00     0.00
eigval :       48.54    52.09    49.82    57.86    60.89    72.95
eigval :       62.36    66.26    67.44    60.85    74.37    96.37
eigval :      100.26   100.56   119.42   109.61   148.20   137.54
eigval :      162.02   188.48   198.49   202.97   224.75   229.84
eigval :      205.34   225.79   245.24   262.15   276.82   291.74
eigval :      317.29   334.64   345.17   370.19   401.59   403.41
eigval :      448.52   471.85   483.02   628.85   640.04   670.22
eigval :      700.37   727.93   752.56   764.63   785.39   804.48
eigval :      820.42   821.29   827.40   828.56   908.14   920.10
eigval :      922.33   947.55  1032.75  1034.00  1043.29  1049.88
eigval :     1081.96  1091.89  1095.67  1098.45  1101.47  1128.55
eigval :     1131.72  1133.18  1135.51  1164.26  1234.66  1237.36
eigval :     1238.10  1246.30  1302.34  1310.20  1312.35  1315.04
eigval :     1354.19  1388.41  1391.22  1391.61  1396.89  1439.35
eigval :     1441.94  1447.57  1454.86  1456.04  1458.46  1460.57
eigval :     1462.50  1473.82  1476.05  1484.03  1484.32  2915.70
eigval :     2920.69  2926.52  2936.24  2943.76  2954.36  2959.12
eigval :     2972.31  2974.03  2985.40  3037.48  3043.57  3043.83
eigval :     3046.86  3051.74  3052.35  3055.13  3058.11  3059.45
eigval :     3059.75  3061.59  3062.66
 reduced masses (amu)
   1: 22.36   2: 17.02   3: 22.62   4: 18.56   5: 22.13   6: 17.08   7: 23.53   8: 22.33
   9: 15.69  10: 18.86  11: 17.49  12: 25.79  13: 15.42  14: 13.33  15: 12.44  16: 11.47
  17: 11.26  18: 15.28  19: 11.84  20: 11.55  21: 14.58  22: 10.90  23: 23.70  24: 13.41
  25: 23.08  26: 19.12  27: 17.88  28:  7.44  29: 12.63  30: 11.30  31:  3.80  32:  4.04
  33:  8.60  34: 11.81  35: 16.38  36: 13.54  37: 18.22  38: 20.54  39: 20.41  40: 18.66
  41: 19.63  42: 11.82  43: 20.07  44: 22.24  45: 26.57  46: 26.28  47: 23.12  48: 18.31
  49: 16.54  50: 19.08  51: 24.00  52: 17.40  53: 19.84  54:  5.84  55:  2.78  56:  2.92
  57:  2.19  58:  2.69  59: 13.18  60: 13.67  61: 12.56  62: 12.57  63:  8.35  64:  8.26
  65:  8.81  66:  9.58  67:  1.72  68:  7.54  69:  7.74  70:  7.85  71:  7.79  72:  5.13
  73:  4.93  74:  4.87  75:  5.27  76:  2.36  77:  2.34  78:  2.26  79:  2.34  80:  2.30
  81:  3.05  82:  3.10  83:  3.04  84:  3.18  85:  1.76  86:  3.13  87:  3.15  88:  3.08
  89:  3.08  90:  1.93  91:  1.91  92:  1.92  93:  1.51  94:  1.52  95:  1.88  96:  1.48
  97:  1.52  98:  1.56  99:  1.56 100:  1.57 101:  1.57 102:  1.78 103:  1.86 104:  1.77
 105:  1.76 106:  1.61 107:  1.69 108:  1.70 109:  1.47 110:  1.72 111:  2.06 112:  1.87
 113:  1.69 114:  1.55 115:  1.73 116:  1.61 117:  1.90 118:  1.43 119:  1.72 120:  1.80
 121:  1.71 122:  1.82 123:  1.82
 IR intensities (km·mol⁻¹)
   1:  0.53   2:  0.20   3:  0.20   4:  0.86   5:  0.42   6:  0.77   7:  5.14   8:  2.62
   9:  3.88  10:  0.06  11:  2.36  12:  2.20  13:  3.29  14:  0.26  15:  1.52  16:  2.36
  17:  2.73  18:  5.39  19:  0.16  20:  2.62  21:  5.76  22:  4.56  23:  8.75  24:  3.65
  25:  3.11  26: 12.55  27: 40.74  28: 13.08  29: 10.28  30:  2.94  31:  3.35  32:  2.98
  33:  5.88  34: 18.16  35:  3.51  36:  4.75  37:  3.22  38:  0.56  39:  8.66  40: 17.85
  41: 20.77  42:  8.84  43: 85.75  44:163.10  45:117.78  46:191.35  47: 61.31  48:  6.01
  49: 60.37  50:241.47  51:228.91  52:165.11  53:279.80  54:  5.70  55:  1.28  56:  1.97
  57:  3.91  58:  3.25  59:357.47  60:467.73  61:130.17  62:134.13  63:160.12  64:138.77
  65:131.97  66: 87.79  67:  0.06  68:  6.39  69: 18.05  70: 18.44  71: 13.46  72: 32.35
  73: 16.12  74: 12.69  75: 27.18  76: 41.18  77:  4.79  78:  0.97  79:  4.64  80:  3.49
  81:  7.13  82:  4.17  83:  3.59  84:  4.45  85: 13.28  86: 12.62  87: 11.23  88: 14.83
  89:  9.60  90:  3.01  91:  3.92  92:  2.89  93:  9.80  94:  4.62  95:  1.20  96:  5.77
  97:  7.87  98:  8.36  99:  4.30 100:  5.65 101:  2.12 102: 25.99 103: 25.68 104: 32.38
 105: 44.61 106: 28.41 107: 26.11 108: 23.60 109:  0.28 110:  9.51 111:  8.69 112: 38.99
 113: 34.45 114: 16.38 115: 26.16 116: 20.67 117: 18.11 118: 13.56 119: 23.39 120: 14.83
 121:  8.64 122: 13.06 123: 11.05
 Raman intensities (Ä⁴*amu⁻¹)
   1:  0.00   2:  0.00   3:  0.00   4:  0.00   5:  0.00   6:  0.00   7:  0.00   8:  0.00
   9:  0.00  10:  0.00  11:  0.00  12:  0.00  13:  0.00  14:  0.00  15:  0.00  16:  0.00
  17:  0.00  18:  0.00  19:  0.00  20:  0.00  21:  0.00  22:  0.00  23:  0.00  24:  0.00
  25:  0.00  26:  0.00  27:  0.00  28:  0.00  29:  0.00  30:  0.00  31:  0.00  32:  0.00
  33:  0.00  34:  0.00  35:  0.00  36:  0.00  37:  0.00  38:  0.00  39:  0.00  40:  0.00
  41:  0.00  42:  0.00  43:  0.00  44:  0.00  45:  0.00  46:  0.00  47:  0.00  48:  0.00
  49:  0.00  50:  0.00  51:  0.00  52:  0.00  53:  0.00  54:  0.00  55:  0.00  56:  0.00
  57:  0.00  58:  0.00  59:  0.00  60:  0.00  61:  0.00  62:  0.00  63:  0.00  64:  0.00
  65:  0.00  66:  0.00  67:  0.00  68:  0.00  69:  0.00  70:  0.00  71:  0.00  72:  0.00
  73:  0.00  74:  0.00  75:  0.00  76:  0.00  77:  0.00  78:  0.00  79:  0.00  80:  0.00
  81:  0.00  82:  0.00  83:  0.00  84:  0.00  85:  0.00  86:  0.00  87:  0.00  88:  0.00
  89:  0.00  90:  0.00  91:  0.00  92:  0.00  93:  0.00  94:  0.00  95:  0.00  96:  0.00
  97:  0.00  98:  0.00  99:  0.00 100:  0.00 101:  0.00 102:  0.00 103:  0.00 104:  0.00
 105:  0.00 106:  0.00 107:  0.00 108:  0.00 109:  0.00 110:  0.00 111:  0.00 112:  0.00
 113:  0.00 114:  0.00 115:  0.00 116:  0.00 117:  0.00 118:  0.00 119:  0.00 120:  0.00
 121:  0.00 122:  0.00 123:  0.00
 output can be read by thermo (or use thermo option).
 writing <g98.out> molden fake output.
 recommended (thermochemical) frequency scaling factor: 1.0
           -------------------------------------------------
          |             Thermodynamic Functions             |
           -------------------------------------------------

Molecule has no symmetry elements
It seems to be the C1 point group
c1  symmetry found (for desy threshold:  0.10E+00) used in thermo

          ...................................................
          :                      SETUP                      :
          :.................................................:
          :  # frequencies                         117      :
          :  # imaginary freq.                       0      :
          :  linear?                             false      :
          :  only rotor calc.                    false      :
          :  symmetry                               c1      :
          :  rotational number                       1      :
          :  scaling factor                  1.0000000      :
          :  rotor cutoff                    0.0000000 cm⁻¹ :
          :  imag. cutoff                 -100.0000000 cm⁻¹ :
          :.................................................:

    mode    ω/cm⁻¹     T·S(HO)/kcal·mol⁻¹    T·S(FR)/kcal·mol⁻¹   T·S(vib)
   ------------------------------------------------------------------------
       1     48.54    -1.45374 (100.00%)    -1.06527 (  0.00%)    -1.45374
       2     52.09    -1.41216 (100.00%)    -1.04438 (  0.00%)    -1.41216
       3     49.82    -1.43844 (100.00%)    -1.05759 (  0.00%)    -1.43844
       4     57.86    -1.35030 (100.00%)    -1.01328 (  0.00%)    -1.35030
       5     60.89    -1.32024 (100.00%)    -0.99814 (  0.00%)    -1.32024
       6     72.95    -1.21412 (100.00%)    -0.94463 (  0.00%)    -1.21412
       7     62.36    -1.30621 (100.00%)    -0.99108 (  0.00%)    -1.30621
       8     66.26    -1.27055 (100.00%)    -0.97311 (  0.00%)    -1.27055
       9     67.44    -1.26022 (100.00%)    -0.96790 (  0.00%)    -1.26022
      10     60.85    -1.32059 (100.00%)    -0.99832 (  0.00%)    -1.32059
      11     74.37    -1.20281 (100.00%)    -0.93891 (  0.00%)    -1.20281
      12     96.37    -1.05139 (100.00%)    -0.86214 (  0.00%)    -1.05139
      13    100.26    -1.02839 (100.00%)    -0.85042 (  0.00%)    -1.02839
      14    100.56    -1.02663 (100.00%)    -0.84952 (  0.00%)    -1.02663
      15    119.42    -0.92717 (100.00%)    -0.79862 (  0.00%)    -0.92717
      16    109.61    -0.97666 (100.00%)    -0.82400 (  0.00%)    -0.97666
      17    148.20    -0.80357 (100.00%)    -0.73466 (  0.00%)    -0.80357
      18    137.54    -0.84608 (100.00%)    -0.75676 (  0.00%)    -0.84608
      19    162.02    -0.75314 (100.00%)    -0.70825 (  0.00%)    -0.75314
      20    188.48    -0.66867 (100.00%)    -0.66344 (  0.00%)    -0.66867
      21    198.49    -0.64013 (100.00%)    -0.64810 (  0.00%)    -0.64013
      22    202.97    -0.62790 (100.00%)    -0.64149 (  0.00%)    -0.62790
      23    224.75    -0.57258 (100.00%)    -0.61129 (  0.00%)    -0.57258
      24    229.84    -0.56057 (100.00%)    -0.60466 (  0.00%)    -0.56057
      25    205.34    -0.62157 (100.00%)    -0.63806 (  0.00%)    -0.62157
      26    225.79    -0.57012 (100.00%)    -0.60994 (  0.00%)    -0.57012
      27    245.24    -0.52610 (100.00%)    -0.58545 (  0.00%)    -0.52610
      28    262.15    -0.49118 (100.00%)    -0.56571 (  0.00%)    -0.49118
      29    276.82    -0.46311 (100.00%)    -0.54958 (  0.00%)    -0.46311
      30    291.74    -0.43645 (100.00%)    -0.53402 (  0.00%)    -0.43645
   ------------------------------------------------------------------------

   temp. (K)  partition function   enthalpy   heat capacity  entropy
                                   cal/mol     cal/K/mol   cal/K/mol   J/K/mol
 298.15  VIB  0.175E+13            15692.068     88.467    108.655
         ROT  0.939E+07              888.752      2.981     34.886
         INT  0.164E+20            16580.820     91.448    143.541
         TR   0.729E+28             1481.254      4.968     43.712
         TOT                       18062.0738    96.4157   187.2533   783.4676

       T/K    H(0)-H(T)+PV         H(T)/Eh          T*S/Eh         G(T)/Eh
   ------------------------------------------------------------------------
    298.15    0.287837E-01    0.341682E+00    0.889701E-01    0.252712E+00
   ------------------------------------------------------------------------

         :::::::::::::::::::::::::::::::::::::::::::::::::::::
         ::                  THERMODYNAMIC                  ::
         :::::::::::::::::::::::::::::::::::::::::::::::::::::
         :: total free energy         -64.790265845023 Eh   ::
         ::.................................................::
         :: total energy              -65.042977578168 Eh   ::
         :: zero point energy           0.312898049086 Eh   ::
         :: G(RRHO) w/o ZPVE           -0.060186315941 Eh   ::
         :: G(RRHO) contrib.            0.252711733146 Eh   ::
         :::::::::::::::::::::::::::::::::::::::::::::::::::::

optimized geometry written to: xtbopt.coord


           -------------------------------------------------
          | TOTAL ENERGY              -65.042977578168 Eh   |
          | TOTAL ENTHALPY            -64.701295782271 Eh   |
          | TOTAL FREE ENERGY         -64.790265845023 Eh   |
          | GRADIENT NORM               0.000073464854 Eh/α |
          | HOMO-LUMO GAP               3.034748064295 eV   |
           -------------------------------------------------

------------------------------------------------------------------------
 * finished run on 2025/04/09 at 13:59:33.870     
------------------------------------------------------------------------
 total:
 * wall-time:     0 d,  0 h,  0 min, 19.431 sec
 *  cpu-time:     0 d,  0 h,  0 min, 19.164 sec
 * ratio c/w:     0.986 speedup
 SCF:
 * wall-time:     0 d,  0 h,  0 min,  0.076 sec
 *  cpu-time:     0 d,  0 h,  0 min,  0.051 sec
 * ratio c/w:     0.669 speedup
 analytical hessian:
 * wall-time:     0 d,  0 h,  0 min,  9.391 sec
 *  cpu-time:     0 d,  0 h,  0 min,  9.354 sec
 * ratio c/w:     0.996 speedup

