12
 energy: -248.475998267096 gnorm: 0.032506719705 xtb: 6.7.1 (edcfbbe)
C           -1.75806447307904        0.68887571210526       -0.00023623350010
C           -0.47245857240936       -0.10570759014684       -0.00002927300001
O           -0.44703185699809       -1.33492064719154        0.00010940840005
N            0.63843283398291        0.64450681778560        0.00059859340027
C            1.97543025607537        0.09670194754285       -0.00032021370014
H           -1.80698242090072        1.31697333418359        0.88493841559214
H           -1.80597187590027        1.31810799978409       -0.88477883959207
H           -2.60023815865223        0.00349669030155       -0.00112657100050
H            0.55178651904451        1.64901879743072       -0.00009532370004
H            2.51482340281438        0.41111795098218       -0.89374779739604
H            1.88976753053741       -0.98861819823808        0.00608269760270
H            2.52053669441692        0.42187289478694        0.88565198249246
12
 energy: -248.476758454978 gnorm: 0.009191669917 xtb: 6.7.1 (edcfbbe)
C           -1.76722277840020        0.68755322235941       -0.00020991677470
C           -0.47940691069734       -0.10294555460970        0.00013267114206
O           -0.46227318747805       -1.34400553389691       -0.00012954453941
N            0.64005229527930        0.64501031601983        0.00063418023949
C            1.98415048041387        0.09483522179435       -0.00044880263024
H           -1.81903772899177        1.32496822364479        0.88543130586088
H           -1.81792958604667        1.32614072029694       -0.88509936167147
H           -2.61416606568599        0.00244102689834       -0.00118841413189
H            0.54698996017681        1.64971536234181       -0.00013023643766
H            2.53210009456332        0.40995243294887       -0.89273810264951
H            1.91937900415191       -0.99320135788304        0.00632470776487
H            2.53739434041860        0.42096160679397        0.88446836737967
12
 energy: -248.476833147226 gnorm: 0.001851625001 xtb: 6.7.1 (edcfbbe)
C           -1.76959548012966        0.68702585059424       -0.00015116309154
C           -0.48178630147689       -0.10103516570624       -0.00015946301007
O           -0.46972378121185       -1.34592646669729       -0.00036928717170
N            0.64200932521961        0.64275725031302        0.00054547025259
C            1.98891019111793        0.09285529160365       -0.00040985709256
H           -1.82495531023282        1.32911374444788        0.88450583017988
H           -1.82401092748007        1.33035105759100       -0.88396415413791
H           -2.61725811948138        0.00155538431521       -0.00107220089095
H            0.54414484494345        1.64748447305470       -0.00025939048413
H            2.53766617051952        0.41097075378255       -0.89283723661276
H            1.93180740818387       -0.99595907218953        0.00660766387351
H            2.54282191960708        0.42223257663089        0.88461064470932
12
 energy: -248.476838128493 gnorm: 0.000580241291 xtb: 6.7.1 (edcfbbe)
C           -1.76910579904590        0.68723842385298       -0.00016293200742
C           -0.48223252324031       -0.10025338133399       -0.00003232582552
O           -0.47209528286286       -1.34574050494556       -0.00061978338355
N            0.64279105887401        0.64096834692232        0.00059610105667
C            1.99049935344626        0.09216423251686       -0.00042368424856
H           -1.82627201015312        1.33036582406481        0.88387447580158
H           -1.82534103219105        1.33176775735147       -0.88324402337538
H           -2.61590821840361        0.00102557230933       -0.00114645265960
H            0.54198594955608        1.64554529275782       -0.00022021468658
H            2.53815362429238        0.41159954880381       -0.89305407664117
H            1.93417288587332       -0.99650035046366        0.00686405265613
H            2.54338193544690        0.42324491127605        0.88461571974979
12
 energy: -248.476838128493 gnorm: 0.000580241291 xtb: 6.7.1 (edcfbbe)
C           -1.76910579904590        0.68723842385298       -0.00016293200742
C           -0.48223252324031       -0.10025338133399       -0.00003232582552
O           -0.47209528286286       -1.34574050494556       -0.00061978338355
N            0.64279105887401        0.64096834692232        0.00059610105667
C            1.99049935344626        0.09216423251686       -0.00042368424856
H           -1.82627201015312        1.33036582406481        0.88387447580158
H           -1.82534103219105        1.33176775735147       -0.88324402337538
H           -2.61590821840361        0.00102557230933       -0.00114645265960
H            0.54198594955608        1.64554529275782       -0.00022021468658
H            2.53815362429238        0.41159954880381       -0.89305407664117
H            1.93417288587332       -0.99650035046366        0.00686405265613
H            2.54338193544690        0.42324491127605        0.88461571974979
