
                                 *****************
                                 * O   R   C   A *
                                 *****************

                                            #,                                       
                                            ###                                      
                                            ####                                     
                                            #####                                    
                                            ######                                   
                                           ########,                                 
                                     ,,################,,,,,                         
                               ,,#################################,,                 
                          ,,##########################################,,             
                       ,#########################################, ''#####,          
                    ,#############################################,,   '####,        
                  ,##################################################,,,,####,       
                ,###########''''           ''''###############################       
              ,#####''   ,,,,##########,,,,          '''####'''          '####       
            ,##' ,,,,###########################,,,                        '##       
           ' ,,###''''                  '''############,,,                           
         ,,##''                                '''############,,,,        ,,,,,,###''
      ,#''                                            '''#######################'''  
     '                                                          ''''####''''         
             ,#######,   #######,   ,#######,      ##                                
            ,#'     '#,  ##    ##  ,#'     '#,    #''#        ,####,   ,####,        
            ##       ##  ##   ,#'  ##            #'  '#       #'       #'  '#        
            ##       ##  #######   ##           ,######,      #####,   #    #        
            '#,     ,#'  ##    ##  '#,     ,#' ,#      #,     #,   #   #,  ,#        
             '#######'   ##     ##  '#######'  #'      '#     '####' # '####'        



                #########################################################
                #                        -***-                          #
                #          Department of theory and spectroscopy        #
                #                                                       #
                #                      Frank Neese                      #
                #                                                       #
                #     Directorship, Architecture, Infrastructure        #
                #                    SHARK, DRIVERS                     #
                #        Core code/Algorithms in most modules           #
                #                                                       #
                #        Max Planck Institute fuer Kohlenforschung      #
                #                Kaiser Wilhelm Platz 1                 #
                #                 D-45470 Muelheim/Ruhr                 #
                #                      Germany                          #
                #                                                       #
                #                  All rights reserved                  #
                #                        -***-                          #
                #########################################################


                         Program Version 6.0.0  -   RELEASE  -


 With contributions from (in alphabetic order):
   Daniel Aravena         : Magnetic Suceptibility
   Michael Atanasov       : Ab Initio Ligand Field Theory (pilot matlab implementation)
   Alexander A. Auer      : GIAO ZORA, VPT2 properties, NMR spectrum
   Ute Becker             : All parallelization in ORCA, NUMFREQ, NUMCALC
   Giovanni Bistoni       : ED, misc. LED, open-shell LED, HFLD
   Martin Brehm           : Molecular dynamics
   Dmytro Bykov           : pre 5.0 version of the SCF Hessian
   Marcos Casanova-Páez   : Triplet and SCS-CIS(D). UHF-(DLPNO)-IP/EA/STEOM-CCSD. UHF-CVS-IP/STEOM-CCSD
   Vijay G. Chilkuri      : MRCI spin determinant printing, contributions to CSF-ICE
   Pauline Colinet        : FMM embedding
   Dipayan Datta          : RHF DLPNO-CCSD density
   Achintya Kumar Dutta   : EOM-CC, STEOM-CC
   Nicolas Foglia         : Exact transition moments, OPA infrastructure, MCD improvements
   Dmitry Ganyushin       : Spin-Orbit,Spin-Spin,Magnetic field MRCI
   Miquel Garcia          : C-PCM and meta-GGA Hessian, CCSD/C-PCM, Gaussian charge scheme
   Tiago L. C. Gouveia    : GS-ROHF, GS-ROCIS
   Yang Guo               : DLPNO-NEVPT2, F12-NEVPT2, CIM, IAO-localization
   Andreas Hansen         : Spin unrestricted coupled pair/coupled cluster methods
   Ingolf Harden          : AUTO-CI MPn and infrastructure 
   Benjamin Helmich-Paris : MC-RPA, TRAH-(SCF,CASSCF), AVAS, COSX integrals, SCF dyn. polar.
   Lee Huntington         : MR-EOM, pCC
   Robert Izsak           : Overlap fitted RIJCOSX, COSX-SCS-MP3, EOM
   Riya Kayal             : Wick's Theorem for AUTO-CI, AUTO-CI UHF-CCSDT
   Emily Kempfer          : AUTO-CI, RHF CISDT and CCSDT
   Christian Kollmar      : KDIIS, OOCD, Brueckner-CCSD(T), CCSD density, CASPT2, CASPT2-K, improved NEVPT2
   Axel Koslowski         : Symmetry handling
   Simone Kossmann        : Meta GGA functionals, TD-DFT gradient, OOMP2, (MP2 Hessian; deprecated post 5.0)
   Lucas Lang             : DCDCAS
   Marvin Lechner         : AUTO-CI (C++ implementation), FIC-MRCC
   Spencer Leger          : CASSCF response
   Dagmar Lenk            : GEPOL surface, SMD, ORCA-2-JSON
   Dimitrios Liakos       : Extrapolation schemes; Compound Job, initial MDCI parallelization
   Dimitrios Manganas     : Further ROCIS development; embedding schemes. LFT, Crystal Embedding
   Dimitrios Pantazis     : SARC Basis sets
   Anastasios Papadopoulos: AUTO-CI, single reference methods and gradients
   Taras Petrenko         : pre 6.0 DFT Hessian and TD-DFT gradient, (ASA, deprecated), ECA, 1-Electron XAS/XES, NRVS
   Peter Pinski           : DLPNO-MP2, DLPNO-MP2 Gradient
   Christoph Reimann      : Effective Core Potentials
   Marius Retegan         : Local ZFS, SOC
   Christoph Riplinger    : Optimizer, TS searches, QM/MM, DLPNO-CCSD(T), (RO)-DLPNO pert. Triples
   Michael Roemelt        : Original ROCIS implementation
   Masaaki Saitow         : Open-shell DLPNO-CCSD energy and density
   Barbara Sandhoefer     : DKH picture change effects
   Kantharuban Sivalingam : CASSCF convergence/infrastructure, NEVPT2 and variants, FIC-MRCI
   Bernardo de Souza      : ESD, SOC TD-DFT
   Georgi Stoychev        : AutoAux, RI-MP2 NMR, DLPNO-MP2 response, X2C
   Van Anh Tran           : RI-MP2 g-tensors
   Willem Van den Heuvel  : Paramagnetic NMR
   Zikuan Wang            : NOTCH, Electric field optimization 
   Frank Wennmohs         : Technical directorship and infrastructure
   Hang Xu                : AUTO-CI-Response properties 


 We gratefully acknowledge several colleagues who have allowed us to
 interface, adapt or use parts of their codes:
   Stefan Grimme, W. Hujo, H. Kruse, P. Pracht,  : VdW corrections, initial TS optimization,
                  C. Bannwarth, S. Ehlert,         DFT functionals, gCP, sTDA/sTD-DF
                  L. Wittmann, M. Mueller
   Ed Valeev, F. Pavosevic, A. Kumar             : LibInt (2-el integral package), F12 methods
   Garnet Chan, S. Sharma, J. Yang, R. Olivares  : DMRG
   Ulf Ekstrom                                   : XCFun DFT Library
   Mihaly Kallay                                 : mrcc  (arbitrary order and MRCC methods)
   Frank Weinhold                                : gennbo (NPA and NBO analysis)
   Simon Mueller                                 : openCOSMO-RS
   Christopher J. Cramer and Donald G. Truhlar   : smd solvation model
   Lars Goerigk                                  : TD-DFT with DH, B97 family of functionals
   V. Asgeirsson, H. Jonsson                     : NEB implementation
   FAccTs GmbH                                   : IRC, NEB, NEB-TS, DLPNO-Multilevel, CI-OPT
                                                   MM, QMMM, 2- and 3-layer-ONIOM, Crystal-QMMM,
                                                   LR-CPCM, SF, NACMEs, symmetry and pop. for TD-DFT,
                                                   nearIR, NL-DFT gradient (VV10), updates on ESD,
                                                   ML-optimized integration grids, MBIS, APM,
                                                   GOAT, DOCKER, SOLVATOR, interface openCOSMO-RS
   S Lehtola, MJT Oliveira, MAL Marques          : LibXC Library
   Liviu Ungur et al                             : ANISO software


 Your calculation uses the libint2 library for the computation of 2-el integrals
 For citations please refer to: http://libint.valeyev.net

 Your ORCA version has been built with support for libXC version: 6.2.2
 For citations please refer to: https://libxc.gitlab.io

 This ORCA versions uses:
   CBLAS   interface :  Fast vector & matrix operations
   LAPACKE interface :  Fast linear algebra routines
   SCALAPACK package :  Parallel linear algebra routines
   Shared memory     :  Shared parallel matrices
   BLAS/LAPACK       :  OpenBLAS 0.3.27  USE64BITINT DYNAMIC_ARCH NO_AFFINITY SkylakeX SINGLE_THREADED
        Core in use  :  SkylakeX
   Copyright (c) 2011-2014, The OpenBLAS Project


Your calculation utilizes the geometrical counterpoise correction gCP
Please cite in your paper:
H.Kruse, S. Grimme J.Chem.Phys., 136, (2012), 154101 
   

Your calculation utilizes the DFT-NL dispersion correction.
Cite in your paper:
Vydrov, O. A.; Van Voorhis, T. J. Chem. Phys. 2010, 133, 244103
Hujo, W.; Grimme, S. J. Chem. Theory Comput. 2011, 7, 3866 
   

Your calculation utilizes the SMD solvation module
Please cite in your paper:
A.V. Marenich, C.J. Cramer, D.G. Truhlar J. Phys. Chem. B, 113, (2009), 6378 

================================================================================

----- Orbital basis set information -----
Your calculation utilizes the basis: def2-TZVP
   F. Weigend and R. Ahlrichs, Phys. Chem. Chem. Phys. 7, 3297 (2005).

----- AuxJ basis set information -----
Your calculation utilizes the auxiliary basis: def2/J
   F. Weigend, Phys. Chem. Chem. Phys. 8, 1057 (2006).

================================================================================
                                        WARNINGS
                       Please study these warnings very carefully!
================================================================================


================================================================================
                                       INPUT FILE
================================================================================
NAME = sp_solv.inp
|  1> ! wb97x-v def2-tzvp def2/J RIJCOSX DEFGRID2 scfconv7 GCP(DFT/TZ) printgap
|  2> %output
|  3>     printlevel normal
|  4> end
|  5> %cpcm
|  6>     smd true
|  7>     smdsolvent "water"
|  8> end
|  9> * xyz 0 1
| 10> C -2.414076124610797 -0.0846525269953569 -0.006819606988916339
| 11> C -1.8374071078090393 -1.3543030440440262 -0.0033780701918133373
| 12> C -0.4507686248399172 -1.4696185742437344 0.007564242334415988
| 13> C 0.33383835879400214 -0.32520141937671715 0.0184379999841398
| 14> C -0.2170200159200594 0.9670090828888371 0.018096261703089395
| 15> C -1.620650209684761 1.0525365609990174 0.0012299182155545998
| 16> N 0.5606035868160313 2.1069187892026062 0.09620081653726757
| 17> Cl 2.0920523565443907 -0.499933859959594 0.03289797474677892
| 18> H -3.4940083437490257 0.022429187615788125 -0.020111817623912166
| 19> H -2.453094487919314 -2.246781500714618 -0.010847616843876598
| 20> H 0.02394118502007747 -2.444710209131703 0.006733418931839793
| 21> H -2.074593228706833 2.039752198592547 -0.004084107274010503
| 22> H 1.4991303967681697 2.024190831476894 -0.26875208451964844
| 23> H 0.09383204574776202 2.9464562898734545 -0.21660127583381103
| 24> *
| 25> 
| 26>                          ****END OF INPUT****
================================================================================

                       ****************************
                       * Single Point Calculation *
                       ****************************

---------------------------------
CARTESIAN COORDINATES (ANGSTROEM)
---------------------------------
  C     -2.414076   -0.084653   -0.006820
  C     -1.837407   -1.354303   -0.003378
  C     -0.450769   -1.469619    0.007564
  C      0.333838   -0.325201    0.018438
  C     -0.217020    0.967009    0.018096
  C     -1.620650    1.052537    0.001230
  N      0.560604    2.106919    0.096201
  Cl     2.092052   -0.499934    0.032898
  H     -3.494008    0.022429   -0.020112
  H     -2.453094   -2.246782   -0.010848
  H      0.023941   -2.444710    0.006733
  H     -2.074593    2.039752   -0.004084
  H      1.499130    2.024191   -0.268752
  H      0.093832    2.946456   -0.216601

----------------------------
CARTESIAN COORDINATES (A.U.)
----------------------------
  NO LB      ZA    FRAG     MASS         X           Y           Z
   0 C     6.0000    0    12.011   -4.561943   -0.159970   -0.012887
   1 C     6.0000    0    12.011   -3.472196   -2.559262   -0.006384
   2 C     6.0000    0    12.011   -0.851829   -2.777177    0.014294
   3 C     6.0000    0    12.011    0.630863   -0.614542    0.034843
   4 C     6.0000    0    12.011   -0.410108    1.827382    0.034197
   5 C     6.0000    0    12.011   -3.062585    1.989006    0.002324
   6 N     7.0000    0    14.007    1.059387    3.981499    0.181793
   7 Cl   17.0000    0    35.453    3.953406   -0.944738    0.062168
   8 H     1.0000    0     1.008   -6.602719    0.042385   -0.038006
   9 H     1.0000    0     1.008   -4.635677   -4.245802   -0.020499
  10 H     1.0000    0     1.008    0.045242   -4.619833    0.012724
  11 H     1.0000    0     1.008   -3.920413    3.854573   -0.007718
  12 H     1.0000    0     1.008    2.832946    3.825166   -0.507868
  13 H     1.0000    0     1.008    0.177317    5.567995   -0.409317

--------------------------------
INTERNAL COORDINATES (ANGSTROEM)
--------------------------------
 C      0   0   0     0.000000000000     0.00000000     0.00000000
 C      1   0   0     1.394478911478     0.00000000     0.00000000
 C      2   1   0     1.391468177200   119.18139038     0.00000000
 C      3   2   1     1.387593954198   119.68251387     0.17033695
 C      4   3   2     1.404725257103   122.47625873   359.96039477
 C      1   2   3     1.386646493951   120.66726522   359.96656110
 N      5   4   3     1.382097293090   122.55133621   176.68799490
 Cl     4   3   2     1.766934344719   118.76106775   179.97426186
 H      1   2   3     1.085309529305   120.08943342   179.70800210
 H      2   1   3     1.084271432703   120.97029173   180.10811149
 H      3   2   1     1.084506242616   120.71091578   180.22904430
 H      6   1   2     1.086594321030   120.39936561   179.84161479
 H      7   5   4     1.010379685058   115.76529154    27.49383197
 H      7   5   4     1.010219795676   114.07631638   160.68105516

---------------------------
INTERNAL COORDINATES (A.U.)
---------------------------
 C      0   0   0     0.000000000000     0.00000000     0.00000000
 C      1   0   0     2.635183242222     0.00000000     0.00000000
 C      2   1   0     2.629493778974   119.18139038     0.00000000
 C      3   2   1     2.622172558519   119.68251387     0.17033695
 C      4   3   2     2.654546029327   122.47625873   359.96039477
 C      1   2   3     2.620382118129   120.66726522   359.96656110
 N      5   4   3     2.611785374374   122.55133621   176.68799490
 Cl     4   3   2     3.339022008139   118.76106775   179.97426186
 H      1   2   3     2.050937780922   120.08943342   179.70800210
 H      2   1   3     2.048976062643   120.97029173   180.10811149
 H      3   2   1     2.049419789072   120.71091578   180.22904430
 H      6   1   2     2.053365685421   120.39936561   179.84161479
 H      7   5   4     1.909340896038   115.76529154    27.49383197
 H      7   5   4     1.909038748893   114.07631638   160.68105516

---------------------
BASIS SET INFORMATION
---------------------
There are 4 groups of distinct atoms

 Group   1 Type C   : 11s6p2d1f contracted to 5s3p2d1f pattern {62111/411/11/1}
 Group   2 Type N   : 11s6p2d1f contracted to 5s3p2d1f pattern {62111/411/11/1}
 Group   3 Type Cl  : 14s9p3d1f contracted to 5s5p2d1f pattern {73211/51111/21/1}
 Group   4 Type H   : 5s1p contracted to 3s1p pattern {311/1}

Atom   0C    basis set group =>   1
Atom   1C    basis set group =>   1
Atom   2C    basis set group =>   1
Atom   3C    basis set group =>   1
Atom   4C    basis set group =>   1
Atom   5C    basis set group =>   1
Atom   6N    basis set group =>   2
Atom   7Cl   basis set group =>   3
Atom   8H    basis set group =>   4
Atom   9H    basis set group =>   4
Atom  10H    basis set group =>   4
Atom  11H    basis set group =>   4
Atom  12H    basis set group =>   4
Atom  13H    basis set group =>   4
---------------------------------
AUXILIARY/J BASIS SET INFORMATION
---------------------------------
There are 4 groups of distinct atoms

 Group   1 Type C   : 12s5p4d2f1g contracted to 6s4p3d1f1g pattern {711111/2111/211/2/1}
 Group   2 Type N   : 12s5p4d2f1g contracted to 6s4p3d1f1g pattern {711111/2111/211/2/1}
 Group   3 Type Cl  : 14s5p5d2f1g contracted to 8s4p3d1f1g pattern {71111111/2111/311/2/1}
 Group   4 Type H   : 5s2p1d contracted to 3s1p1d pattern {311/2/1}

Atom   0C    basis set group =>   1
Atom   1C    basis set group =>   1
Atom   2C    basis set group =>   1
Atom   3C    basis set group =>   1
Atom   4C    basis set group =>   1
Atom   5C    basis set group =>   1
Atom   6N    basis set group =>   2
Atom   7Cl   basis set group =>   3
Atom   8H    basis set group =>   4
Atom   9H    basis set group =>   4
Atom  10H    basis set group =>   4
Atom  11H    basis set group =>   4
Atom  12H    basis set group =>   4
Atom  13H    basis set group =>   4

Checking for AutoStart:
The File: sp_solv.gbw exists
Trying to determine its content:
     ... Fine, the file contains calculation information
     ... Fine, the calculation information was read
     ... Fine, the file contains a basis set
     ... Fine, the basis set was read
     ... Fine, the file contains a geometry
     ... Fine, the geometry was read
     ... Fine, the file contains a set of orbitals
     ... Fine, the orbitals can be read
     => possible old guess file was deleted
     => GBW file was renamed to GES file
     => GES file is set as startup file
     => Guess is set to MORead
     ... now leaving AutoStart

------------------------------------------------------------------------------
                             ORCA STARTUP CALCULATIONS
                           -- RI-GTO INTEGRALS CHOSEN --
------------------------------------------------------------------------------
------------------------------------------------------------------------------
                   ___                                                        
                  /   \      - P O W E R E D   B Y -                         
                 /     \                                                     
                 |  |  |   _    _      __       _____    __    __             
                 |  |  |  | |  | |    /  \     |  _  \  |  |  /  |          
                  \  \/   | |  | |   /    \    | | | |  |  | /  /          
                 / \  \   | |__| |  /  /\  \   | |_| |  |  |/  /          
                |  |  |   |  __  | /  /__\  \  |    /   |      \           
                |  |  |   | |  | | |   __   |  |    \   |  |\   \          
                \     /   | |  | | |  |  |  |  | |\  \  |  | \   \       
                 \___/    |_|  |_| |__|  |__|  |_| \__\ |__|  \__/        
                                                                              
                      - O R C A' S   B I G   F R I E N D -                    
                                      &                                       
                       - I N T E G R A L  F E E D E R -                       
                                                                              
 v1 FN, 2020, v2 2021, v3 2022-2024                                           
------------------------------------------------------------------------------


----------------------
SHARK INTEGRAL PACKAGE
----------------------

Number of atoms                             ...     14
Number of basis functions                   ...    290
Number of shells                            ...    114
Maximum angular momentum                    ...      3
Integral batch strategy                     ... SHARK/LIBINT Hybrid
RI-J (if used) integral strategy            ... SPLIT-RIJ (Revised 2003 algorithm where possible)
Printlevel                                  ...      1
Contraction scheme used                     ... SEGMENTED contraction
Prescreening option                         ... SCHWARTZ
   Thresh                                   ... 3.000e-11
   Tcut                                     ... 1.000e-12
   Tpresel                                  ... 1.000e-12 
Coulomb Range Separation                    ... NOT USED
Exchange Range Separation                   ... Long Range
   Mu parameter                             ... 3.000e-01
   Scaling (regular/separated)              ... 1.670e-01 8.330e-01
Multipole approximations                    ... NOT USED
Finite Nucleus Model                        ... NOT USED
CABS basis                                  ... NOT available
Auxiliary Coulomb fitting basis             ... AVAILABLE
   # of basis functions in Aux-J            ...    460
   # of shells in Aux-J                     ...    152
   Maximum angular momentum in Aux-J        ...      4
Auxiliary J/K fitting basis                 ... NOT available
Auxiliary Correlation fitting basis         ... NOT available
Auxiliary 'external' fitting basis          ... NOT available

Checking pre-screening integrals            ... done (  0.0 sec) Dimension = 114
Check shell pair data                       ... done (  0.0 sec)
Shell pair information
Shell pair cut-off parameter TPreSel        ...   1.0e-12
Total number of shell pairs                 ...      6555
Shell pairs after pre-screening             ...      6046
Total number of primitive shell pairs       ...     20914
Primitive shell pairs kept                  ...     14409
          la=0 lb=0:   1496 shell pairs
          la=1 lb=0:   1703 shell pairs
          la=1 lb=1:    498 shell pairs
          la=2 lb=0:    883 shell pairs
          la=2 lb=1:    492 shell pairs
          la=2 lb=2:    134 shell pairs
          la=3 lb=0:    430 shell pairs
          la=3 lb=1:    246 shell pairs
          la=3 lb=2:    128 shell pairs
          la=3 lb=3:     36 shell pairs

Calculating one electron integrals          ... done (  0.0 sec)
Calculating RI/J V-Matrix + Cholesky decomp.... done (  0.1 sec)
Calculating Nuclear repulsion               ... done (  0.0 sec) ENN=    404.682291502637 Eh

Diagonalization of the overlap matrix:
Smallest eigenvalue                        ... 9.575e-06
Time for diagonalization                   ...    0.007 sec
Threshold for overlap eigenvalues          ... 1.000e-07
Number of eigenvalues below threshold      ... 0
Time for construction of square roots      ...    0.017 sec
Total time needed                          ...    0.031 sec

-------------------
DFT GRID GENERATION
-------------------

General Integration Accuracy     IntAcc      ... 4.388
Radial Grid Type                 RadialGrid  ... OptM3 with GC (2021)
Angular Grid (max. ang.)         AngularGrid ... 4 (Lebedev-302)
Angular grid pruning method      GridPruning ... 4 (adaptive)
Weight generation scheme         WeightScheme... mBecke (2022)
Basis function cutoff            BFCut       ... 1.0000e-11
Integration weight cutoff        WCut        ... 1.0000e-14
Partially contracted basis set               ... off
Rotationally invariant grid construction     ... off
Angular grids for H and He will be reduced by one unit

Total number of grid points                  ...    68760
Total number of batches                      ...     1082
Average number of points per batch           ...       63
Average number of grid points per atom       ...     4911

--------------------
COSX GRID GENERATION
--------------------

GRIDX 1
-------
General Integration Accuracy     IntAcc      ... 3.816
Radial Grid Type                 RadialGrid  ... OptM3 with GC (2021)
Angular Grid (max. ang.)         AngularGrid ... 1 (Lebedev-50)
Angular grid pruning method      GridPruning ... 4 (adaptive)
Weight generation scheme         WeightScheme... mBecke (2022)
Basis function cutoff            BFCut       ... 1.0000e-11
Integration weight cutoff        WCut        ... 1.0000e-14
Partially contracted basis set               ... on
Rotationally invariant grid construction     ... off
Angular grids for H and He will be reduced by one unit

Total number of grid points                  ...     9833
Total number of batches                      ...       82
Average number of points per batch           ...      119
Average number of grid points per atom       ...      702
UseSFitting                                  ... on

GRIDX 2
-------
General Integration Accuracy     IntAcc      ... 4.020
Radial Grid Type                 RadialGrid  ... OptM3 with GC (2021)
Angular Grid (max. ang.)         AngularGrid ... 2 (Lebedev-110)
Angular grid pruning method      GridPruning ... 4 (adaptive)
Weight generation scheme         WeightScheme... mBecke (2022)
Basis function cutoff            BFCut       ... 1.0000e-11
Integration weight cutoff        WCut        ... 1.0000e-14
Partially contracted basis set               ... on
Rotationally invariant grid construction     ... off
Angular grids for H and He will be reduced by one unit

Total number of grid points                  ...    19158
Total number of batches                      ...      156
Average number of points per batch           ...      122
Average number of grid points per atom       ...     1368
UseSFitting                                  ... on

GRIDX 3
-------
General Integration Accuracy     IntAcc      ... 4.338
Radial Grid Type                 RadialGrid  ... OptM3 with GC (2021)
Angular Grid (max. ang.)         AngularGrid ... 3 (Lebedev-194)
Angular grid pruning method      GridPruning ... 4 (adaptive)
Weight generation scheme         WeightScheme... mBecke (2022)
Basis function cutoff            BFCut       ... 1.0000e-11
Integration weight cutoff        WCut        ... 1.0000e-14
Partially contracted basis set               ... on
Rotationally invariant grid construction     ... off
Angular grids for H and He will be reduced by one unit

Total number of grid points                  ...    42736
Total number of batches                      ...      342
Average number of points per batch           ...      124
Average number of grid points per atom       ...     3053
UseSFitting                                  ... on
Initializing property integral containers    ... done (  0.0 sec)

SHARK setup successfully completed in   1.8 seconds

Maximum memory used throughout the entire STARTUP-calculation: 42.4 MB
-------------------------------------------------------------------------------
                                 ORCA GUESS
                   Start orbitals & Density for SCF / CASSCF
-------------------------------------------------------------------------------

------------
SCF SETTINGS
------------
Hamiltonian:
 Density Functional     Method          .... DFT(GTOs)
 Exchange Functional    Exchange        .... WB97X-V
 Correlation Functional Correlation     .... WB97X-V
 Gradients option       PostSCFGGA      .... off
 Hybrid DFT is turned on
   Fraction HF Exchange ScalHFX         ....  0.167000
   Scaling of DF-GGA-X  ScalDFX         ....  0.000000
   Scaling of DF-GGA-C  ScalDFC         ....  1.000000
   Scaling of DF-LDA-C  ScalLDAC        ....  1.000000
   Perturbative correction              ....  0.000000
 Long-range corrected/Screened/Range-Separated Hybrid DFT is turned on
   Amount of maximum screened exact exchange              ....  0.833000
   Range separation parameter mu (erf(mu*r12)/r12)        ....  0.300000
   NL short-range parameter             ....  6.000000
   NL long-range parameter              ....  0.010000
 RI-approximation to the Coulomb term is turned on
   Number of AuxJ basis functions       .... 460
   RIJ-COSX (HFX calculated with COS-X)).... on


General Settings:
 Integral files         IntName         .... sp_solv
 Hartree-Fock type      HFTyp           .... RHF
 Total Charge           Charge          ....    0
 Multiplicity           Mult            ....    1
 Number of Electrons    NEL             ....   66
 Basis Dimension        Dim             ....  290
 Nuclear Repulsion      ENuc            ....    404.6822915026 Eh

Convergence Acceleration:
 AO-DIIS                CNVDIIS         .... on
   Start iteration      DIISMaxIt       ....    12
   Startup error        DIISStart       ....  0.200000
   # of expansion vecs  DIISMaxEq       ....     5
   Bias factor          DIISBfac        ....   1.050
   Max. coefficient     DIISMaxC        ....  10.000
 MO-DIIS                CNVKDIIS        .... off
 Trust-Rad. Augm. Hess. CNVTRAH         .... auto
   Auto Start mean grad. ratio tolernc. ....  1.125000
   Auto Start start iteration           ....     1
   Auto Start num. interpolation iter.  ....    10
   Max. Number of Micro iterations      ....    24
   Max. Number of Macro iterations      .... Maxiter - #DIIS iter
   Number of Davidson start vectors     ....     2
   Converg. threshold    (grad. norm)   ....   1.000e-04
   Grad. Scal. Fac. for Micro threshold ....   0.100
   Minimum threshold for Micro iter.    ....   1.000e-02
   NR start threshold (gradient norm)   ....   1.000e-04
   Initial trust radius                 ....   0.400
   Minimum AH scaling param. (alpha)    ....   1.000
   Maximum AH scaling param. (alpha)    .... 1000.000
   Quad. conv. algorithm                .... NR
   White noise on init. David. guess    .... on
   Maximum white noise                  ....   0.010
   Pseudo random numbers                .... off
   Inactive MOs                         .... canonical
   Orbital update algorithm             .... Taylor
   Preconditioner                       .... Diag
   Full preconditioner red. dimension   ....   250
 SOSCF                  CNVSOSCF        .... on
   Start iteration      SOSCFMaxIt      ....   150
   Startup grad/error   SOSCFStart      ....  0.003300
   Hessian update       SOSCFHessUp     .... L-BFGS
 Level Shifting         CNVShift        .... on
   Level shift para.    LevelShift      ....    0.2500
   Turn off err/grad.   ShiftErr        ....    0.0010
 Zerner damping         CNVZerner       .... off
 Static damping         CNVDamp         .... on
   Fraction old density DampFac         ....    0.7000
   Max. Damping (<1)    DampMax         ....    0.9800
   Min. Damping (>=0)   DampMin         ....    0.0000
   Turn off err/grad.   DampErr         ....    0.1000

SCF Procedure:
 Maximum # iterations   MaxIter         ....   125
 SCF integral mode      SCFMode         .... Direct
   Integral package                     .... SHARK and LIBINT hybrid scheme
 Reset frequency        DirectResetFreq ....    20
 Integral Threshold     Thresh          ....  3.000e-11 Eh
 Primitive CutOff       TCut            ....  1.000e-12 Eh

Convergence Tolerance:
 Convergence Check Mode ConvCheckMode   .... Total+1el-Energy
 Convergence forced     ConvForced      .... 0
 Energy Change          TolE            ....  1.000e-07 Eh
 1-El. energy change                    ....  1.000e-04 Eh
 Orbital Gradient       TolG            ....  1.000e-04
 Orbital Rotation angle TolX            ....  1.000e-04
 DIIS Error             TolErr          ....  1.000e-07

---------------------
INITIAL GUESS: MOREAD
---------------------
Guess MOs are being read from file: sp_solv.ges
Input Geometry matches current geometry (good)
Atom 0: N(Shells)= 11 and 9 - projection required
Input basis set needs projection
NBasis(read)= 195
NBasis(calc)= 290
Basis set overlap was calculated
Using GuessMode=FMatrix for the initial guess
C*T matrix was formed
Effective Fockian was calculated
Effective Fockian was diagonalized
Initial density was built
                      ------------------
                      INITIAL GUESS DONE (   0.0 sec)
                      ------------------
             **** ENERGY FILE WAS UPDATED (sp_solv.en.tmp) ****
Finished Guess after   0.3 sec
Maximum memory used throughout the entire GUESS-calculation: 26.1 MB

-------------------------------------------------------------------------------------------
                                      ORCA LEAN-SCF
                              memory conserving SCF solver
-------------------------------------------------------------------------------------------

--------------------
CPCM SOLVATION MODEL
--------------------
CPCM parameters:
  Epsilon                                         ...      78.3550
  Refrac                                          ...       1.3328
  Rsolv                                           ...       1.3000
  Surface type                                    ... GAUSSIAN VDW
  Discretization scheme                           ... Constant charge density
    Threshold for H atoms                         ...       5.0000 (charges/Ang^2)
    Threshold for non-H atoms                     ...       5.0000 (charges/Ang^2)
  Epsilon function type                           ...         CPCM
Solvent:                                          ... WATER
SMD-CDS solvent descriptors:
  Soln                                            ...       1.3328
  Soln25                                          ...       1.3323
  Sola                                            ...       0.0000
  Solb                                            ...       0.0000
  Solg                                            ...       0.0000
  Solc                                            ...       0.0000
  Solh                                            ...       0.0000
Radii:
  Scheme                                          ... Element-dependent radii
  Radius for C  used is    3.4960 Bohr (=   1.8500 Ang.)
  Radius for N  used is    3.5716 Bohr (=   1.8900 Ang.)
  Radius for Cl used is    4.4975 Bohr (=   2.3800 Ang.)
  Radius for H  used is    2.2677 Bohr (=   1.2000 Ang.)
Calculating surface                               ...        done! (  0.0s)
Cavity surface points                             ...         1191
Cavity Volume                                     ...     978.9485
Cavity Surface-area                               ...     562.8285
Calculating surface distance matrix               ...        done! (  0.0s)
Performing Cholesky decomposition & store         ...        done! (  0.1s)
Overall time for CPCM initialization              ...                 0.1s

----------------------------------------D-I-I-S--------------------------------------------
Iteration    Energy (Eh)           Delta-E    RMSDP     MaxDP     DIISErr   Damp  Time(sec)
-------------------------------------------------------------------------------------------
               ***  Starting incremental Fock matrix formation  ***
    1    -747.4199364087338608     0.00e+00  1.63e-03  4.01e-02  5.59e-02  0.700  14.4
    2    -747.4255529478569997    -5.62e-03  1.38e-03  3.66e-02  4.15e-02  0.700   7.8
                               ***Turning on AO-DIIS***
    3    -747.4297792769781381    -4.23e-03  1.13e-03  3.21e-02  3.01e-02  0.700   7.7
    4    -747.4328888973992662    -3.11e-03  2.82e-03  8.26e-02  2.13e-02  0.000   7.7
                              *** Initializing SOSCF ***
---------------------------------------S-O-S-C-F--------------------------------------
Iteration    Energy (Eh)           Delta-E    RMSDP     MaxDP     MaxGrad    Time(sec)
--------------------------------------------------------------------------------------
    5    -747.4408047555767780    -7.92e-03  1.57e-04  6.07e-03  1.93e-03     7.9
               *** Restarting incremental Fock matrix formation ***
    6    -747.4408332807926172    -2.85e-05  8.00e-05  2.64e-03  6.58e-04    14.3
    7    -747.4408455037474823    -1.22e-05  5.59e-05  1.77e-03  2.24e-04    11.4
    8    -747.4408477986067965    -2.29e-06  5.53e-06  2.17e-04  7.55e-05    11.1
    9    -747.4408480126347740    -2.14e-07  3.14e-06  1.20e-04  3.97e-05    10.1
   10    -747.4408480795929108    -6.70e-08  2.62e-06  9.80e-05  1.17e-05     9.5
                 **** Energy Check signals convergence ****

               *****************************************************
               *                     SUCCESS                       *
               *           SCF CONVERGED AFTER  10 CYCLES          *
               *****************************************************


------------------
NL GRID GENERATION
------------------

General Integration Accuracy     IntAcc      ... 4.004
Radial Grid Type                 RadialGrid  ... OptM3 with GC (2021)
Angular Grid (max. ang.)         AngularGrid ... 2 (Lebedev-110)
Angular grid pruning method      GridPruning ... 4 (adaptive)
Weight generation scheme         WeightScheme... mBecke (2022)
Basis function cutoff            BFCut       ... 1.0000e-10
Integration weight cutoff        WCut        ... 1.0000e-14
Partially contracted basis set               ... off
Rotationally invariant grid construction     ... off
Angular grids for H and He will be reduced by one unit

Total number of grid points                  ...    21905
Total number of batches                      ...      349
Average number of points per batch           ...       62
Average number of grid points per atom       ...     1565
Final grid set up in    0.2 sec

-------------------------------------------------------------------------------
                    post-SCF DFT-NL dispersion correction                      
-------------------------------------------------------------------------------

SCF Energy:     -747.440848080 
NL    Energy:      0.254902266 
SC+NL Energy:   -747.185945813 
NL done in  :              1.8 sec
-------------------------------------------------------------------------------
Recomputing exchange energy using gridx3       ... done (   24.939 sec)
Old exchange energy                            :    -19.910703530 Eh
New exchange energy                            :    -19.910695912 Eh
Exchange energy change after final integration :      0.000007617 Eh
Total energy after final integration           :   -747.185938196 Eh

SMD CDS free energy correction energy :                 3.01081     Kcal/mol
Total Energy after SMD CDS correction =              -747.181140161 Eh
             **** ENERGY FILE WAS UPDATED (sp_solv.en.tmp) ****

----------------
TOTAL SCF ENERGY
----------------

Total Energy       :       -747.18114016062714 Eh          -20331.83247 eV

Components:
Nuclear Repulsion  :        404.68229150263744 Eh           11011.96499 eV
Electronic Energy  :      -1152.10917204169982 Eh          -31350.48440 eV
One Electron Energy:      -1825.63807496391928 Eh          -49678.13761 eV
Two Electron Energy:        673.52890292221934 Eh           18327.65321 eV
CPCM Dielectric    :         -0.01396754053037 Eh              -0.38008 eV
SMD CDS (Gcds)     :          0.00479803546133 Eh               0.13056 eV

Virial components:
Potential Energy   :      -1492.52404868226222 Eh          -40613.64412 eV
Kinetic Energy     :        745.34290852163520 Eh           20281.81165 eV
Virial Ratio       :          2.00246628983516

DFT components:
N(Alpha)           :       32.999999721523 electrons
N(Beta)            :       32.999999721523 electrons
N(Total)           :       65.999999443045 electrons
E(X)               :      -47.308035838728 Eh       
E(C)               :       -2.927606429273 Eh       
NL Energy, E(C,NL) :        0.254902266167 Eh       
E(XC)              :      -49.980740001834 Eh       

CPCM Solvation Model Properties:
Surface-charge          :         -0.03009204667226
Corrected charge        :          0.00000000000000
Outlying charge corr.   :          0.00006845124694 Eh               0.00186 eV
Free-energy (cav+disp)  :          0.00479803546133 Eh               0.13056 eV

---------------
SCF CONVERGENCE
---------------

  Last Energy change         ...    6.6958e-08  Tolerance :   1.0000e-07
  Last MAX-Density change    ...    9.8005e-05  Tolerance :   1.0000e-05
  Last RMS-Density change    ...    2.6246e-06  Tolerance :   1.0000e-06
  Last DIIS Error            ...    1.9271e-03  Tolerance :   1.0000e-07
  Last Orbital Gradient      ...    1.1696e-05  Tolerance :   1.0000e-04
  Last Orbital Rotation      ...    2.4167e-05  Tolerance :   1.0000e-04


----------------
ORBITAL ENERGIES
----------------

  NO   OCC          E(Eh)            E(eV) 
   0   2.0000    -107.147164     -2915.6226 
   1   2.0000     -16.529331      -449.7860 
   2   2.0000     -12.107976      -329.4748 
   3   2.0000     -12.103928      -329.3646 
   4   2.0000     -12.060107      -328.1722 
   5   2.0000     -12.053971      -328.0052 
   6   2.0000     -12.049016      -327.8704 
   7   2.0000     -12.045564      -327.7765 
   8   2.0000     -11.300255      -307.4956 
   9   2.0000      -9.091789      -247.4001 
  10   2.0000      -9.089243      -247.3309 
  11   2.0000      -9.089188      -247.3294 
  12   2.0000      -1.496802       -40.7301 
  13   2.0000      -1.422793       -38.7162 
  14   2.0000      -1.368891       -37.2494 
  15   2.0000      -1.274789       -34.6888 
  16   2.0000      -1.262575       -34.3564 
  17   2.0000      -1.123502       -30.5720 
  18   2.0000      -1.111948       -30.2576 
  19   2.0000      -1.018686       -27.7199 
  20   2.0000      -1.005031       -27.3483 
  21   2.0000      -0.956278       -26.0216 
  22   2.0000      -0.939299       -25.5596 
  23   2.0000      -0.909570       -24.7507 
  24   2.0000      -0.886599       -24.1256 
  25   2.0000      -0.845090       -22.9961 
  26   2.0000      -0.837353       -22.7855 
  27   2.0000      -0.819947       -22.3119 
  28   2.0000      -0.804034       -21.8789 
  29   2.0000      -0.793559       -21.5938 
  30   2.0000      -0.751109       -20.4387 
  31   2.0000      -0.650666       -17.7055 
  32   2.0000      -0.624359       -16.9897 
  33   0.0000      -0.266779        -7.2594 
  34   0.0000      -0.253211        -6.8902 
  35   0.0000      -0.244075        -6.6416 
  36   0.0000      -0.078540        -2.1372 
  37   0.0000      -0.063894        -1.7386 
  38   0.0000      -0.018350        -0.4993 
  39   0.0000      -0.010062        -0.2738 
  40   0.0000       0.002689         0.0732 
  41   0.0000       0.015485         0.4214 
  42   0.0000       0.036357         0.9893 
  43   0.0000       0.053711         1.4615 
*Only the first 10 virtual orbitals were printed.

                    ********************************
                    * MULLIKEN POPULATION ANALYSIS *
                    ********************************

-----------------------
MULLIKEN ATOMIC CHARGES
-----------------------
   0 C :   -0.115719
   1 C :   -0.223264
   2 C :   -0.170052
   3 C :    0.001437
   4 C :    0.223961
   5 C :   -0.299376
   6 N :   -0.484692
   7 Cl:   -0.136263
   8 H :    0.163445
   9 H :    0.161887
  10 H :    0.168330
  11 H :    0.161912
  12 H :    0.266694
  13 H :    0.281701
Sum of atomic charges:   -0.0000000

--------------------------------
MULLIKEN REDUCED ORBITAL CHARGES
--------------------------------
  0 C s       :     3.162130  s :     3.162130
      pz      :     0.946275  p :     2.852899
      px      :     0.990953
      py      :     0.915671
      dz2     :     0.003963  d :     0.093247
      dxz     :     0.005993
      dyz     :     0.026352
      dx2y2   :     0.035246
      dxy     :     0.021692
      f0      :     0.001549  f :     0.007442
      f+1     :     0.000695
      f-1     :     0.000585
      f+2     :     0.000244
      f-2     :     0.001178
      f+3     :     0.001104
      f-3     :     0.002088

  1 C s       :     3.209347  s :     3.209347
      pz      :     1.021090  p :     2.919089
      px      :     0.929314
      py      :     0.968684
      dz2     :     0.004287  d :     0.087474
      dxz     :     0.016443
      dyz     :     0.010549
      dx2y2   :     0.023884
      dxy     :     0.032312
      f0      :     0.001555  f :     0.007354
      f+1     :     0.000646
      f-1     :     0.000696
      f+2     :     0.000986
      f-2     :     0.000275
      f+3     :     0.001139
      f-3     :     0.002057

  2 C s       :     3.200391  s :     3.200391
      pz      :     0.954927  p :     2.865131
      px      :     0.968029
      py      :     0.942175
      dz2     :     0.005027  d :     0.096848
      dxz     :     0.022821
      dyz     :     0.011285
      dx2y2   :     0.022500
      dxy     :     0.035214
      f0      :     0.001619  f :     0.007683
      f+1     :     0.000657
      f-1     :     0.000712
      f+2     :     0.000865
      f-2     :     0.000680
      f+3     :     0.001187
      f-3     :     0.001963

  3 C s       :     3.201279  s :     3.201279
      pz      :     1.082178  p :     2.628572
      px      :     0.753603
      py      :     0.792791
      dz2     :     0.007424  d :     0.158129
      dxz     :     0.024429
      dyz     :     0.023599
      dx2y2   :     0.054351
      dxy     :     0.048325
      f0      :     0.001983  f :     0.010583
      f+1     :     0.001043
      f-1     :     0.000714
      f+2     :     0.000953
      f-2     :     0.000995
      f+3     :     0.001647
      f-3     :     0.003248

  4 C s       :     3.016957  s :     3.016957
      pz      :     0.887222  p :     2.574295
      px      :     0.885907
      py      :     0.801166
      dz2     :     0.005867  d :     0.171220
      dxz     :     0.031601
      dyz     :     0.041959
      dx2y2   :     0.045976
      dxy     :     0.045816
      f0      :     0.002288  f :     0.013566
      f+1     :     0.000873
      f-1     :     0.001066
      f+2     :     0.001265
      f-2     :     0.001977
      f+3     :     0.001882
      f-3     :     0.004214

  5 C s       :     3.277529  s :     3.277529
      pz      :     1.034262  p :     2.928117
      px      :     0.898675
      py      :     0.995180
      dz2     :     0.005322  d :     0.086281
      dxz     :     0.017867
      dyz     :     0.008160
      dx2y2   :     0.029774
      dxy     :     0.025159
      f0      :     0.001571  f :     0.007450
      f+1     :     0.000683
      f-1     :     0.000693
      f+2     :     0.000686
      f-2     :     0.000582
      f+3     :     0.001123
      f-3     :     0.002113

  6 N s       :     3.455716  s :     3.455716
      pz      :     1.693350  p :     3.986509
      px      :     1.159118
      py      :     1.134040
      dz2     :     0.003008  d :     0.039552
      dxz     :     0.007074
      dyz     :     0.008175
      dx2y2   :     0.011728
      dxy     :     0.009567
      f0      :     0.000708  f :     0.002915
      f+1     :     0.000307
      f-1     :     0.000408
      f+2     :     0.000197
      f-2     :     0.000209
      f+3     :     0.000631
      f-3     :     0.000454

  7 Cls       :     5.866029  s :     5.866029
      pz      :     3.943630  p :    11.207178
      px      :     3.298450
      py      :     3.965098
      dz2     :     0.007454  d :     0.057877
      dxz     :     0.017922
      dyz     :     0.000418
      dx2y2   :     0.022457
      dxy     :     0.009625
      f0      :     0.000543  f :     0.005179
      f+1     :     0.000998
      f-1     :     0.000088
      f+2     :     0.000829
      f-2     :     0.000047
      f+3     :     0.001636
      f-3     :     0.001039

  8 H s       :     0.814770  s :     0.814770
      pz      :     0.004255  p :     0.021784
      px      :     0.013989
      py      :     0.003540

  9 H s       :     0.816004  s :     0.816004
      pz      :     0.004787  p :     0.022109
      px      :     0.006787
      py      :     0.010535

 10 H s       :     0.809635  s :     0.809635
      pz      :     0.004249  p :     0.022035
      px      :     0.005471
      py      :     0.012315

 11 H s       :     0.816119  s :     0.816119
      pz      :     0.004728  p :     0.021969
      px      :     0.005187
      py      :     0.012054

 12 H s       :     0.695746  s :     0.695746
      pz      :     0.012634  p :     0.037560
      px      :     0.019194
      py      :     0.005732

 13 H s       :     0.682109  s :     0.682109
      pz      :     0.012027  p :     0.036191
      px      :     0.007996
      py      :     0.016168


------------------------
MULLIKEN OVERLAP CHARGES
------------------------
B(  0-C ,  1-C ) :   0.8868 B(  0-C ,  3-C ) :  -0.1910 B(  0-C ,  5-C ) :   0.9083 
B(  0-C ,  8-H ) :   0.8794 B(  0-C ,  9-H ) :  -0.1036 B(  0-C , 11-H ) :  -0.0648 
B(  1-C ,  2-C ) :   0.8274 B(  1-C ,  3-C ) :   0.1123 B(  1-C ,  4-C ) :  -0.2181 
B(  1-C ,  8-H ) :  -0.0976 B(  1-C ,  9-H ) :   0.8909 B(  1-C , 10-H ) :  -0.0992 
B(  2-C ,  3-C ) :   0.6449 B(  2-C ,  4-C ) :   0.1158 B(  2-C ,  5-C ) :  -0.2196 
B(  2-C ,  7-Cl) :  -0.0833 B(  2-C ,  9-H ) :  -0.1037 B(  2-C , 10-H ) :   0.9032 
B(  3-C ,  4-C ) :   0.6005 B(  3-C ,  5-C ) :   0.1555 B(  3-C ,  6-N ) :  -0.1506 
B(  3-C ,  7-Cl) :   0.6055 B(  3-C , 10-H ) :  -0.1497 B(  4-C ,  5-C ) :   0.7837 
B(  4-C ,  6-N ) :   0.7310 B(  4-C ,  7-Cl) :  -0.1436 B(  4-C , 11-H ) :  -0.0874 
B(  4-C , 12-H ) :  -0.0551 B(  4-C , 13-H ) :  -0.0685 B(  5-C ,  6-N ) :  -0.1265 
B(  5-C ,  8-H ) :  -0.0962 B(  5-C , 11-H ) :   0.8564 B(  6-N , 12-H ) :   0.7621 
B(  6-N , 13-H ) :   0.7469 


                     *******************************
                     * LOEWDIN POPULATION ANALYSIS *
                     *******************************

----------------------
LOEWDIN ATOMIC CHARGES
----------------------
   0 C :   -0.146574
   1 C :   -0.171167
   2 C :   -0.152389
   3 C :   -0.402777
   4 C :   -0.255807
   5 C :   -0.132362
   6 N :   -0.045289
   7 Cl:    0.340891
   8 H :    0.153827
   9 H :    0.150682
  10 H :    0.156146
  11 H :    0.156037
  12 H :    0.166743
  13 H :    0.182041

-------------------------------
LOEWDIN REDUCED ORBITAL CHARGES
-------------------------------
  0 C s       :     2.764595  s :     2.764595
      pz      :     0.870761  p :     2.941251
      px      :     0.998256
      py      :     1.072233
      dz2     :     0.024376  d :     0.397172
      dxz     :     0.013430
      dyz     :     0.092066
      dx2y2   :     0.163051
      dxy     :     0.104248
      f0      :     0.003028  f :     0.043557
      f+1     :     0.003029
      f-1     :     0.004226
      f+2     :     0.001560
      f-2     :     0.008401
      f+3     :     0.008303
      f-3     :     0.015010

  1 C s       :     2.762878  s :     2.762878
      pz      :     0.926537  p :     2.983341
      px      :     1.037336
      py      :     1.019468
      dz2     :     0.024554  d :     0.382060
      dxz     :     0.056055
      dyz     :     0.033836
      dx2y2   :     0.111025
      dxy     :     0.156589
      f0      :     0.002998  f :     0.042889
      f+1     :     0.003901
      f-1     :     0.003492
      f+2     :     0.006987
      f-2     :     0.001891
      f+3     :     0.008370
      f-3     :     0.015249

  2 C s       :     2.766306  s :     2.766306
      pz      :     0.877997  p :     2.947392
      px      :     1.067192
      py      :     1.002204
      dz2     :     0.025586  d :     0.394870
      dxz     :     0.078723
      dyz     :     0.031406
      dx2y2   :     0.114087
      dxy     :     0.145068
      f0      :     0.003242  f :     0.043821
      f+1     :     0.004081
      f-1     :     0.003438
      f+2     :     0.005888
      f-2     :     0.004975
      f+3     :     0.008490
      f-3     :     0.013706

  3 C s       :     2.774894  s :     2.774894
      pz      :     0.985177  p :     2.987468
      px      :     0.921304
      py      :     1.080988
      dz2     :     0.041133  d :     0.580288
      dxz     :     0.080951
      dyz     :     0.076490
      dx2y2   :     0.214853
      dxy     :     0.166862
      f0      :     0.004286  f :     0.060126
      f+1     :     0.005063
      f-1     :     0.004594
      f+2     :     0.006196
      f-2     :     0.007109
      f+3     :     0.011464
      f-3     :     0.021414

  4 C s       :     2.712163  s :     2.712163
      pz      :     0.829471  p :     2.821583
      px      :     1.026015
      py      :     0.966097
      dz2     :     0.038760  d :     0.643784
      dxz     :     0.101670
      dyz     :     0.134221
      dx2y2   :     0.176003
      dxy     :     0.193130
      f0      :     0.005847  f :     0.078277
      f+1     :     0.004878
      f-1     :     0.005887
      f+2     :     0.008912
      f-2     :     0.014059
      f+3     :     0.012645
      f-3     :     0.026048

  5 C s       :     2.758705  s :     2.758705
      pz      :     0.932970  p :     2.963493
      px      :     1.017891
      py      :     1.012632
      dz2     :     0.025078  d :     0.368577
      dxz     :     0.061023
      dyz     :     0.023384
      dx2y2   :     0.132828
      dxy     :     0.126264
      f0      :     0.003006  f :     0.041587
      f+1     :     0.004160
      f-1     :     0.003296
      f+2     :     0.004767
      f-2     :     0.003795
      f+3     :     0.008125
      f-3     :     0.014438

  6 N s       :     3.007403  s :     3.007403
      pz      :     1.555848  p :     3.889808
      px      :     1.166414
      py      :     1.167546
      dz2     :     0.007041  d :     0.137662
      dxz     :     0.018205
      dyz     :     0.021814
      dx2y2   :     0.051895
      dxy     :     0.038707
      f0      :     0.001162  f :     0.010416
      f+1     :     0.000579
      f-1     :     0.001073
      f+2     :     0.001406
      f-2     :     0.001719
      f+3     :     0.001971
      f-3     :     0.002505

  7 Cls       :     5.552093  s :     5.552093
      pz      :     3.871198  p :    11.000560
      px      :     3.278671
      py      :     3.850691
      dz2     :     0.011223  d :     0.095672
      dxz     :     0.030569
      dyz     :     0.000422
      dx2y2   :     0.034637
      dxy     :     0.018822
      f0      :     0.001194  f :     0.010783
      f+1     :     0.001719
      f-1     :     0.000178
      f+2     :     0.002023
      f-2     :     0.000075
      f+3     :     0.002974
      f-3     :     0.002620

  8 H s       :     0.787235  s :     0.787235
      pz      :     0.012494  p :     0.058938
      px      :     0.035692
      py      :     0.010752

  9 H s       :     0.789242  s :     0.789242
      pz      :     0.014093  p :     0.060076
      px      :     0.018427
      py      :     0.027556

 10 H s       :     0.784007  s :     0.784007
      pz      :     0.012719  p :     0.059848
      px      :     0.015238
      py      :     0.031890

 11 H s       :     0.783975  s :     0.783975
      pz      :     0.014059  p :     0.059988
      px      :     0.014783
      py      :     0.031146

 12 H s       :     0.721173  s :     0.721173
      pz      :     0.040030  p :     0.112084
      px      :     0.054227
      py      :     0.017827

 13 H s       :     0.708483  s :     0.708483
      pz      :     0.037751  p :     0.109476
      px      :     0.026920
      py      :     0.044805


---------------------------------
LOEWDIN BOND ORDERS (THRESH 0.050000)
---------------------------------
B(  0-C ,  1-C ) :   1.5689 B(  0-C ,  2-C ) :   0.2467 B(  0-C ,  3-C ) :   0.1034 
B(  0-C ,  4-C ) :   0.2344 B(  0-C ,  5-C ) :   1.6157 B(  0-C ,  8-H ) :   0.8245 
B(  0-C ,  9-H ) :   0.0942 B(  0-C , 11-H ) :   0.0962 B(  1-C ,  2-C ) :   1.5883 
B(  1-C ,  3-C ) :   0.2462 B(  1-C ,  4-C ) :   0.0959 B(  1-C ,  5-C ) :   0.2413 
B(  1-C ,  8-H ) :   0.0943 B(  1-C ,  9-H ) :   0.8280 B(  1-C , 10-H ) :   0.0943 
B(  2-C ,  3-C ) :   1.5684 B(  2-C ,  4-C ) :   0.2250 B(  2-C ,  5-C ) :   0.1074 
B(  2-C ,  7-Cl) :   0.1643 B(  2-C ,  9-H ) :   0.0976 B(  2-C , 10-H ) :   0.8193 
B(  3-C ,  4-C ) :   1.4323 B(  3-C ,  5-C ) :   0.2302 B(  3-C ,  6-N ) :   0.1657 
B(  3-C ,  7-Cl) :   1.5605 B(  3-C , 10-H ) :   0.0992 B(  4-C ,  5-C ) :   1.4445 
B(  4-C ,  6-N ) :   1.5554 B(  4-C ,  7-Cl) :   0.1520 B(  4-C , 11-H ) :   0.0953 
B(  4-C , 12-H ) :   0.0998 B(  4-C , 13-H ) :   0.1015 B(  5-C ,  6-N ) :   0.1681 
B(  5-C ,  8-H ) :   0.0989 B(  5-C , 11-H ) :   0.8178 B(  6-N , 12-H ) :   0.9205 
B(  6-N , 13-H ) :   0.9171 

------------------------------------------
LOEWDIN REDUCED ORBITAL POPULATIONS PER MO
-------------------------------------------
THRESHOLD FOR PRINTING IS 0.1%%
                      0         1         2         3         4         5   
                 -107.14716 -16.52933 -12.10798 -12.10393 -12.06011 -12.05397
                   2.00000   2.00000   2.00000   2.00000   2.00000   2.00000
                  --------  --------  --------  --------  --------  --------
 0 C  s               0.0       0.0       0.0       0.0       0.0      93.4
 1 C  s               0.0       0.0       0.0       0.0       0.5       1.3
 1 C  dx2y2           0.0       0.0       0.0       0.0       0.2       0.1
 1 C  dxy             0.0       0.0       0.0       0.0       0.0       0.1
 2 C  s               0.0       0.0       0.1       0.0      98.4       0.0
 2 C  dxy             0.0       0.0       0.2       0.0       0.0       0.0
 3 C  s               0.0       0.0      92.1       6.8       0.1       0.0
 3 C  dxy             0.0       0.0       0.0       0.1       0.2       0.0
 4 C  s               0.0       0.0       6.8      92.0       0.0       0.0
 5 C  s               0.0       0.0       0.0       0.0       0.0       4.2
 5 C  dx2y2           0.0       0.0       0.0       0.2       0.0       0.0
 5 C  dxy             0.0       0.0       0.0       0.0       0.0       0.2
 6 N  s               0.0      99.6       0.0       0.0       0.0       0.0
 7 Cl s             100.0       0.0       0.0       0.0       0.0       0.0

                      6         7         8         9        10        11   
                 -12.04902 -12.04556 -11.30026  -9.09179  -9.08924  -9.08919
                   2.00000   2.00000   2.00000   2.00000   2.00000   2.00000
                  --------  --------  --------  --------  --------  --------
 0 C  s               3.8       1.8       0.0       0.0       0.0       0.0
 0 C  dxy             0.2       0.1       0.0       0.0       0.0       0.0
 1 C  s               1.0      96.2       0.0       0.0       0.0       0.0
 2 C  s               0.0       0.5       0.0       0.0       0.0       0.0
 2 C  dx2y2           0.0       0.2       0.0       0.0       0.0       0.0
 4 C  dx2y2           0.2       0.0       0.0       0.0       0.0       0.0
 5 C  s              94.1       0.6       0.0       0.0       0.0       0.0
 7 Cl s               0.0       0.0      99.8       0.0       0.0       0.0
 7 Cl pz              0.0       0.0       0.0       0.0      44.0      56.0
 7 Cl px              0.0       0.0       0.0      99.0       0.7       0.3
 7 Cl py              0.0       0.0       0.0       1.0      55.3      43.7

                     12        13        14        15        16        17   
                  -1.49680  -1.42279  -1.36889  -1.27479  -1.26258  -1.12350
                   2.00000   2.00000   2.00000   2.00000   2.00000   2.00000
                  --------  --------  --------  --------  --------  --------
 0 C  s               0.3       0.7      11.8       4.8      10.4       0.3
 0 C  px              0.3       0.4       2.8       0.3       0.2       0.3
 0 C  py              0.1       0.1       0.1       6.8       2.5      13.3
 0 C  dz2             0.0       0.0       0.6       0.1       0.1       0.0
 0 C  dx2y2           0.0       0.0       0.1       0.0       0.5       0.0
 0 C  dxy             0.0       0.0       0.0       1.7       0.4       0.6
 0 C  f+3             0.0       0.0       0.1       0.0       0.1       0.0
 1 C  s               0.2       1.4      11.3       3.4      10.7       5.0
 1 C  px              0.1       0.7       0.7       5.5       1.2       4.9
 1 C  py              0.1       0.2       2.3       2.0       1.3       0.5
 1 C  dz2             0.0       0.1       0.6       0.1       0.1       0.0
 1 C  dx2y2           0.0       0.0       0.0       1.9       0.2       0.2
 1 C  dxy             0.0       0.0       0.1       0.0       0.6       0.1
 2 C  s               0.5       4.5       7.6      15.7       0.0       5.3
 2 C  px              0.1       1.0       2.6       0.1       5.7       5.0
 2 C  py              0.6       1.8       1.1       0.5       1.6       0.2
 2 C  dz2             0.0       0.2       0.3       0.2       0.0       0.0
 2 C  dx2y2           0.0       0.0       0.0       0.1       1.6       0.1
 2 C  dxy             0.0       0.4       0.1       0.2       0.7       0.1
 2 C  f+3             0.0       0.0       0.1       0.1       0.0       0.0
 3 C  s               3.7      14.9       1.4       2.6       8.4       0.1
 3 C  px              0.0       5.5      11.8       1.6       2.7       0.3
 3 C  py              2.1       0.8       0.1       6.2       2.2      17.4
 3 C  dz2             0.3       1.1       0.0       0.0       0.0       0.0
 3 C  dx2y2           0.2       2.1       0.5       0.4       1.3       0.0
 3 C  dxy             0.0       0.0       0.1       2.0       0.3       0.2
 3 C  f+3             0.0       0.3       0.0       0.0       0.1       0.0
 4 C  s              15.9       0.6       2.5       2.5       8.3       3.1
 4 C  px              2.6       0.2       4.5       6.4       0.0       8.5
 4 C  py              4.0       6.3       2.3       0.3       4.9       1.7
 4 C  dz2             1.2       0.0       0.1       0.0       0.0       0.1
 4 C  dx2y2           0.3       0.0       0.0       2.1       0.1       0.1
 4 C  dxy             1.3       1.2       0.0       0.1       1.2       0.1
 4 C  f+3             0.3       0.0       0.0       0.0       0.0       0.0
 5 C  s               2.1       0.4       8.6      16.0       0.0       6.9
 5 C  px              2.6       0.0       0.0       0.1       6.4       1.1
 5 C  py              0.0       0.5       3.1       0.6       1.1       0.8
 5 C  dz2             0.2       0.0       0.4       0.2       0.0       0.0
 5 C  dx2y2           0.4       0.0       0.0       0.1       1.1       0.0
 5 C  dxy             0.1       0.0       0.0       0.2       1.2       0.0
 5 C  f+3             0.0       0.0       0.1       0.1       0.0       0.0
 6 N  s              37.4       3.9       1.6       1.0       2.6       0.6
 6 N  pz              0.3       0.0       0.0       0.0       0.1       0.1
 6 N  px              0.6       0.0       0.3       0.9       0.9       0.1
 6 N  py              1.4       0.3       0.2       0.5       2.9       8.7
 6 N  dz2             0.2       0.0       0.0       0.0       0.0       0.0
 6 N  dx2y2           0.0       0.0       0.0       0.0       0.1       0.3
 6 N  dxy             0.2       0.0       0.0       0.1       0.2       0.1
 7 Cl s               1.2      46.2      13.4       2.6       5.9       0.0
 7 Cl px              0.3       0.7       0.3       0.7       1.7       0.0
 7 Cl py              0.0       0.0       0.0       0.0       0.0       0.4
 7 Cl dx2y2           0.0       0.2       0.0       0.1       0.2       0.0
 7 Cl dxy             0.0       0.0       0.0       0.0       0.0       0.3
 8 H  s               0.0       0.1       1.4       0.8       1.8       0.1
 8 H  px              0.0       0.0       0.1       0.1       0.2       0.0
 8 H  py              0.0       0.0       0.0       0.0       0.0       0.1
 9 H  s               0.0       0.2       1.3       0.6       1.9       2.0
 9 H  py              0.0       0.0       0.1       0.0       0.2       0.2
10 H  s               0.1       0.7       0.8       2.6       0.0       2.5
10 H  py              0.0       0.0       0.0       0.3       0.0       0.3
11 H  s               0.3       0.0       1.0       2.6       0.0       3.1
11 H  py              0.0       0.0       0.1       0.3       0.0       0.3
12 H  s               7.6       0.7       0.6       0.6       1.4       0.4
12 H  pz              0.1       0.0       0.0       0.0       0.0       0.0
12 H  px              1.2       0.2       0.1       0.1       0.2       0.0
12 H  py              0.0       0.0       0.0       0.0       0.0       0.1
13 H  s               7.5       0.9       0.4       0.4       1.5       2.8
13 H  px              0.2       0.0       0.0       0.0       0.1       0.1
13 H  py              1.0       0.1       0.1       0.0       0.1       0.1

                     18        19        20        21        22        23   
                  -1.11195  -1.01869  -1.00503  -0.95628  -0.93930  -0.90957
                   2.00000   2.00000   2.00000   2.00000   2.00000   2.00000
                  --------  --------  --------  --------  --------  --------
 0 C  s               6.3       2.1       0.0       0.4       0.1       1.0
 0 C  px              1.1       3.9       0.0       1.4       0.0      18.6
 0 C  py              0.9       0.1       9.3       0.1      10.2       0.0
 0 C  dx2y2           0.0       0.0       0.0       0.9       0.1       0.6
 0 C  dxy             0.0       0.0       0.1       0.1       0.1       0.1
 1 C  s               3.0       0.4       0.1       1.9       0.2       0.5
 1 C  px              3.9       1.1       5.9       2.1       8.9       3.7
 1 C  py              5.4       0.3       3.1      10.7       1.2       4.3
 1 C  dz2             0.0       0.0       0.0       0.0       0.0       0.1
 1 C  dx2y2           0.3       0.0       0.1       0.0       0.1       0.2
 1 C  dxy             0.0       0.4       0.0       0.0       0.1       0.4
 2 C  s               1.3       0.8       1.1       0.4       0.1       0.9
 2 C  px              8.1       5.9       2.4       0.2       7.0       3.5
 2 C  py              4.0       0.5       4.4       4.7       1.1       5.9
 2 C  dx2y2           0.5       0.0       0.0       0.5       0.1       1.5
 2 C  dxy             0.1       0.0       0.1       0.7       0.0       0.0
 2 C  f-3             0.0       0.1       0.0       0.0       0.0       0.2
 3 C  s               5.9       0.0       0.7       1.1       0.0       0.1
 3 C  px              0.1       1.8       0.1      10.9       0.0       5.0
 3 C  py              0.0       6.0       1.6       1.2       8.5       1.5
 3 C  dx2y2           0.1       0.9       0.2       0.3       0.0       2.0
 3 C  dxy             0.0       0.4       0.3       0.2       0.2       0.2
 3 C  f-3             0.0       0.0       0.0       0.0       0.0       0.2
 4 C  s               2.2       0.0       0.0       0.2       0.0       0.8
 4 C  pz              0.0       0.3       0.0       0.1       0.0       0.1
 4 C  px              5.4       4.4       4.3       0.0       6.2       0.2
 4 C  py              6.8      13.6       0.1       0.5       2.1       3.0
 4 C  dz2             0.1       0.0       0.0       0.0       0.0       0.1
 4 C  dx2y2           0.3       0.2       1.9       0.3       1.8       0.2
 4 C  dxy             0.0       0.3       0.4       2.7       0.0       0.1
 4 C  f-3             0.0       0.0       0.2       0.0       0.5       0.0
 5 C  s               0.7       0.2       0.9       1.4       0.3       0.3
 5 C  px              9.5       3.0       6.2       0.6       7.8       0.8
 5 C  py              4.6       0.5       0.1       5.8       4.2       0.3
 5 C  dx2y2           0.3       0.0       0.0       0.0       0.1       1.3
 5 C  dxy             0.1       1.6       0.0       0.3       0.2       0.0
 5 C  f-3             0.1       0.1       0.0       0.0       0.0       0.3
 6 N  s               0.5       0.3       0.0       0.1       0.0       0.0
 6 N  pz              0.2       1.2       0.0       0.2       0.1       0.3
 6 N  px              7.9      15.1      15.9       0.1      14.0       0.3
 6 N  py              1.6      14.5      17.1       2.9       4.7       1.3
 6 N  dxz             0.0       0.1       0.2       0.0       0.2       0.0
 6 N  dyz             0.0       0.0       0.1       0.0       0.1       0.0
 6 N  dx2y2           0.0       0.1       0.1       0.0       1.5       0.0
 6 N  dxy             0.3       0.4       0.1       0.1       0.2       0.0
 7 Cl s               2.9       0.5       0.0       3.2       0.1       1.1
 7 Cl px              4.4       2.2       0.4      25.3       0.3      14.8
 7 Cl py              0.1       0.2       0.4       0.8       0.8       0.1
 7 Cl dz2             0.1       0.0       0.0       0.2       0.0       0.0
 7 Cl dx2y2           0.3       0.1       0.1       0.5       0.0       0.2
 7 Cl dxy             0.0       0.1       0.0       0.1       0.2       0.0
 8 H  s               2.9       3.4       0.0       0.2       0.1      12.2
 8 H  px              0.3       0.2       0.0       0.0       0.0       0.4
 8 H  py              0.0       0.0       0.1       0.0       0.1       0.0
 9 H  s               1.5       0.1       0.0       8.7       0.7       2.5
 9 H  px              0.2       0.0       0.1       0.2       0.0       0.0
 9 H  py              0.0       0.0       0.0       0.2       0.1       0.1
10 H  s               0.6       1.9       1.6       0.5       0.0       7.2
10 H  px              0.2       0.0       0.1       0.0       0.1       0.0
10 H  py              0.0       0.2       0.0       0.0       0.0       0.2
11 H  s               0.5       0.1       0.9       5.3       0.7       0.1
11 H  px              0.2       0.0       0.0       0.1       0.2       0.0
11 H  py              0.0       0.0       0.1       0.2       0.0       0.0
12 H  s               3.0       6.8       6.0       0.0       7.3       0.1
12 H  pz              0.1       0.0       0.1       0.0       0.1       0.0
12 H  px              0.2       0.2       0.2       0.0       0.1       0.0
12 H  py              0.0       0.3       0.2       0.0       0.0       0.0
13 H  s               0.2       1.9      11.3       1.0       6.2       0.3
13 H  pz              0.0       0.0       0.1       0.0       0.1       0.0
13 H  px              0.1       0.5       0.0       0.0       0.0       0.0
13 H  py              0.0       0.0       0.4       0.0       0.2       0.0

                     24        25        26        27        28        29   
                  -0.88660  -0.84509  -0.83735  -0.81995  -0.80403  -0.79356
                   2.00000   2.00000   2.00000   2.00000   2.00000   2.00000
                  --------  --------  --------  --------  --------  --------
 0 C  s               0.4       0.1       0.2       0.2       0.0       0.0
 0 C  pz              0.0       1.3       0.4       0.0       0.2       0.0
 0 C  px              3.7       1.4       5.6       9.5       0.1       0.0
 0 C  py              0.2       1.1       3.7       4.3       0.0       0.7
 0 C  dz2             0.1       0.0       0.0       0.0       0.0       0.0
 0 C  dx2y2           0.4       0.4       1.5       3.4       0.0       0.0
 0 C  dxy             0.3       0.4       0.8       0.0       0.0       0.1
 0 C  f-3             0.2       0.1       0.1       0.0       0.0       0.0
 1 C  s               0.3       0.2       0.5       0.0       0.0       0.0
 1 C  pz              0.0       1.2       0.5       0.0       0.0       0.0
 1 C  px              0.4       2.5       5.8       4.0       0.0       0.4
 1 C  py              0.8       3.5       8.6       5.4       0.0       1.4
 1 C  dx2y2           0.5       0.3       1.0       0.3       0.0       0.0
 1 C  dxy             1.1       1.0       3.2       0.2       0.0       0.4
 1 C  f-3             0.3       0.0       0.0       0.1       0.0       0.0
 2 C  s               0.5       0.1       0.3       0.2       0.0       0.1
 2 C  pz              0.0       3.0       1.2       0.0       0.3       0.0
 2 C  px              2.0       1.1       2.7       5.1       0.0       1.0
 2 C  py             17.6       0.1       0.7       4.1       0.0       1.2
 2 C  dyz             0.0       0.3       0.1       0.0       0.0       0.0
 2 C  dx2y2           0.1       0.0       0.0       0.9       0.0       0.0
 2 C  dxy             1.4       0.3       0.9       1.7       0.0       0.4
 3 C  s               0.6       0.0       0.1       0.0       0.0       0.0
 3 C  pz              0.0      11.5       4.5       0.0       2.1       0.0
 3 C  px              4.7       0.4       0.8       0.4       0.0       0.0
 3 C  py              0.5       0.2       1.0       1.8       0.0       2.7
 3 C  dz2             0.2       0.0       0.0       0.0       0.0       0.0
 3 C  dxz             0.0       0.1       0.1       0.0       2.1       0.0
 3 C  dyz             0.0       0.2       0.0       0.0       0.6       0.0
 3 C  dx2y2           0.0       0.1       0.4       1.5       0.0       0.2
 3 C  dxy             0.8       0.1       0.1       0.3       0.0       2.7
 3 C  f0              0.0       0.1       0.0       0.0       0.0       0.0
 3 C  f+2             0.0       0.0       0.0       0.0       0.2       0.0
 3 C  f-3             0.2       0.0       0.0       0.1       0.0       0.3
 4 C  s               0.3       0.0       0.0       0.1       0.0       0.1
 4 C  pz              0.0      15.3       3.9       0.0       6.3       0.1
 4 C  px              2.1       0.0       0.9       3.7       0.2       1.2
 4 C  py              0.1       0.2       0.2       1.0       0.1       1.1
 4 C  dxz             0.0       0.3       0.0       0.0       0.1       0.0
 4 C  dyz             0.0       0.1       0.0       0.0       1.6       0.0
 4 C  dx2y2           0.9       0.0       0.1       0.2       0.0       0.0
 4 C  dxy             0.4       0.3       0.9       0.5       0.0       0.1
 4 C  f0              0.0       0.2       0.0       0.0       0.0       0.0
 4 C  f-2             0.0       0.0       0.0       0.0       0.2       0.0
 4 C  f-3             0.4       0.0       0.0       0.0       0.0       0.0
 5 C  s               0.6       0.1       0.1       0.3       0.0       0.0
 5 C  pz              0.0       3.5       1.1       0.0       1.5       0.0
 5 C  px              5.9       0.3       1.7       4.2       0.1       0.5
 5 C  py             15.5       1.9       5.6       4.6       0.0       1.4
 5 C  dxz             0.0       0.4       0.1       0.0       0.3       0.0
 5 C  dx2y2           0.2       0.0       0.0       2.6       0.0       0.2
 5 C  dxy             0.7       0.0       0.1       1.1       0.0       0.4
 6 N  s               0.0       0.8       0.1       0.0       0.8       0.1
 6 N  pz              0.1      19.5       3.5       0.0      24.8       0.2
 6 N  px              0.1       0.2       0.8       0.3       0.4       0.3
 6 N  py              0.1       0.2       0.7       0.2       0.5       0.2
 6 N  dyz             0.0       0.1       0.0       0.0       0.0       0.0
 6 N  dx2y2           0.0       0.0       0.0       0.2       0.0       0.1
 7 Cl s               0.4       0.0       0.1       0.1       0.0       0.0
 7 Cl pz              0.0      15.4       8.0       0.0      54.7       0.4
 7 Cl px              5.6       0.4       1.5       4.9       0.0       0.5
 7 Cl py              0.0       1.1       4.7       6.0       0.9      76.8
 7 Cl dxz             0.0       0.1       0.1       0.0       0.0       0.0
 7 Cl dxy             0.0       0.0       0.0       0.0       0.0       0.2
 8 H  s               1.0       1.3       4.7       9.1       0.1       0.1
 8 H  px              0.0       0.0       0.1       0.2       0.0       0.0
 9 H  s               0.8       4.9      12.7       0.3       0.0       1.4
 9 H  px              0.0       0.0       0.1       0.1       0.0       0.0
 9 H  py              0.0       0.1       0.2       0.0       0.0       0.0
10 H  s              12.6       0.0       0.3       7.1       0.0       0.6
10 H  px              0.1       0.0       0.1       0.0       0.0       0.0
10 H  py              0.3       0.0       0.0       0.2       0.0       0.0
11 H  s              13.5       0.5       1.3       7.8       0.0       1.6
11 H  py              0.4       0.0       0.0       0.1       0.0       0.0
12 H  s               0.0       0.2       0.2       0.3       0.1       0.3
12 H  pz              0.0       0.3       0.1       0.0       0.4       0.0
13 H  s               0.0       0.1       0.1       0.4       0.1       0.0
13 H  pz              0.0       0.3       0.1       0.0       0.5       0.0

                     30        31        32        33        34        35   
                  -0.75111  -0.65067  -0.62436  -0.26678  -0.25321  -0.24408
                   2.00000   2.00000   2.00000   0.00000   0.00000   0.00000
                  --------  --------  --------  --------  --------  --------
 0 C  pz             15.5      23.7       2.5       0.0      22.8       0.0
 0 C  dxz             0.4       0.1       0.0       0.0       1.1       0.1
 0 C  dyz             0.1       0.7       3.8       0.0       0.0       5.0
 0 C  f0              0.1       0.0       0.0       0.0       0.2       0.0
 0 C  f-2             0.0       0.1       0.3       0.0       0.0       0.4
 1 C  s               0.0       0.0       0.0       0.2       0.0       0.0
 1 C  pz             18.0       0.3      26.3       0.0       4.3      16.1
 1 C  px              0.0       0.0       0.0       0.7       0.0       0.0
 1 C  dxz             0.2       2.5       0.0       0.0       1.8       2.5
 1 C  dyz             0.4       1.3       0.0       0.0       2.5       0.0
 1 C  dxy             0.0       0.0       0.0       0.3       0.0       0.0
 1 C  f0              0.1       0.0       0.0       0.0       0.0       0.1
 1 C  f+2             0.0       0.3       0.0       0.0       0.3       0.2
 2 C  s               0.0       0.0       0.0       0.2       0.0       0.0
 2 C  pz             15.7      17.3       6.4       0.0       6.8      18.9
 2 C  px              0.0       0.0       0.0       0.1       0.0       0.0
 2 C  py              0.0       0.0       0.0       0.5       0.0       0.0
 2 C  dxz             0.3       0.9       2.6       0.0       2.1       1.9
 2 C  dyz             0.2       0.4       0.6       0.0       1.9       0.2
 2 C  dx2y2           0.0       0.0       0.0       1.9       0.0       0.0
 2 C  dxy             0.0       0.0       0.0       1.6       0.0       0.0
 2 C  f0              0.1       0.0       0.0       0.0       0.1       0.2
 2 C  f+2             0.0       0.0       0.2       0.0       0.1       0.2
 2 C  f-2             0.0       0.1       0.1       0.0       0.2       0.0
 2 C  f-3             0.0       0.0       0.0       0.4       0.0       0.0
 3 C  s               0.0       0.0       0.0       8.2       0.0       0.0
 3 C  pz              5.4      18.7       7.0       0.0      21.9       0.2
[...]
 2 C  f-3             2.4       1.9       0.2       0.0       0.0       0.0
 3 C  s               0.2       0.1       0.4       0.0       0.0       1.1
 3 C  px              0.0       0.2       0.3       0.0       0.0       0.4
 3 C  py              5.9       1.7       0.1       0.0       0.0       0.0
 3 C  dx2y2           0.3       0.5       0.2       0.0       0.0       0.0
 3 C  dxy             1.0       2.9       0.1       0.0       0.1       0.0
 3 C  f-1             1.6       0.3       0.0       0.0       0.0       0.0
 3 C  f+3             0.2       0.1       0.3       0.0       0.0       0.0
 3 C  f-3             0.1       6.3       0.2       0.0       0.0       0.0
 4 C  s               0.1       0.0       1.8       0.0       0.1       0.1
 4 C  px              5.2       0.2       0.2       0.0       0.0       0.1
 4 C  py              4.0       0.1       0.3       0.0       0.0       0.0
 4 C  dz2             0.0       0.0       0.8       0.0       0.0       0.0
 4 C  dyz             0.0       0.0       0.1       0.0       0.0       0.0
 4 C  dx2y2           1.0       0.3       0.6       0.0       0.0       0.0
 4 C  dxy             0.2       0.0       4.1       0.0       0.0       0.0
 4 C  f+1             0.9       0.0       0.0       0.0       0.0       0.0
 4 C  f-1             1.1       0.0       0.0       0.0       0.0       0.0
 4 C  f+2             0.2       0.0       0.0       0.0       0.0       0.0
 4 C  f-2             0.0       0.0       0.3       0.0       0.0       0.0
 4 C  f+3             0.1       2.3       1.9       0.0       0.0       0.0
 4 C  f-3             0.7      27.4       0.2       0.0       0.0       0.0
 5 C  s               0.4       0.0       0.4       0.0       0.0       0.0
 5 C  px              4.7       1.4       0.1       0.0       0.0       0.0
 5 C  py              2.5       0.3       0.2       0.0       0.0       0.0
 5 C  dx2y2           0.0       0.3       0.1       0.0       0.0       0.0
 5 C  dxy             1.5       2.9       0.0       0.0       0.0       0.0
 5 C  f+1             1.2       0.3       0.1       0.0       0.0       0.0
 5 C  f-1             0.5       0.1       0.0       0.0       0.0       0.0
 5 C  f+3             0.1       0.8       0.1       0.0       0.0       0.0
 5 C  f-3             0.9       6.6       0.5       0.0       0.0       0.0
 6 N  s               0.1       0.0      15.5       0.0       0.0       0.0
 6 N  pz              0.0       0.0       1.3       0.0       0.0       0.0
 6 N  py              0.1       0.0       0.3       0.0       0.0       0.0
 6 N  dz2             0.0       0.0       1.9       0.0       0.0       0.0
 6 N  dxz             0.2       0.2       0.2       0.0       0.0       0.0
 6 N  dyz             0.1       0.1       0.3       0.0       0.0       0.0
 6 N  dx2y2           7.5       4.7       0.3       0.0       0.0       0.0
 6 N  dxy             0.9       1.3       2.0       0.0       0.0       0.0
 6 N  f0              0.1       0.0       7.4       0.0       0.0       0.0
 6 N  f+1             0.0       0.1       0.1       0.0       0.0       0.0
 6 N  f+2             4.8       2.8       1.2       0.0       0.0       0.0
 6 N  f-2             0.7       0.6       4.7       0.0       0.0       0.0
 6 N  f+3             0.2       0.9      31.0       0.0       0.0       0.0
 6 N  f-3             4.7      16.2       0.7       0.0       0.0       0.0
 7 Cl s               0.0       0.0       0.0       0.0       0.0       0.9
 7 Cl pz              0.0       0.0       0.0      99.8       0.1       0.0
 7 Cl px              0.0       0.0       0.0       0.0       0.8      96.1
 7 Cl py              0.1       0.0       0.0       0.1      98.5       0.8
 7 Cl dx2y2           0.0       0.0       0.0       0.0       0.0       0.1
11 H  px              0.0       0.2       0.0       0.0       0.0       0.0
12 H  s               1.3       0.9       7.1       0.0       0.0       0.0
12 H  pz              0.0       0.0       0.2       0.0       0.0       0.0
12 H  px              0.1       0.2       0.9       0.0       0.0       0.0
13 H  s               1.1       1.2       7.6       0.0       0.0       0.0
13 H  pz              0.0       0.0       0.2       0.0       0.0       0.0
13 H  px              0.0       0.0       0.1       0.0       0.0       0.0
13 H  py              0.0       0.4       0.8       0.0       0.0       0.0

                    282       283       284       285       286       287   
                  20.45185  21.00829  21.06117  21.14071  21.23544  21.61348
                   0.00000   0.00000   0.00000   0.00000   0.00000   0.00000
                  --------  --------  --------  --------  --------  --------
 0 C  s              18.4      27.4      28.8       0.2      16.5       6.6
 0 C  py              0.0       0.2       0.3       0.0       0.0       0.0
 0 C  dxy             0.0       0.1       0.1       0.0       0.0       0.0
 1 C  s              17.1      33.7      29.7       0.4       9.6       7.5
 1 C  px              0.0       0.2       0.2       0.0       0.0       0.0
 1 C  py              0.1       0.1       0.1       0.0       0.0       0.0
 1 C  dx2y2           0.0       0.1       0.1       0.0       0.0       0.0
 2 C  s              16.6      10.5      24.4      13.1      25.6       7.6
 2 C  px              0.0       0.4       0.1       0.1       0.0       0.0
 3 C  s              21.5      18.1       0.8      44.8       0.9      11.6
 3 C  px              0.0       0.0       0.0       0.2       0.0       0.0
 3 C  py              0.1       0.0       0.3       0.0       0.5       0.0
 3 C  dx2y2           0.0       0.0       0.0       0.0       0.0       0.1
 3 C  dxy             0.0       0.0       0.1       0.0       0.2       0.0
 4 C  s               5.9       2.0       0.1       3.9      30.7      55.0
 4 C  px              0.1       0.0       0.1       0.2       0.1       0.0
 4 C  py              0.3       0.1       0.0       0.2       0.0       0.0
 4 C  dx2y2           0.0       0.0       0.1       0.3       0.1       0.0
 5 C  s              18.4       5.8      13.9      35.5      14.5       9.8
 5 C  px              0.0       0.3       0.1       0.1       0.1       0.0
 5 C  py              0.1       0.1       0.0       0.0       0.0       0.0
 6 N  s               0.3       0.0       0.0       0.0       0.1       0.1
 6 N  py              0.1       0.0       0.0       0.0       0.1       0.2
 7 Cl s               0.0       0.2       0.0       0.3       0.0       0.1

                    288       289   
                  24.68997  30.07996
                   0.00000   0.00000
                  --------  --------
 2 C  px              0.2       0.0
 3 C  s               0.5       0.0
 3 C  px              0.7       0.0
 3 C  dx2y2           0.6       0.0
 4 C  s               0.1       0.1
 4 C  px              0.2       0.0
 4 C  dxy             0.1       0.0
 6 N  s               0.1      99.4
 7 Cl s              96.6       0.0
 7 Cl px              0.3       0.0


                      *****************************
                      * MAYER POPULATION ANALYSIS *
                      *****************************

  NA   - Mulliken gross atomic population
  ZA   - Total nuclear charge
  QA   - Mulliken gross atomic charge
  VA   - Mayer's total valence
  BVA  - Mayer's bonded valence
  FA   - Mayer's free valence

  ATOM       NA         ZA         QA         VA         BVA        FA
  0 C      6.1157     6.0000    -0.1157     3.8951     3.8951    -0.0000
  1 C      6.2233     6.0000    -0.2233     3.9167     3.9167    -0.0000
  2 C      6.1701     6.0000    -0.1701     3.9026     3.9026    -0.0000
  3 C      5.9986     6.0000     0.0014     3.8459     3.8459     0.0000
  4 C      5.7760     6.0000     0.2240     3.8509     3.8509     0.0000
  5 C      6.2994     6.0000    -0.2994     3.9443     3.9443    -0.0000
  6 N      7.4847     7.0000    -0.4847     3.0358     3.0358     0.0000
  7 Cl    17.1363    17.0000    -0.1363     1.1845     1.1845     0.0000
  8 H      0.8366     1.0000     0.1634     0.9609     0.9609    -0.0000
  9 H      0.8381     1.0000     0.1619     0.9624     0.9624    -0.0000
 10 H      0.8317     1.0000     0.1683     0.9676     0.9676    -0.0000
 11 H      0.8381     1.0000     0.1619     0.9746     0.9746    -0.0000
 12 H      0.7333     1.0000     0.2667     0.9423     0.9423     0.0000
 13 H      0.7183     1.0000     0.2817     0.9264     0.9264     0.0000

  Mayer bond orders larger than 0.100000
B(  0-C ,  1-C ) :   1.3871 B(  0-C ,  5-C ) :   1.4575 B(  0-C ,  8-H ) :   0.9713 
B(  1-C ,  2-C ) :   1.4177 B(  1-C ,  9-H ) :   0.9778 B(  2-C ,  3-C ) :   1.3829 
B(  2-C , 10-H ) :   0.9672 B(  3-C ,  4-C ) :   1.2948 B(  3-C ,  7-Cl) :   1.0157 
B(  4-C ,  5-C ) :   1.3366 B(  4-C ,  6-N ) :   1.1562 B(  5-C , 11-H ) :   0.9685 
B(  6-N , 12-H ) :   0.9034 B(  6-N , 13-H ) :   0.9009 

-------
TIMINGS
-------

Total SCF time: 0 days 0 hours 2 min 9 sec 

Total time                  ....     129.273 sec
Sum of individual times     ....     126.972 sec  ( 98.2%)

SCF preparation             ....       0.335 sec  (  0.3%)
Fock matrix formation       ....     125.361 sec  ( 97.0%)
  Startup                   ....       0.062 sec  (  0.0% of F)
  Split-RI-J                ....       4.935 sec  (  3.9% of F)
  Chain of spheres X        ....     103.204 sec  ( 82.3% of F)
  XC integration            ....      12.929 sec  ( 10.3% of F)
    Basis function eval.    ....       2.903 sec  ( 22.5% of XC)
    Density eval.           ....       2.336 sec  ( 18.1% of XC)
    XC-Functional eval.     ....       2.583 sec  ( 20.0% of XC)
    XC-Potential eval.      ....       4.335 sec  ( 33.5% of XC)
  CPCM terms                ....       5.399 sec  (  4.3% of F)
Diagonalization             ....       0.000 sec  (  0.0%)
Density matrix formation    ....       0.229 sec  (  0.2%)
Total Energy calculation    ....       0.056 sec  (  0.0%)
Population analysis         ....       0.147 sec  (  0.1%)
Orbital Transformation      ....       0.068 sec  (  0.1%)
Orbital Orthonormalization  ....       0.000 sec  (  0.0%)
DIIS solution               ....       0.341 sec  (  0.3%)
  MO trafo                  ....       0.000 sec  (  0.0 % of DIIS)
  Orb grad                  ....       0.000 sec  (  0.0 % of DIIS)
  Energy W gradient         ....       0.000 sec  (  0.0 % of DIIS)
  DIIS error                ....       0.011 sec  (  3.2 % of DIIS)
  DIIS work                 ....       0.278 sec  ( 81.7 % of DIIS)
  Form Q                    ....       0.000 sec  (  0.0 % of DIIS)
  Form QpQm                 ....       0.000 sec  (  0.0 % of DIIS)
  Exp/Cayley                ....       0.000 sec  (  0.0 % of DIIS)
  Orb update                ....       0.000 sec  (  0.0 % of DIIS)
  Wake-sleep                ....       0.015 sec  (  4.5 % of DIIS)
SOSCF solution              ....       0.273 sec  (  0.2%)
  MO trafo                  ....       0.083 sec  ( 30.5 % of SOSCF)
  Orb grad                  ....       0.003 sec  (  1.1 % of SOSCF)
  Rot update                ....       0.110 sec  ( 40.2 % of SOSCF)
  Step                      ....       0.077 sec  ( 28.2 % of SOSCF)
Grid generation             ....       0.162 sec  (  0.1%)
Finished LeanSCF after 129.4 sec

Maximum memory used throughout the entire LEANSCF-calculation: 38.0 MB
------------------   -----------------
gCP correction             0.007436660
------------------   -----------------

-------------------------   --------------------
FINAL SINGLE POINT ENERGY      -747.173703501027
-------------------------   --------------------


------------------------------------------------------------------------------
                              ORCA PROPERTY CALCULATIONS
------------------------------------------------------------------------------

GBWName                                 ... sp_solv.gbw
Number of atoms                         ...     14
Number of basis functions               ...    290
Max core memory                         ...   1024 MB

Electric properties:
Dipole moment                           ... YES
Quadrupole moment                       ...  NO
Static polarizability (Dipole/Dipole)   ...  NO
Static polarizability (Dipole/Quad.)    ...  NO
Static polarizability (Quad./Quad.)     ...  NO
Static polarizability (Velocity)        ...  NO

Atomic electric properties:
Dipole moment                           ...  NO
Quadrupole moment                       ...  NO
Static polarizability                   ...  NO

Choice of electric origin               ... Center of mass
Position of electric origin             ...     0.015177    -0.006467     0.035817

General magnetic properties:
Magnetizability                         ...  NO

EPR properties:
g-Tensor (aka g-matrix)                 ...  NO
Zero-Field splitting spin-orbit         ...  NO
Zero-field splitting spin-spin          ...  NO
Hyperfine couplings                     ...  NO (   0 nuclei)
Quadrupole couplings                    ...  NO (   0 nuclei)
Contact density                         ...  NO (   0 nuclei)

NMR properties:
Chemical shifts                         ...  NO (   0 nuclei)
Spin-rotation constants                 ...  NO (   0 nuclei)
Spin-spin couplings                     ...  NO (   0 nuclei,    0 pairs)

Choice of magnetic origin               ... GIAO
Position of magnetic origin             ...     0.000000     0.000000     0.000000

Properties with geometric perturbations:
SCF Hessian                             ...  NO
IR spectrum                             ...  NO
VCD spectrum                            ...  NO
X-ray spectroscopy properties:
SCF XES/XAS/RIXS spectra                ...  NO


-------------
DIPOLE MOMENT
-------------

Method             : SCF
Type of density    : Electron Density
Multiplicity       :   1
Irrep              :   0
Energy             :  -747.1811401606271374 Eh
Relativity type    : 
Basis              : AO
                                X                 Y                 Z
Electronic contribution:      8.238226963      -2.160501682       0.099290667
Nuclear contribution   :     -8.848180273       2.893893564      -0.606889188
                        -----------------------------------------
Total Dipole Moment    :     -0.609953311       0.733391882      -0.507598522
                        -----------------------------------------
Magnitude (a.u.)       :      1.080538270
Magnitude (Debye)      :      2.746510014



--------------------
Rotational spectrum 
--------------------
 
Rotational constants in cm-1:             0.097266             0.050894             0.033440 
Rotational constants in MHz :          2915.963524          1525.771895          1002.514141 

Dipole components along the rotational axes: 
x,y,z [a.u.] :    -0.614877    -0.729850    -0.506763 
x,y,z [Debye]:    -1.562892    -1.855131    -1.288090 

 

Dipole moment calculation done in   0.0 sec 

Maximum memory used throughout the entire PROP-calculation: 23.8 MB

--------------------------------
SUGGESTED CITATIONS FOR THIS RUN
--------------------------------

Below you find a list of papers that are relevant to this ORCA run
We neither can nor want to force you to cite these papers, but we appreciate if you do
You receive ORCA, which is the product of decades of hard work by many enthusiastic individuals, for free
The only thing we kindly ask in return is that you cite our papers,
We deeply appreciate it, if you show your appreciation for ORCA by not just citing the generic ORCA reference.

Please note that relegating all ORCA citations to the supporting information does *not* help us.
SI sections are not indexed - citations you put there will not count into any citation statistics
But we need these citations in order to attract the funding resources that allow us to do what we are doing

Therefore, if you are a happy ORCA user, please consider citing a few of the papers listed below in the main body of your paper

In addition to the list printed below, the program has created the file sp_solv.bibtex that contains the list in bibtex format
You can import this file easily into all common literature databanks and citation aid programs


List of essential papers. We consider these as the minimum necessary citations

  1. Neese,F.
     Software update: the ORCA program system, version 5.0
     WIRES Comput. Molec. Sci., 2022 12(1)e1606
     doi.org/10.1002/wcms.1606

List of papers to cite with high priority. The work reported in these papers was absolutely
necessary for this run to complete.
Our perspective: the developers of density functionals and basis sets usually get cited in chemistry papers
Good! But without the algorithms to do something with them, the functionals or basis sets would not do anything.
Hence, in our opinion, the algorithm design and method developments papers are equally worthy of getting cited

  1. Neese,F.
     An improvement of the resolution of the identity approximation for the formation of the Coulomb matrix
     J. Comp. Chem., 2003 24(14)1740-1747
     doi.org/10.1002/jcc.10318
  2. Neese,F.; Wennmohs,F.; Hansen,A.; Becker,U.
     Efficient, approximate and parallel Hartree-Fock and hybrid DFT calculations. A 'chain-of-spheres' algorithm for the Hartree-Fock exchange
     Chem. Phys., 2009 356(1-3)98-109
     doi.org/10.1016/j.chemphys.2008.10.036
  3. Garcia-Rates,M.; Neese,F.
     Effect of the Solute Cavity on the Solvation Energy and its Derivatives within the Framework of the Gaussian Charge Scheme
     J. Comput. Chem., 2020 41 922-939
     doi.org/10.1002/jcc.26139
  4. Helmich-Paris,B.; de Souza,B.; Neese,F.; Izsák,R.
     An improved chain of spheres for exchange algorithm
     J. Chem. Phys., 2021 155 104109
     doi.org/doi: 10.1063/5.0058766.
  5. Neese,F.
     The SHARK Integral Generation and Digestion System
     J. Comp. Chem., 2022  1-16
     doi.org/10.1002/jcc.26942

List of suggested additional citations. These are papers that are important in the 'surrounding' of 
of this run, or papers that preceded the highly important papers. If you like your results we are grateful for a citation.

  1. Izsak,R.; Neese,F.
     An overlap fitted chain of spheres exchange method
     J. Chem. Phys., 2011 135 144105
     doi.org/10.1063/1.3646921
  2. Izsak,R.; Hansen,A.; Neese,F.
     The resolution of identity and chain of spheres approximations for the LPNO-CCSD singles Fock term
     Molec. Phys., 2012 110 2413-2417
     doi.org/10.1080/00268976.2012.687466
  3. Neese,F.
     The ORCA program system
     WIRES Comput. Molec. Sci., 2012 2(1)73-78
     doi.org/10.1002/wcms.81
  4. Izsak,R.; Neese,F.; Klopper,W.
     Robust fitting techniques in the chain of spheres approximation to the Fock exchange: The role of the complementary space
     J. Chem. Phys., 2013 139 
     doi.org/10.1063/1.4819264
  5. Neese,F.
     Software update: the ORCA program system, version 4.0
     WIRES Comput. Molec. Sci., 2018 8(1)1-6
     doi.org/10.1002/wcms.1327
  6. Neese,F.; Wennmohs,F.; Becker,U.; Riplinger,C.
     The ORCA quantum chemistry program package
     J. Chem. Phys., 2020 152 Art. No. L224108
     doi.org/10.1063/5.0004608

List of optional additional citations

  1. Neese,F.
     Approximate second-order SCF convergence for spin unrestricted wavefunctions
     Chem. Phys. Lett., 2000 325(1-3)93-98
     doi.org/10.1016/s0009-2614(00)00662-x

Timings for individual modules:

Sum of individual times          ...      131.685 sec (=   2.195 min)
Startup calculation              ...        1.870 sec (=   0.031 min)   1.4 %
SCF iterations                   ...      129.710 sec (=   2.162 min)  98.5 %
Property calculations            ...        0.105 sec (=   0.002 min)   0.1 %
                             ****ORCA TERMINATED NORMALLY****
TOTAL RUN TIME: 0 days 0 hours 2 minutes 12 seconds 326 msec
