      -----------------------------------------------------------      
     |                   =====================                   |     
     |                           x T B                           |     
     |                   =====================                   |     
     |                         S. Grimme                         |     
     |          Mulliken Center for Theoretical Chemistry        |     
     |                    University of Bonn                     |     
      -----------------------------------------------------------      

   * xtb version 6.7.1 (edcfbbe) compiled by 'albert@albert-system' on 2024-07-22

   xtb is free software: you can redistribute it and/or modify it under
   the terms of the GNU Lesser General Public License as published by
   the Free Software Foundation, either version 3 of the License, or
   (at your option) any later version.
   
   xtb is distributed in the hope that it will be useful,
   but WITHOUT ANY WARRANTY; without even the implied warranty of
   MERCHANTABILITY or FITNESS FOR A PARTICULAR PURPOSE.  See the
   GNU Lesser General Public License for more details.
   
   Cite this work as:
   * C. Bannwarth, E. Caldeweyher, S. Ehlert, A. Hansen, P. Pracht,
     J. Seibert, S. Spicher, S. Grimme, WIREs Comput. Mol. Sci., 2020, 11,
     e01493. DOI: 10.1002/wcms.1493
   
   for GFN2-xTB:
   * C. Bannwarth, S. Ehlert and S. Grimme., J. Chem. Theory Comput., 2019,
     15, 1652-1671. DOI: 10.1021/acs.jctc.8b01176
   for GFN1-xTB:
   * S. Grimme, C. Bannwarth, P. Shushkov, J. Chem. Theory Comput., 2017,
     13, 1989-2009. DOI: 10.1021/acs.jctc.7b00118
   for GFN0-xTB:
   * P. Pracht, E. Caldeweyher, S. Ehlert, S. Grimme, ChemRxiv, 2019, preprint.
     DOI: 10.26434/chemrxiv.8326202.v1
   for GFN-FF:
   * S. Spicher and S. Grimme, Angew. Chem. Int. Ed., 2020, 59, 15665-15673.
     DOI: 10.1002/anie.202004239
   
   for ALPB and GBSA implicit solvation:
   * S. Ehlert, M. Stahn, S. Spicher, S. Grimme, J. Chem. Theory Comput.,
     2021, 17, 4250-4261. DOI: 10.1021/acs.jctc.1c00471
   
   for ddCOSMO and CPCM-X implicit solvation:
   * M. Stahn, S. Ehlert, S. Grimme, J. Phys. Chem. A,
     2023, XX, XXXX-XXXX. DOI: 10.1021/acs.jpca.3c04382
   
   for DFT-D4:
   * E. Caldeweyher, C. Bannwarth and S. Grimme, J. Chem. Phys., 2017,
     147, 034112. DOI: 10.1063/1.4993215
   * E. Caldeweyher, S. Ehlert, A. Hansen, H. Neugebauer, S. Spicher,
     C. Bannwarth and S. Grimme, J. Chem. Phys., 2019, 150, 154122.
     DOI: 10.1063/1.5090222
   * E. Caldeweyher, J.-M. Mewes, S. Ehlert and S. Grimme, Phys. Chem. Chem. Phys.
     2020, 22, 8499-8512. DOI: 10.1039/D0CP00502A
   
   for sTDA-xTB:
   * S. Grimme and C. Bannwarth, J. Chem. Phys., 2016, 145, 054103.
     DOI: 10.1063/1.4959605
   
   in the mass-spec context:
   * V. Asgeirsson, C. Bauer and S. Grimme, Chem. Sci., 2017, 8, 4879.
     DOI: 10.1039/c7sc00601b
   * J. Koopman and S. Grimme, ACS Omega 2019, 4, 12, 15120-15133.
     DOI: 10.1021/acsomega.9b02011
   
   for metadynamics refer to:
   * S. Grimme, J. Chem. Theory Comput., 2019, 155, 2847-2862
     DOI: 10.1021/acs.jctc.9b00143
   
   for SPH calculations refer to:
   * S. Spicher and S. Grimme, J. Chem. Theory Comput., 2021, 17, 1701-1714
     DOI: 10.1021/acs.jctc.0c01306
   
   for ONIOM refer to:
   * C. Plett, A. Katbashev, S. Ehlert, S. Grimme, M. Bursch,
     Phys. Chem. Chem. Phys., 2023, 25, 17860-17868. DOI: 10.1039/D3CP02178E
   
   for DIPRO refer to:
   * J. Kohn, N. Gildemeister, S. Grimme, D. Fazzi, A. Hansen,
     J. Chem. Phys., 2023, just accepted.
   
   for PTB refer to:
   * S. Grimme, M. Mueller, A. Hansen, J. Chem. Phys., 2023, 158, 124111.
     DOI: 10.1063/5.0137838
   
   with help from (in alphabetical order)
   P. Atkinson, C. Bannwarth, F. Bohle, G. Brandenburg, E. Caldeweyher
   M. Checinski, S. Dohm, S. Ehlert, S. Ehrlich, I. Gerasimov, C. Hölzer
   A. Katbashev, J. Kohn, J. Koopman, C. Lavigne, S. Lehtola, F. März, M. Müller,
   F. Musil, H. Neugebauer, J. Pisarek, C. Plett, P. Pracht, F. Pultar,
   J. Seibert, P. Shushkov, S. Spicher, M. Stahn, M. Steiner, T. Strunk,
   J. Stückrath, T. Rose, and J. Unsleber
   
 * started run on 2025/04/10 at 14:51:55.721     
   ID    Z sym.   atoms
    1    6 C      1, 2, 7, 8, 10, 15, 16, 18, 19
    2    8 O      3, 6, 14, 17
    3   15 P      4, 12
    4   16 S      5, 9, 11, 13
    5    1 H      20-41

           -------------------------------------------------
          |                Calculation Setup                |
           -------------------------------------------------

          program call               : /srv/scratch/z5358697/.xtb/bin/xtb xtb_opt.coord --opt normal --orca -I xtb_opt-xcontrol-inp
          hostname                   : k163
          coordinate file            : xtb_opt.coord
          omp threads                :                    24

           -------------------------------------------------
          |                   Orca driver                   |
           -------------------------------------------------
orca executable           : /apps/z_install_tree/linux-rocky8-ivybridge/gcc-12.2.0/orca-6.0.0-srtngmq3qlimg2qxbl6avaaiffipurdx/bin/orca
orca input file           : xtb_opt.inp
orca input line           : 
orca parallel             : true
orca number of threads    : 24
                         * ORCA takes the control...
  ------------------------------------------------------------------------

                                 *****************
                                 * O   R   C   A *
                                 *****************

                                            #,                                       
                                            ###                                      
                                            ####                                     
                                            #####                                    
                                            ######                                   
                                           ########,                                 
                                     ,,################,,,,,                         
                               ,,#################################,,                 
                          ,,##########################################,,             
                       ,#########################################, ''#####,          
                    ,#############################################,,   '####,        
                  ,##################################################,,,,####,       
                ,###########''''           ''''###############################       
              ,#####''   ,,,,##########,,,,          '''####'''          '####       
            ,##' ,,,,###########################,,,                        '##       
           ' ,,###''''                  '''############,,,                           
         ,,##''                                '''############,,,,        ,,,,,,###''
      ,#''                                            '''#######################'''  
     '                                                          ''''####''''         
             ,#######,   #######,   ,#######,      ##                                
            ,#'     '#,  ##    ##  ,#'     '#,    #''#        ,####,   ,####,        
            ##       ##  ##   ,#'  ##            #'  '#       #'       #'  '#        
            ##       ##  #######   ##           ,######,      #####,   #    #        
            '#,     ,#'  ##    ##  '#,     ,#' ,#      #,     #,   #   #,  ,#        
             '#######'   ##     ##  '#######'  #'      '#     '####' # '####'        



                #########################################################
                #                        -***-                          #
                #          Department of theory and spectroscopy        #
                #                                                       #
                #                      Frank Neese                      #
                #                                                       #
                #     Directorship, Architecture, Infrastructure        #
                #                    SHARK, DRIVERS                     #
                #        Core code/Algorithms in most modules           #
                #                                                       #
                #        Max Planck Institute fuer Kohlenforschung      #
                #                Kaiser Wilhelm Platz 1                 #
                #                 D-45470 Muelheim/Ruhr                 #
                #                      Germany                          #
                #                                                       #
                #                  All rights reserved                  #
                #                        -***-                          #
                #########################################################


                         Program Version 6.0.0  -   RELEASE  -


 With contributions from (in alphabetic order):
   Daniel Aravena         : Magnetic Suceptibility
   Michael Atanasov       : Ab Initio Ligand Field Theory (pilot matlab implementation)
   Alexander A. Auer      : GIAO ZORA, VPT2 properties, NMR spectrum
   Ute Becker             : All parallelization in ORCA, NUMFREQ, NUMCALC
   Giovanni Bistoni       : ED, misc. LED, open-shell LED, HFLD
   Martin Brehm           : Molecular dynamics
   Dmytro Bykov           : pre 5.0 version of the SCF Hessian
   Marcos Casanova-Páez   : Triplet and SCS-CIS(D). UHF-(DLPNO)-IP/EA/STEOM-CCSD. UHF-CVS-IP/STEOM-CCSD
   Vijay G. Chilkuri      : MRCI spin determinant printing, contributions to CSF-ICE
   Pauline Colinet        : FMM embedding
   Dipayan Datta          : RHF DLPNO-CCSD density
   Achintya Kumar Dutta   : EOM-CC, STEOM-CC
   Nicolas Foglia         : Exact transition moments, OPA infrastructure, MCD improvements
   Dmitry Ganyushin       : Spin-Orbit,Spin-Spin,Magnetic field MRCI
   Miquel Garcia          : C-PCM and meta-GGA Hessian, CCSD/C-PCM, Gaussian charge scheme
   Tiago L. C. Gouveia    : GS-ROHF, GS-ROCIS
   Yang Guo               : DLPNO-NEVPT2, F12-NEVPT2, CIM, IAO-localization
   Andreas Hansen         : Spin unrestricted coupled pair/coupled cluster methods
   Ingolf Harden          : AUTO-CI MPn and infrastructure 
   Benjamin Helmich-Paris : MC-RPA, TRAH-(SCF,CASSCF), AVAS, COSX integrals, SCF dyn. polar.
   Lee Huntington         : MR-EOM, pCC
   Robert Izsak           : Overlap fitted RIJCOSX, COSX-SCS-MP3, EOM
   Riya Kayal             : Wick's Theorem for AUTO-CI, AUTO-CI UHF-CCSDT
   Emily Kempfer          : AUTO-CI, RHF CISDT and CCSDT
   Christian Kollmar      : KDIIS, OOCD, Brueckner-CCSD(T), CCSD density, CASPT2, CASPT2-K, improved NEVPT2
   Axel Koslowski         : Symmetry handling
   Simone Kossmann        : Meta GGA functionals, TD-DFT gradient, OOMP2, (MP2 Hessian; deprecated post 5.0)
   Lucas Lang             : DCDCAS
   Marvin Lechner         : AUTO-CI (C++ implementation), FIC-MRCC
   Spencer Leger          : CASSCF response
   Dagmar Lenk            : GEPOL surface, SMD, ORCA-2-JSON
   Dimitrios Liakos       : Extrapolation schemes; Compound Job, initial MDCI parallelization
   Dimitrios Manganas     : Further ROCIS development; embedding schemes. LFT, Crystal Embedding
   Dimitrios Pantazis     : SARC Basis sets
   Anastasios Papadopoulos: AUTO-CI, single reference methods and gradients
   Taras Petrenko         : pre 6.0 DFT Hessian and TD-DFT gradient, (ASA, deprecated), ECA, 1-Electron XAS/XES, NRVS
   Peter Pinski           : DLPNO-MP2, DLPNO-MP2 Gradient
   Christoph Reimann      : Effective Core Potentials
   Marius Retegan         : Local ZFS, SOC
   Christoph Riplinger    : Optimizer, TS searches, QM/MM, DLPNO-CCSD(T), (RO)-DLPNO pert. Triples
   Michael Roemelt        : Original ROCIS implementation
   Masaaki Saitow         : Open-shell DLPNO-CCSD energy and density
   Barbara Sandhoefer     : DKH picture change effects
   Kantharuban Sivalingam : CASSCF convergence/infrastructure, NEVPT2 and variants, FIC-MRCI
   Bernardo de Souza      : ESD, SOC TD-DFT
   Georgi Stoychev        : AutoAux, RI-MP2 NMR, DLPNO-MP2 response, X2C
   Van Anh Tran           : RI-MP2 g-tensors
   Willem Van den Heuvel  : Paramagnetic NMR
   Zikuan Wang            : NOTCH, Electric field optimization 
   Frank Wennmohs         : Technical directorship and infrastructure
   Hang Xu                : AUTO-CI-Response properties 


 We gratefully acknowledge several colleagues who have allowed us to
 interface, adapt or use parts of their codes:
   Stefan Grimme, W. Hujo, H. Kruse, P. Pracht,  : VdW corrections, initial TS optimization,
                  C. Bannwarth, S. Ehlert,         DFT functionals, gCP, sTDA/sTD-DF
                  L. Wittmann, M. Mueller
   Ed Valeev, F. Pavosevic, A. Kumar             : LibInt (2-el integral package), F12 methods
   Garnet Chan, S. Sharma, J. Yang, R. Olivares  : DMRG
   Ulf Ekstrom                                   : XCFun DFT Library
   Mihaly Kallay                                 : mrcc  (arbitrary order and MRCC methods)
   Frank Weinhold                                : gennbo (NPA and NBO analysis)
   Simon Mueller                                 : openCOSMO-RS
   Christopher J. Cramer and Donald G. Truhlar   : smd solvation model
   Lars Goerigk                                  : TD-DFT with DH, B97 family of functionals
   V. Asgeirsson, H. Jonsson                     : NEB implementation
   FAccTs GmbH                                   : IRC, NEB, NEB-TS, DLPNO-Multilevel, CI-OPT
                                                   MM, QMMM, 2- and 3-layer-ONIOM, Crystal-QMMM,
                                                   LR-CPCM, SF, NACMEs, symmetry and pop. for TD-DFT,
                                                   nearIR, NL-DFT gradient (VV10), updates on ESD,
                                                   ML-optimized integration grids, MBIS, APM,
                                                   GOAT, DOCKER, SOLVATOR, interface openCOSMO-RS
   S Lehtola, MJT Oliveira, MAL Marques          : LibXC Library
   Liviu Ungur et al                             : ANISO software


 Your calculation uses the libint2 library for the computation of 2-el integrals
 For citations please refer to: http://libint.valeyev.net

 Your ORCA version has been built with support for libXC version: 6.2.2
 For citations please refer to: https://libxc.gitlab.io

 This ORCA versions uses:
   CBLAS   interface :  Fast vector & matrix operations
   LAPACKE interface :  Fast linear algebra routines
   SCALAPACK package :  Parallel linear algebra routines
   Shared memory     :  Shared parallel matrices
   BLAS/LAPACK       :  OpenBLAS 0.3.27  USE64BITINT DYNAMIC_ARCH NO_AFFINITY SapphireRapids SINGLE_THREADED
        Core in use  :  SapphireRapids
   Copyright (c) 2011-2014, The OpenBLAS Project




***************************************
The coordinates will be read from file: xtb_opt.xyz
***************************************


Your calculation utilizes the geometrical counterpoise correction gCP
Please cite in your paper:
H.Kruse, S. Grimme J.Chem.Phys., 136, (2012), 154101 
   

Your calculation utilizes the atom-pairwise dispersion correction
based on EEQ partial charges (D4)


Your calculation utilizes the SMD solvation module
Please cite in your paper:
A.V. Marenich, C.J. Cramer, D.G. Truhlar J. Phys. Chem. B, 113, (2009), 6378 

================================================================================

----- Orbital basis set information -----
Your calculation utilizes the basis: def2-mTZVPP
   Stefan Grimme, Andreas Hansen, Sebastian Ehlert, and Jan-Michael Mewes 
   J. Chem. Phys. 154, 064103 (2021). DOI: 10.1063/5.0040021

----- AuxJ basis set information -----
Your calculation utilizes the auxiliary basis: def2/J
   F. Weigend, Phys. Chem. Chem. Phys. 8, 1057 (2006).

================================================================================
                                        WARNINGS
                       Please study these warnings very carefully!
================================================================================

WARNING: Old DensityContainer found on disk!
         Will remove this file - 
         If you want to keep old densities, please start your calculation with a different basename. 

Using LibXC functional ID 497 : Re-regularized SCAN exchange by Furness et al
[ 1]  J. W. Furness, A. D. Kaplan, J. Ning, J. P. Perdew, and J. Sun.,  J. Phys. Chem. Lett. 11, 8208-8215 (2020)
[ 2]  J. W. Furness, A. D. Kaplan, J. Ning, J. P. Perdew, and J. Sun.,  J. Phys. Chem. Lett. 11, 9248-9248 (2020)
Using LibXC functional ID 498 : Re-regularized SCAN correlation by Furness et al
[ 1]  J. W. Furness, A. D. Kaplan, J. Ning, J. P. Perdew, and J. Sun.,  J. Phys. Chem. Lett. 11, 8208-8215 (2020)
[ 2]  J. W. Furness, A. D. Kaplan, J. Ning, J. P. Perdew, and J. Sun.,  J. Phys. Chem. Lett. 11, 9248-9248 (2020)
Using LibXC functional ID 497 : Re-regularized SCAN exchange by Furness et al
[ 1]  J. W. Furness, A. D. Kaplan, J. Ning, J. P. Perdew, and J. Sun.,  J. Phys. Chem. Lett. 11, 8208-8215 (2020)
[ 2]  J. W. Furness, A. D. Kaplan, J. Ning, J. P. Perdew, and J. Sun.,  J. Phys. Chem. Lett. 11, 9248-9248 (2020)
Using LibXC functional ID 498 : Re-regularized SCAN correlation by Furness et al
[ 1]  J. W. Furness, A. D. Kaplan, J. Ning, J. P. Perdew, and J. Sun.,  J. Phys. Chem. Lett. 11, 8208-8215 (2020)
[ 2]  J. W. Furness, A. D. Kaplan, J. Ning, J. P. Perdew, and J. Sun.,  J. Phys. Chem. Lett. 11, 9248-9248 (2020)

================================================================================
                                       INPUT FILE
================================================================================
NAME = xtb_opt.inp
|  1> ! r2scan-3c def2/J RI DEFGRID2 scfconv7 ENGRAD tightSCF miniprint
|  2> %cpcm
|  3>     smd true
|  4>     smdsolvent "water"
|  5> end
|  6> * xyzfile 0 1 xtb_opt.xyz
|  7> 
|  8>                          ****END OF INPUT****
================================================================================

                     *******************************
                     * Energy+Gradient Calculation *
                     *******************************

---------------------------------
CARTESIAN COORDINATES (ANGSTROEM)
---------------------------------
  C      3.200390   -2.288195    2.405697
  C      1.867127   -2.203825    1.705191
  O      1.575075   -0.835825    1.248327
  P      2.326296   -0.179702   -0.008739
  S      2.842205   -1.378457   -1.454216
  O      3.505418    0.624769    0.739195
  C      4.571589    1.284654   -0.027091
  C      5.534794    1.871961    0.971296
  S      1.018230    1.405740   -0.529146
  C     -0.011938    0.583771   -1.806853
  S     -1.163023   -0.722545   -1.238573
  P     -2.817088    0.391839   -0.458356
  S     -2.884030    2.239920   -1.064815
  O     -2.836979    0.111295    1.123551
  C     -1.694564    0.358285    2.012030
  C     -1.647857    1.788930    2.487284
  O     -4.105652   -0.441767   -0.922410
  C     -4.640408   -1.619366   -0.209557
  C     -3.704438   -2.801729   -0.238485
  H      4.030292   -2.106778    1.716225
  H      3.256379   -1.570199    3.228853
  H      3.315056   -3.296039    2.817868
  H      1.038786   -2.425236    2.381243
  H      1.811316   -2.872628    0.840871
  H      5.050482    0.534024   -0.663097
  H      4.118495    2.057061   -0.657510
  H      6.345143    2.368845    0.429485
  H      5.039877    2.610862    1.607570
  H      5.968451    1.089550    1.600488
  H      0.643335    0.098834   -2.536617
  H     -0.578254    1.383233   -2.292362
  H     -1.857960   -0.333805    2.840897
  H     -0.777365    0.068293    1.490471
  H     -1.439488    2.479802    1.667316
  H     -2.589283    2.073692    2.965651
  H     -0.844976    1.879351    3.226369
  H     -4.887997   -1.315782    0.810083
  H     -5.563160   -1.832073   -0.752590
  H     -2.803206   -2.626825    0.357261
  H     -4.226215   -3.660807    0.196349
  H     -3.421461   -3.058726   -1.263249

----------------------------
CARTESIAN COORDINATES (A.U.)
----------------------------
  NO LB      ZA    FRAG     MASS         X           Y           Z
   0 C     6.0000    0    12.011    6.047861   -4.324062    4.546108
   1 C     6.0000    0    12.011    3.528358   -4.164626    3.222344
   2 O     8.0000    0    15.999    2.976461   -1.579481    2.358997
   3 P    15.0000    0    30.974    4.396063   -0.339588   -0.016515
   4 S    16.0000    0    32.060    5.370988   -2.604907   -2.748069
   5 O     8.0000    0    15.999    6.624281    1.180642    1.396876
   6 C     6.0000    0    12.011    8.639051    2.427645   -0.051194
   7 C     6.0000    0    12.011   10.459245    3.537494    1.835484
   8 S    16.0000    0    32.060    1.924176    2.656464   -0.999942
   9 C     6.0000    0    12.011   -0.022559    1.103168   -3.414458
  10 S    16.0000    0    32.060   -2.197795   -1.365412   -2.340563
  11 P    15.0000    0    30.974   -5.323526    0.740468   -0.866168
  12 S    16.0000    0    32.060   -5.450026    4.232835   -2.012208
  13 O     8.0000    0    15.999   -5.361113    0.210317    2.123203
  14 C     6.0000    0    12.011   -3.202262    0.677060    3.802185
  15 C     6.0000    0    12.011   -3.113997    3.380587    4.700285
  16 O     8.0000    0    15.999   -7.758558   -0.834819   -1.743102
  17 C     6.0000    0    12.011   -8.769100   -3.060159   -0.396006
  18 C     6.0000    0    12.011   -7.000374   -5.294501   -0.450671
  19 H     1.0000    0     1.008    7.616148   -3.981234    3.243196
  20 H     1.0000    0     1.008    6.153664   -2.967246    6.101648
  21 H     1.0000    0     1.008    6.264547   -6.228611    5.324999
  22 H     1.0000    0     1.008    1.963022   -4.583032    4.499897
  23 H     1.0000    0     1.008    3.422892   -5.428479    1.589016
  24 H     1.0000    0     1.008    9.544029    1.009160   -1.253073
  25 H     1.0000    0     1.008    7.782828    3.887281   -1.242513
  26 H     1.0000    0     1.008   11.990583    4.476468    0.811608
  27 H     1.0000    0     1.008    9.523988    4.933815    3.037866
  28 H     1.0000    0     1.008   11.278737    2.058951    3.024485
  29 H     1.0000    0     1.008    1.215727    0.186770   -4.793511
  30 H     1.0000    0     1.008   -1.092741    2.613932   -4.331937
  31 H     1.0000    0     1.008   -3.511035   -0.630799    5.368517
  32 H     1.0000    0     1.008   -1.469008    0.129056    2.816582
  33 H     1.0000    0     1.008   -2.720239    4.686146    3.150771
  34 H     1.0000    0     1.008   -4.893036    3.918711    5.604268
  35 H     1.0000    0     1.008   -1.596773    3.551459    6.096954
  36 H     1.0000    0     1.008   -9.236977   -2.486468    1.530834
  37 H     1.0000    0     1.008  -10.512849   -3.462116   -1.422190
  38 H     1.0000    0     1.008   -5.297292   -4.963980    0.675125
  39 H     1.0000    0     1.008   -7.986388   -6.917922    0.371046
  40 H     1.0000    0     1.008   -6.465625   -5.780154   -2.387194

------------------------------------------------------------------------------
                   ___                                                        
                  /   \      - P O W E R E D   B Y -                         
                 /     \                                                     
                 |  |  |   _    _      __       _____    __    __             
                 |  |  |  | |  | |    /  \     |  _  \  |  |  /  |          
                  \  \/   | |  | |   /    \    | | | |  |  | /  /          
                 / \  \   | |__| |  /  /\  \   | |_| |  |  |/  /          
                |  |  |   |  __  | /  /__\  \  |    /   |      \           
                |  |  |   | |  | | |   __   |  |    \   |  |\   \          
                \     /   | |  | | |  |  |  |  | |\  \  |  | \   \       
                 \___/    |_|  |_| |__|  |__|  |_| \__\ |__|  \__/        
                                                                              
                      - O R C A' S   B I G   F R I E N D -                    
                                      &                                       
                       - I N T E G R A L  F E E D E R -                       
                                                                              
 v1 FN, 2020, v2 2021, v3 2022-2024                                           
------------------------------------------------------------------------------


----------------------
SHARK INTEGRAL PACKAGE
----------------------

Number of atoms                             ...     41
Number of basis functions                   ...    539
Number of shells                            ...    253
Maximum angular momentum                    ...      2
Integral batch strategy                     ... SHARK/LIBINT Hybrid
RI-J (if used) integral strategy            ... SPLIT-RIJ (Revised 2003 algorithm where possible)
Printlevel                                  ...      1
Contraction scheme used                     ... SEGMENTED contraction
Prescreening option                         ... SCHWARTZ
   Thresh                                   ... 3.000e-11
   Tcut                                     ... 1.000e-12
   Tpresel                                  ... 1.000e-12 
Coulomb Range Separation                    ... NOT USED
Exchange Range Separation                   ... NOT USED
Multipole approximations                    ... NOT USED
Finite Nucleus Model                        ... NOT USED
CABS basis                                  ... NOT available
Auxiliary Coulomb fitting basis             ... AVAILABLE
   # of basis functions in Aux-J            ...   1185
   # of shells in Aux-J                     ...    407
   Maximum angular momentum in Aux-J        ...      4
Auxiliary J/K fitting basis                 ... NOT available
Auxiliary Correlation fitting basis         ... NOT available
Auxiliary 'external' fitting basis          ... NOT available

Checking pre-screening integrals            ... done (  0.0 sec) Dimension = 253
Check shell pair data                       ... done (  0.0 sec)
Shell pair information
Shell pair cut-off parameter TPreSel        ...   1.0e-12
Total number of shell pairs                 ...     32131
Shell pairs after pre-screening             ...     21598
Total number of primitive shell pairs       ...    124843
Primitive shell pairs kept                  ...     50525
          la=0 lb=0:   6144 shell pairs
          la=1 lb=0:   7858 shell pairs
          la=1 lb=1:   2557 shell pairs
          la=2 lb=0:   2866 shell pairs
          la=2 lb=1:   1825 shell pairs
          la=2 lb=2:    348 shell pairs

Calculating one electron integrals          ... done (  0.1 sec)
Calculating RI/J V-Matrix + Cholesky decomp.... done (  0.1 sec)
Calculating Nuclear repulsion               ... done (  0.0 sec) ENN=   2695.660974780847 Eh

Diagonalization of the overlap matrix:
Smallest eigenvalue                        ... 2.352e-04
Time for diagonalization                   ...    0.029 sec
Threshold for overlap eigenvalues          ... 1.000e-07
Number of eigenvalues below threshold      ... 0
Time for construction of square roots      ...    0.057 sec
Total time needed                          ...    0.095 sec

-------------------
DFT GRID GENERATION
-------------------

General Integration Accuracy     IntAcc      ... 4.388
Radial Grid Type                 RadialGrid  ... OptM3 with GC (2021)
Angular Grid (max. ang.)         AngularGrid ... 4 (Lebedev-302)
Angular grid pruning method      GridPruning ... 4 (adaptive)
Weight generation scheme         WeightScheme... mBecke (2022)
Basis function cutoff            BFCut       ... 1.0000e-11
Integration weight cutoff        WCut        ... 1.0000e-14
Partially contracted basis set               ... off
Rotationally invariant grid construction     ... off
Angular grids for H and He will be reduced by one unit
Diffuse basis detected: some atoms will have their outermost
                        angular grid increased by 1.

Total number of grid points                  ...   192928
Total number of batches                      ...     3038
Average number of points per batch           ...       63
Average number of grid points per atom       ...     4706
Initializing property integral containers    ... done (  0.0 sec)

SHARK setup successfully completed in   3.1 seconds

Maximum memory used throughout the entire STARTUP-calculation: 102.4 MB
Occupation numbers will be reassigned to an Aufbau configuration
             **** ENERGY FILE WAS UPDATED (xtb_opt.en.tmp) ****
Finished Guess after   0.6 sec
Maximum memory used throughout the entire GUESS-calculation: 55.6 MB
--------------------
CPCM SOLVATION MODEL
--------------------
CPCM parameters:
  Epsilon                                         ...      78.3550
  Refrac                                          ...       1.3328
  Rsolv                                           ...       1.3000
  Surface type                                    ... GAUSSIAN VDW
  Discretization scheme                           ... Constant charge density
    Threshold for H atoms                         ...       5.0000 (charges/Ang^2)
    Threshold for non-H atoms                     ...       5.0000 (charges/Ang^2)
  Epsilon function type                           ...         CPCM
Solvent:                                          ... WATER
SMD-CDS solvent descriptors:
  Soln                                            ...       1.3328
  Soln25                                          ...       1.3323
  Sola                                            ...       0.0000
  Solb                                            ...       0.0000
  Solg                                            ...       0.0000
  Solc                                            ...       0.0000
  Solh                                            ...       0.0000
Radii:
  Scheme                                          ... Element-dependent radii
  Radius for C  used is    3.4960 Bohr (=   1.8500 Ang.)
  Radius for O  used is    2.8724 Bohr (=   1.5200 Ang.)
  Radius for P  used is    4.0062 Bohr (=   2.1200 Ang.)
  Radius for S  used is    4.7054 Bohr (=   2.4900 Ang.)
  Radius for H  used is    2.2677 Bohr (=   1.2000 Ang.)
Calculating surface                               ...        done! (  0.0s)
Cavity surface points                             ...         3454
Cavity Volume                                     ...    2821.7457
Cavity Surface-area                               ...    1414.7078
Calculating surface distance matrix               ...        done! (  0.1s)
Performing Cholesky decomposition & store         ...        done! (  0.5s)
Overall time for CPCM initialization              ...                 0.5s

----------------------------------------D-I-I-S--------------------------------------------
Iteration    Energy (Eh)           Delta-E    RMSDP     MaxDP     DIISErr   Damp  Time(sec)
-------------------------------------------------------------------------------------------
               ***  Starting incremental Fock matrix formation  ***
                              *** Initializing SOSCF ***
---------------------------------------S-O-S-C-F--------------------------------------
Iteration    Energy (Eh)           Delta-E    RMSDP     MaxDP     MaxGrad    Time(sec)
--------------------------------------------------------------------------------------
    1    -2932.5178279478300283     0.00e+00  5.17e-07  5.45e-05  2.41e-06    13.8
               *** Restarting incremental Fock matrix formation ***
    2    -2932.5178279484512132    -6.21e-10  6.99e-07  7.16e-05  5.12e-06    13.3
                  *** Gradient check signals convergence ***

               *****************************************************
               *                     SUCCESS                       *
               *           SCF CONVERGED AFTER   2 CYCLES          *
               *****************************************************


SMD CDS free energy correction energy :                 7.49267     Kcal/mol
Total Energy after SMD CDS correction =             -2932.505887620 Eh
             **** ENERGY FILE WAS UPDATED (xtb_opt.en.tmp) ****

----------------
TOTAL SCF ENERGY
----------------

Total Energy       :      -2932.50588762011557 Eh          -79797.54203 eV

Components:
Nuclear Repulsion  :       2695.66097478084748 Eh           73352.66430 eV
Electronic Energy  :      -5628.15136522844568 Eh         -153149.78463 eV
One Electron Energy:      -9413.14406535032685 Eh         -256144.67216 eV
Two Electron Energy:       3784.99270012188117 Eh          102994.88753 eV
CPCM Dielectric    :         -0.02743750085306 Eh              -0.74661 eV
SMD CDS (Gcds)     :          0.01194032833584 Eh               0.32491 eV

Virial components:
Potential Energy   :      -5855.61183625131525 Eh         -159339.29872 eV
Kinetic Energy     :       2923.10594863119923 Eh           79541.75669 eV
Virial Ratio       :          2.00321573666987

DFT components:
N(Alpha)           :      101.000178968292 electrons
N(Beta)            :      101.000178968292 electrons
N(Total)           :      202.000357936583 electrons
E(X)               :     -233.399888071338 Eh       
E(C)               :       -7.104997396271 Eh       
E(XC)              :     -240.504885467610 Eh       

CPCM Solvation Model Properties:
Surface-charge          :         -0.04606090536695
Corrected charge        :         -0.00000000000000
Outlying charge corr.   :          0.00010738268273 Eh               0.00292 eV
Free-energy (cav+disp)  :          0.01194032833584 Eh               0.32491 eV

---------------
SCF CONVERGENCE
---------------

  Last Energy change         ...    6.2118e-10  Tolerance :   1.0000e-07
  Last MAX-Density change    ...    7.1577e-05  Tolerance :   1.0000e-07
  Last RMS-Density change    ...    6.9863e-07  Tolerance :   5.0000e-09
  Last DIIS Error            ...    1.9232e-05  Tolerance :   1.0000e-07
  Last Orbital Gradient      ...    5.1180e-06  Tolerance :   1.0000e-04
  Last Orbital Rotation      ...    1.6099e-05  Tolerance :   1.0000e-04


----------------
ORBITAL ENERGIES
----------------

  NO   OCC          E(Eh)            E(eV) 
   0   2.0000     -88.583315     -2410.4745 
   1   2.0000     -88.581945     -2410.4373 
   2   2.0000     -88.532850     -2409.1013 
   3   2.0000     -88.531160     -2409.0553 
   4   2.0000     -76.923168     -2093.1858 
   5   2.0000     -76.921782     -2093.1481 
   6   2.0000     -18.995364      -516.8901 
   7   2.0000     -18.994092      -516.8555 
   8   2.0000     -18.994014      -516.8534 
   9   2.0000     -18.993492      -516.8392 
  10   2.0000     -10.109046      -275.0811 
  11   2.0000     -10.093562      -274.6598 
  12   2.0000     -10.092440      -274.6293 
  13   2.0000     -10.092319      -274.6260 
  14   2.0000     -10.091493      -274.6035 
  15   2.0000     -10.024122      -272.7702 
  16   2.0000     -10.022499      -272.7261 
  17   2.0000     -10.022208      -272.7181 
  18   2.0000     -10.019991      -272.6578 
  19   2.0000      -7.876842      -214.3398 
  20   2.0000      -7.875310      -214.2981 
  21   2.0000      -7.828117      -213.0139 
  22   2.0000      -7.826560      -212.9715 
  23   2.0000      -6.600489      -179.6084 
  24   2.0000      -6.599611      -179.5845 
  25   2.0000      -5.823788      -158.4733 
  26   2.0000      -5.822395      -158.4354 
  27   2.0000      -5.820593      -158.3864 
  28   2.0000      -5.818902      -158.3404 
  29   2.0000      -5.814167      -158.2115 
  30   2.0000      -5.812666      -158.1707 
  31   2.0000      -5.775500      -157.1593 
  32   2.0000      -5.774057      -157.1201 
  33   2.0000      -5.768441      -156.9672 
  34   2.0000      -5.768243      -156.9619 
  35   2.0000      -5.766838      -156.9236 
  36   2.0000      -5.766600      -156.9172 
  37   2.0000      -4.746313      -129.1538 
  38   2.0000      -4.745510      -129.1319 
  39   2.0000      -4.744908      -129.1155 
  40   2.0000      -4.744528      -129.1052 
  41   2.0000      -4.744066      -129.0926 
  42   2.0000      -4.743670      -129.0818 
  43   2.0000      -1.041522       -28.3412 
  44   2.0000      -1.040996       -28.3269 
  45   2.0000      -1.001854       -27.2618 
  46   2.0000      -0.998539       -27.1716 
  47   2.0000      -0.794764       -21.6266 
  48   2.0000      -0.755566       -20.5600 
  49   2.0000      -0.743930       -20.2434 
  50   2.0000      -0.726728       -19.7753 
  51   2.0000      -0.725030       -19.7291 
  52   2.0000      -0.712132       -19.3781 
  53   2.0000      -0.692965       -18.8565 
  54   2.0000      -0.676692       -18.4137 
  55   2.0000      -0.626664       -17.0524 
  56   2.0000      -0.615414       -16.7463 
  57   2.0000      -0.602378       -16.3915 
  58   2.0000      -0.593032       -16.1372 
  59   2.0000      -0.588638       -16.0176 
  60   2.0000      -0.528329       -14.3766 
  61   2.0000      -0.516743       -14.0613 
  62   2.0000      -0.489725       -13.3261 
  63   2.0000      -0.484443       -13.1824 
  64   2.0000      -0.472692       -12.8626 
  65   2.0000      -0.458858       -12.4862 
  66   2.0000      -0.449972       -12.2443 
  67   2.0000      -0.442461       -12.0400 
  68   2.0000      -0.435390       -11.8476 
  69   2.0000      -0.431476       -11.7411 
  70   2.0000      -0.420679       -11.4473 
  71   2.0000      -0.412259       -11.2181 
  72   2.0000      -0.405799       -11.0424 
  73   2.0000      -0.396927       -10.8009 
  74   2.0000      -0.396108       -10.7786 
  75   2.0000      -0.386167       -10.5081 
  76   2.0000      -0.379233       -10.3195 
  77   2.0000      -0.364257        -9.9119 
  78   2.0000      -0.361347        -9.8328 
  79   2.0000      -0.358432        -9.7534 
  80   2.0000      -0.355038        -9.6611 
  81   2.0000      -0.350635        -9.5413 
  82   2.0000      -0.348934        -9.4950 
  83   2.0000      -0.347375        -9.4526 
  84   2.0000      -0.342177        -9.3111 
  85   2.0000      -0.332213        -9.0400 
  86   2.0000      -0.320019        -8.7082 
  87   2.0000      -0.318742        -8.6734 
  88   2.0000      -0.308770        -8.4020 
  89   2.0000      -0.303705        -8.2642 
  90   2.0000      -0.299346        -8.1456 
  91   2.0000      -0.293009        -7.9732 
  92   2.0000      -0.288399        -7.8477 
  93   2.0000      -0.279320        -7.6007 
  94   2.0000      -0.276197        -7.5157 
  95   2.0000      -0.254730        -6.9316 
  96   2.0000      -0.242899        -6.6096 
  97   2.0000      -0.237247        -6.4558 
  98   2.0000      -0.229390        -6.2420 
  99   2.0000      -0.226763        -6.1705 
 100   2.0000      -0.224617        -6.1121 
 101   0.0000      -0.052206        -1.4206 
 102   0.0000      -0.032000        -0.8708 
 103   0.0000      -0.017005        -0.4627 
 104   0.0000      -0.010042        -0.2733 
 105   0.0000       0.003493         0.0951 
 106   0.0000       0.013135         0.3574 
 107   0.0000       0.023905         0.6505 
 108   0.0000       0.026148         0.7115 
 109   0.0000       0.051918         1.4128 
 110   0.0000       0.066298         1.8041 
 111   0.0000       0.075315         2.0494 
*Only the first 10 virtual orbitals were printed.
Total SCF time: 0 days 0 hours 0 min 28 sec 
Finished LeanSCF after  29.0 sec

Maximum memory used throughout the entire LEANSCF-calculation: 138.2 MB


-------------------------------------------------------------------------------
                          DFT DISPERSION CORRECTION                            
                                                                               
                                DFTD4 V3.4.0                                   
-------------------------------------------------------------------------------
-------------------------   ----------------
Dispersion correction           -0.020573169
-------------------------   ----------------

------------------   -----------------
gCP correction             0.045093049
------------------   -----------------

-------------------------   --------------------
FINAL SINGLE POINT ENERGY     -2932.481367740047
-------------------------   --------------------

------------------------------------------------------------------------------
                         ORCA SCF GRADIENT CALCULATION
------------------------------------------------------------------------------

Nuc. rep. gradient        (SHARK) ... done (  0.0 sec)
HCore & Overlap gradient  (SHARK) ... done (  2.0 sec)
Split-RIJ-J gradient      (SHARK) ... done (  9.4 sec)
XC gradient                       ... done ( 22.1 sec)
CPCM gradient                     ... done (  7.8 sec)
SMD gradient                      ... done (  0.0 sec)
Dispersion correction             ... done (  0.0 sec)

-------------------
DISPERSION GRADIENT
-------------------

   1   C   :    0.000045565   -0.000106021    0.000109288
   2   C   :    0.000051707   -0.000135544    0.000089642
   3   O   :    0.000064896   -0.000082502    0.000084848
   4   P   :    0.000186021   -0.000044837   -0.000086541
   5   S   :    0.000140001   -0.000160275   -0.000220323
   6   O   :    0.000089552    0.000056380    0.000015069
   7   C   :    0.000108342    0.000075936   -0.000022992
   8   C   :    0.000112823    0.000081522    0.000034623
   9   S   :    0.000103171    0.000199012   -0.000163971
  10   C   :    0.000018111    0.000046758   -0.000166717
  11   S   :   -0.000076979   -0.000053142   -0.000265710
  12   P   :   -0.000219978    0.000079658   -0.000081041
  13   S   :   -0.000167142    0.000250731   -0.000146759
  14   O   :   -0.000082563    0.000015540    0.000088819
  15   C   :   -0.000064843    0.000046440    0.000168241
  16   C   :   -0.000035952    0.000103680    0.000166478
  17   O   :   -0.000112106   -0.000027090   -0.000040872
  18   C   :   -0.000103943   -0.000070845   -0.000003954
  19   C   :   -0.000072110   -0.000134587   -0.000008900
  20   H   :    0.000016023   -0.000049037    0.000040789
  21   H   :    0.000012029   -0.000033608    0.000055696
  22   H   :    0.000011518   -0.000033410    0.000033854
  23   H   :    0.000016591   -0.000057663    0.000057796
  24   H   :    0.000021766   -0.000060909    0.000022706
  25   H   :    0.000051618    0.000017731   -0.000014112
  26   H   :    0.000041500    0.000042687   -0.000003594
  27   H   :    0.000029410    0.000020931    0.000005190
  28   H   :    0.000036414    0.000033016    0.000018921
  29   H   :    0.000046357    0.000029248    0.000016606
  30   H   :    0.000010937   -0.000001416   -0.000063549
  31   H   :   -0.000002696    0.000032106   -0.000057584
  32   H   :   -0.000025463    0.000005593    0.000088802
  33   H   :   -0.000031082    0.000018339    0.000070886
  34   H   :   -0.000019265    0.000054722    0.000061313
  35   H   :   -0.000005033    0.000027031    0.000056921
  36   H   :   -0.000012270    0.000036044    0.000069751
  37   H   :   -0.000050313   -0.000028208    0.000007400
  38   H   :   -0.000042366   -0.000024375   -0.000008603
  39   H   :   -0.000044233   -0.000069380    0.000000004
  40   H   :   -0.000020055   -0.000046629    0.000004838
  41   H   :   -0.000025961   -0.000053628   -0.000013261

Difference to translation invariance:
           :   -0.0000000000    0.0000000000   -0.0000000000

Difference to rotation invariance:
           :    0.0000000000    0.0000000000    0.0000000000

Norm of the Dispersion gradient    ...    0.0009279976
RMS gradient                       ...    0.0000836747
MAX gradient                       ...    0.0002657104
gCP correction                   ... done

------------------
CARTESIAN GRADIENT
------------------

   1   C   :    0.000056068   -0.000062336    0.000001363
   2   C   :   -0.000047641    0.000204576   -0.000087718
   3   O   :    0.000008363   -0.000188006    0.000064414
   4   P   :   -0.000024546    0.000008931    0.000097829
   5   S   :    0.000006761    0.000054338   -0.000043210
   6   O   :    0.000267281    0.000144350   -0.000164038
   7   C   :   -0.000253022   -0.000118779    0.000103159
   8   C   :    0.000024234   -0.000028066    0.000117906
   9   S   :   -0.000033109   -0.000091606   -0.000066146
  10   C   :    0.000092104   -0.000055978   -0.000078198
  11   S   :    0.000030275    0.000146565    0.000057605
  12   P   :    0.000136083   -0.000092985    0.000186184
  13   S   :   -0.000049203    0.000024496    0.000018523
  14   O   :    0.000116629    0.000070517   -0.000040824
  15   C   :   -0.000079679   -0.000136960    0.000048895
  16   C   :   -0.000007024    0.000095151   -0.000022079
  17   O   :   -0.000229067   -0.000086627   -0.000060330
  18   C   :    0.000013332    0.000142870   -0.000034902
  19   C   :    0.000104950   -0.000005812    0.000022532
  20   H   :   -0.000024099   -0.000011847   -0.000007704
  21   H   :   -0.000002423    0.000020024   -0.000043779
  22   H   :   -0.000027586    0.000048136    0.000004934
  23   H   :   -0.000057592   -0.000011501   -0.000002465
  24   H   :   -0.000025354   -0.000016427   -0.000024189
  25   H   :    0.000003933   -0.000023257   -0.000071242
  26   H   :   -0.000001022    0.000018989    0.000010370
  27   H   :   -0.000020309   -0.000026325   -0.000006573
  28   H   :    0.000022020   -0.000016894    0.000048247
  29   H   :   -0.000000538   -0.000010641   -0.000007869
  30   H   :   -0.000009544    0.000002839   -0.000006147
  31   H   :    0.000000639   -0.000040370    0.000023067
  32   H   :    0.000030003    0.000141470   -0.000090583
  33   H   :   -0.000043760    0.000057492    0.000002522
  34   H   :    0.000023673   -0.000093223    0.000139881
  35   H   :    0.000095726   -0.000013133   -0.000106045
  36   H   :   -0.000122266    0.000012802   -0.000043199
  37   H   :   -0.000003116   -0.000008701    0.000028428
  38   H   :   -0.000015067   -0.000012984    0.000011985
  39   H   :    0.000008525   -0.000007618    0.000019372
  40   H   :    0.000013692   -0.000026945    0.000001366
  41   H   :    0.000021675   -0.000006525   -0.000001344

Difference to translation invariance:
           :    0.0000000000    0.0000000000   -0.0000000001

Difference to rotation invariance:
           :    0.0000554963    0.0000160744   -0.0009399942

Norm of the Cartesian gradient     ...    0.0008611907
RMS gradient                       ...    0.0000776509
MAX gradient                       ...    0.0002672812

-------
TIMINGS
-------

Total SCF gradient time     ....       46.913 sec

Densities                   ....       0.007 sec  (  0.0%)
One electron gradient       ....       1.993 sec  (  4.2%)
RI-J Coulomb gradient       ....       9.357 sec  ( 19.9%)
XC gradient                 ....      22.081 sec  ( 47.1%)
CPCM gradient               ....       7.845 sec  ( 16.7%)
   A-Matrix (El+Nuc)        ....       0.264 sec  (  0.6%)
   Potential                ....       7.581 sec  ( 16.2%)
SMD gradient                ....       0.016 sec  (  0.0%)

Maximum memory used throughout the entire SCFGRAD-calculation: 84.9 MB

------------------------------------------------------------------------------
                              ORCA PROPERTY CALCULATIONS
------------------------------------------------------------------------------

GBWName                                 ... xtb_opt.gbw
Number of atoms                         ...     41
Number of basis functions               ...    539
Max core memory                         ...   1024 MB

Electric properties:
Dipole moment                           ... YES
Quadrupole moment                       ...  NO
Static polarizability (Dipole/Dipole)   ...  NO
Static polarizability (Dipole/Quad.)    ...  NO
Static polarizability (Quad./Quad.)     ...  NO
Static polarizability (Velocity)        ...  NO

Atomic electric properties:
Dipole moment                           ...  NO
Quadrupole moment                       ...  NO
Static polarizability                   ...  NO

Choice of electric origin               ... Center of mass
Position of electric origin             ...     0.012184     0.012613    -0.044427

General magnetic properties:
Magnetizability                         ...  NO

EPR properties:
g-Tensor (aka g-matrix)                 ...  NO
Zero-Field splitting spin-orbit         ...  NO
Zero-field splitting spin-spin          ...  NO
Hyperfine couplings                     ...  NO (   0 nuclei)
Quadrupole couplings                    ...  NO (   0 nuclei)
Contact density                         ...  NO (   0 nuclei)

NMR properties:
Chemical shifts                         ...  NO (   0 nuclei)
Spin-rotation constants                 ...  NO (   0 nuclei)
Spin-spin couplings                     ...  NO (   0 nuclei,    0 pairs)

Choice of magnetic origin               ... GIAO
Position of magnetic origin             ...     0.000000     0.000000     0.000000

Properties with geometric perturbations:
SCF Hessian                             ...  NO
IR spectrum                             ...  NO
VCD spectrum                            ...  NO
X-ray spectroscopy properties:
SCF XES/XAS/RIXS spectra                ...  NO


-------------
DIPOLE MOMENT
-------------

Method             : SCF
Type of density    : Electron Density
Multiplicity       :   1
Irrep              :   0
Energy             : -2932.5058876201155726 Eh
Relativity type    : 
Basis              : AO
                                X                 Y                 Z
Electronic contribution:    -10.038355469       6.756000122     -17.688400739
Nuclear contribution   :     11.204544597      -8.300333093      19.790093886
                        -----------------------------------------
Total Dipole Moment    :      1.166189128      -1.544332971       2.101693147
                        -----------------------------------------
Magnitude (a.u.)       :      2.856934632
Magnitude (Debye)      :      7.261750733



--------------------
Rotational spectrum 
--------------------
 
Rotational constants in cm-1:             0.012470             0.004430             0.004171 
Rotational constants in MHz :           373.851940           132.800106           125.054194 

Dipole components along the rotational axes: 
x,y,z [a.u.] :     1.368489    -1.936506    -1.593506 
x,y,z [Debye]:     3.478421    -4.922207    -4.050369 

 

Dipole moment calculation done in   0.1 sec 

Maximum memory used throughout the entire PROP-calculation: 51.9 MB

--------------------------------
SUGGESTED CITATIONS FOR THIS RUN
--------------------------------

Below you find a list of papers that are relevant to this ORCA run
We neither can nor want to force you to cite these papers, but we appreciate if you do
You receive ORCA, which is the product of decades of hard work by many enthusiastic individuals, for free
The only thing we kindly ask in return is that you cite our papers,
We deeply appreciate it, if you show your appreciation for ORCA by not just citing the generic ORCA reference.

Please note that relegating all ORCA citations to the supporting information does *not* help us.
SI sections are not indexed - citations you put there will not count into any citation statistics
But we need these citations in order to attract the funding resources that allow us to do what we are doing

Therefore, if you are a happy ORCA user, please consider citing a few of the papers listed below in the main body of your paper

In addition to the list printed below, the program has created the file xtb_opt.bibtex that contains the list in bibtex format
You can import this file easily into all common literature databanks and citation aid programs


List of essential papers. We consider these as the minimum necessary citations

  1. Neese,F.
     Software update: the ORCA program system, version 5.0
     WIRES Comput. Molec. Sci., 2022 12(1)e1606
     doi.org/10.1002/wcms.1606
  2. Grimme,S.; Hansen,A.; Ehlert,S.; Mewes,J.
     r2SCAN-3c: A 'Swiss army knife' composite electronic-structure method
     J. Chem. Phys., 2021 154 064103
     doi.org/10.1063/5.0040021

List of papers to cite with high priority. The work reported in these papers was absolutely
necessary for this run to complete.
Our perspective: the developers of density functionals and basis sets usually get cited in chemistry papers
Good! But without the algorithms to do something with them, the functionals or basis sets would not do anything.
Hence, in our opinion, the algorithm design and method developments papers are equally worthy of getting cited

  1. Neese,F.
     An improvement of the resolution of the identity approximation for the formation of the Coulomb matrix
     J. Comp. Chem., 2003 24(14)1740-1747
     doi.org/10.1002/jcc.10318
  2. Garcia-Rates,M.; Neese,F.
     Effect of the Solute Cavity on the Solvation Energy and its Derivatives within the Framework of the Gaussian Charge Scheme
     J. Comput. Chem., 2020 41 922-939
     doi.org/10.1002/jcc.26139
  3. Neese,F.
     The SHARK Integral Generation and Digestion System
     J. Comp. Chem., 2022  1-16
     doi.org/10.1002/jcc.26942
  4. Lehtola,S.; Steigemann,C.; Oliveira,M.; Marques,M.
     Recent developments in Libxc - A comprehensive library of functionals for density functional theory
     Software X, 2018 7 
     doi.org/10.1016/j.softx.2017.11.002
  5. Caldeweyher,E.; Bannwarth,C.; Grimme,S.
     Extension of the D3 dispersion coefficient model
     J. Chem. Phys., 2017 147 034112-XXXX
     doi.org/10.1063/1.4993215
  6. Caldeweyher,E.; Ehlert,S.; Hansen,A.; Neugebauer,H.; Spicher,S.; Bannwarth,C.; Grimme,S.
     A generally applicable atomic-charge dependent London dispersion correction
     J. Chem. Phys., 2019 150 154122-XXXX
     doi.org/10.1063/1.5090222
  7. Caldeweyher,E.; Mewes,J.; Ehlert,S.; Grimme,S.
     Extension and evaluation of the D4 London-dispersion model for periodic systems
     Phys. Chem. Chem. Phys., 2020 22(16)8499-8512
     doi.org/10.1039/D0CP00502A

List of suggested additional citations. These are papers that are important in the 'surrounding' of 
of this run, or papers that preceded the highly important papers. If you like your results we are grateful for a citation.

  1. Neese,F.
     The ORCA program system
     WIRES Comput. Molec. Sci., 2012 2(1)73-78
     doi.org/10.1002/wcms.81
  2. Neese,F.
     Software update: the ORCA program system, version 4.0
     WIRES Comput. Molec. Sci., 2018 8(1)1-6
     doi.org/10.1002/wcms.1327
  3. Neese,F.; Wennmohs,F.; Becker,U.; Riplinger,C.
     The ORCA quantum chemistry program package
     J. Chem. Phys., 2020 152 Art. No. L224108
     doi.org/10.1063/5.0004608

List of optional additional citations

  1. Neese,F.
     Approximate second-order SCF convergence for spin unrestricted wavefunctions
     Chem. Phys. Lett., 2000 325(1-3)93-98
     doi.org/10.1016/s0009-2614(00)00662-x

Timings for individual modules:

Sum of individual times          ...       80.261 sec (=   1.338 min)
Startup calculation              ...        3.132 sec (=   0.052 min)   3.9 %
SCF iterations                   ...       29.732 sec (=   0.496 min)  37.0 %
Property calculations            ...        0.286 sec (=   0.005 min)   0.4 %
SCF Gradient evaluation          ...       47.110 sec (=   0.785 min)  58.7 %
                             ****ORCA TERMINATED NORMALLY****
TOTAL RUN TIME: 0 days 0 hours 1 minutes 21 seconds 225 msec
  ------------------------------------------------------------------------
          * successful ORCA run, taking over control again...

         :::::::::::::::::::::::::::::::::::::::::::::::::::::
         ::                  ORCA SUMMARY                   ::
         :::::::::::::::::::::::::::::::::::::::::::::::::::::
         :: total energy           -2932.481367740047 Eh    ::
         :: gradient norm              0.000861190679 Eh/a0 ::
         :: HOMO-LUMO gap              0.000000000000 eV    ::
         :::::::::::::::::::::::::::::::::::::::::::::::::::::

      ----------------------------------------------------------- 
     |                       L-ANC optimizer                     |
      ----------------------------------------------------------- 
          low memory version by Sebastian Ehlert

          ...................................................
          :                      SETUP                      :
          :.................................................:
          :   energy convergence        0.5000000E-05 Eh    :
          :   grad. convergence         0.1000000E-02 Eh/a0 :
          :   optimization log               true           :
          :   writing optlog all                1     steps :
          :   Hessian reset                     8     steps :
          :   maximium step len.        1.0000000     a0    :
          :   LBFGS images                      8           :
          ...................................................
 * calculating model hessian...
Using Lindh-Hessian (1995)
 Shifting diagonal of input Hessian by   1.002375271287747E-002
 Lowest  eigenvalues of input Hessian
    0.010000    0.010019    0.000000    0.000000    0.000000    0.000000
    0.000000    0.000000    0.010244    0.010672    0.010747    0.011146
    0.011377    0.011697    0.011911    0.012132    0.012270    0.013140
 Highest eigenvalues
    1.296507    1.297314    1.727497    1.757723    1.869004    1.899517
 

........................................................................
.............................. CYCLE    1 ..............................
........................................................................
                         * ORCA takes the control...
  ------------------------------------------------------------------------

                                 *****************
                                 * O   R   C   A *
                                 *****************

                                            #,                                       
                                            ###                                      
                                            ####                                     
                                            #####                                    
                                            ######                                   
                                           ########,                                 
                                     ,,################,,,,,                         
                               ,,#################################,,                 
                          ,,##########################################,,             
                       ,#########################################, ''#####,          
                    ,#############################################,,   '####,        
                  ,##################################################,,,,####,       
                ,###########''''           ''''###############################       
              ,#####''   ,,,,##########,,,,          '''####'''          '####       
            ,##' ,,,,###########################,,,                        '##       
           ' ,,###''''                  '''############,,,                           
         ,,##''                                '''############,,,,        ,,,,,,###''
      ,#''                                            '''#######################'''  
     '                                                          ''''####''''         
             ,#######,   #######,   ,#######,      ##                                
            ,#'     '#,  ##    ##  ,#'     '#,    #''#        ,####,   ,####,        
            ##       ##  ##   ,#'  ##            #'  '#       #'       #'  '#        
            ##       ##  #######   ##           ,######,      #####,   #    #        
            '#,     ,#'  ##    ##  '#,     ,#' ,#      #,     #,   #   #,  ,#        
             '#######'   ##     ##  '#######'  #'      '#     '####' # '####'        



                #########################################################
                #                        -***-                          #
                #          Department of theory and spectroscopy        #
                #                                                       #
                #                      Frank Neese                      #
                #                                                       #
                #     Directorship, Architecture, Infrastructure        #
                #                    SHARK, DRIVERS                     #
                #        Core code/Algorithms in most modules           #
                #                                                       #
                #        Max Planck Institute fuer Kohlenforschung      #
                #                Kaiser Wilhelm Platz 1                 #
                #                 D-45470 Muelheim/Ruhr                 #
                #                      Germany                          #
                #                                                       #
                #                  All rights reserved                  #
                #                        -***-                          #
                #########################################################


                         Program Version 6.0.0  -   RELEASE  -


 With contributions from (in alphabetic order):
   Daniel Aravena         : Magnetic Suceptibility
   Michael Atanasov       : Ab Initio Ligand Field Theory (pilot matlab implementation)
   Alexander A. Auer      : GIAO ZORA, VPT2 properties, NMR spectrum
   Ute Becker             : All parallelization in ORCA, NUMFREQ, NUMCALC
   Giovanni Bistoni       : ED, misc. LED, open-shell LED, HFLD
   Martin Brehm           : Molecular dynamics
   Dmytro Bykov           : pre 5.0 version of the SCF Hessian
   Marcos Casanova-Páez   : Triplet and SCS-CIS(D). UHF-(DLPNO)-IP/EA/STEOM-CCSD. UHF-CVS-IP/STEOM-CCSD
   Vijay G. Chilkuri      : MRCI spin determinant printing, contributions to CSF-ICE
   Pauline Colinet        : FMM embedding
   Dipayan Datta          : RHF DLPNO-CCSD density
   Achintya Kumar Dutta   : EOM-CC, STEOM-CC
   Nicolas Foglia         : Exact transition moments, OPA infrastructure, MCD improvements
   Dmitry Ganyushin       : Spin-Orbit,Spin-Spin,Magnetic field MRCI
   Miquel Garcia          : C-PCM and meta-GGA Hessian, CCSD/C-PCM, Gaussian charge scheme
   Tiago L. C. Gouveia    : GS-ROHF, GS-ROCIS
   Yang Guo               : DLPNO-NEVPT2, F12-NEVPT2, CIM, IAO-localization
   Andreas Hansen         : Spin unrestricted coupled pair/coupled cluster methods
   Ingolf Harden          : AUTO-CI MPn and infrastructure 
   Benjamin Helmich-Paris : MC-RPA, TRAH-(SCF,CASSCF), AVAS, COSX integrals, SCF dyn. polar.
   Lee Huntington         : MR-EOM, pCC
   Robert Izsak           : Overlap fitted RIJCOSX, COSX-SCS-MP3, EOM
   Riya Kayal             : Wick's Theorem for AUTO-CI, AUTO-CI UHF-CCSDT
   Emily Kempfer          : AUTO-CI, RHF CISDT and CCSDT
   Christian Kollmar      : KDIIS, OOCD, Brueckner-CCSD(T), CCSD density, CASPT2, CASPT2-K, improved NEVPT2
   Axel Koslowski         : Symmetry handling
   Simone Kossmann        : Meta GGA functionals, TD-DFT gradient, OOMP2, (MP2 Hessian; deprecated post 5.0)
   Lucas Lang             : DCDCAS
   Marvin Lechner         : AUTO-CI (C++ implementation), FIC-MRCC
   Spencer Leger          : CASSCF response
   Dagmar Lenk            : GEPOL surface, SMD, ORCA-2-JSON
   Dimitrios Liakos       : Extrapolation schemes; Compound Job, initial MDCI parallelization
   Dimitrios Manganas     : Further ROCIS development; embedding schemes. LFT, Crystal Embedding
   Dimitrios Pantazis     : SARC Basis sets
   Anastasios Papadopoulos: AUTO-CI, single reference methods and gradients
   Taras Petrenko         : pre 6.0 DFT Hessian and TD-DFT gradient, (ASA, deprecated), ECA, 1-Electron XAS/XES, NRVS
   Peter Pinski           : DLPNO-MP2, DLPNO-MP2 Gradient
   Christoph Reimann      : Effective Core Potentials
   Marius Retegan         : Local ZFS, SOC
   Christoph Riplinger    : Optimizer, TS searches, QM/MM, DLPNO-CCSD(T), (RO)-DLPNO pert. Triples
   Michael Roemelt        : Original ROCIS implementation
   Masaaki Saitow         : Open-shell DLPNO-CCSD energy and density
   Barbara Sandhoefer     : DKH picture change effects
   Kantharuban Sivalingam : CASSCF convergence/infrastructure, NEVPT2 and variants, FIC-MRCI
   Bernardo de Souza      : ESD, SOC TD-DFT
   Georgi Stoychev        : AutoAux, RI-MP2 NMR, DLPNO-MP2 response, X2C
   Van Anh Tran           : RI-MP2 g-tensors
   Willem Van den Heuvel  : Paramagnetic NMR
   Zikuan Wang            : NOTCH, Electric field optimization 
   Frank Wennmohs         : Technical directorship and infrastructure
   Hang Xu                : AUTO-CI-Response properties 


 We gratefully acknowledge several colleagues who have allowed us to
 interface, adapt or use parts of their codes:
   Stefan Grimme, W. Hujo, H. Kruse, P. Pracht,  : VdW corrections, initial TS optimization,
                  C. Bannwarth, S. Ehlert,         DFT functionals, gCP, sTDA/sTD-DF
                  L. Wittmann, M. Mueller
   Ed Valeev, F. Pavosevic, A. Kumar             : LibInt (2-el integral package), F12 methods
   Garnet Chan, S. Sharma, J. Yang, R. Olivares  : DMRG
   Ulf Ekstrom                                   : XCFun DFT Library
   Mihaly Kallay                                 : mrcc  (arbitrary order and MRCC methods)
   Frank Weinhold                                : gennbo (NPA and NBO analysis)
   Simon Mueller                                 : openCOSMO-RS
   Christopher J. Cramer and Donald G. Truhlar   : smd solvation model
   Lars Goerigk                                  : TD-DFT with DH, B97 family of functionals
   V. Asgeirsson, H. Jonsson                     : NEB implementation
   FAccTs GmbH                                   : IRC, NEB, NEB-TS, DLPNO-Multilevel, CI-OPT
                                                   MM, QMMM, 2- and 3-layer-ONIOM, Crystal-QMMM,
                                                   LR-CPCM, SF, NACMEs, symmetry and pop. for TD-DFT,
                                                   nearIR, NL-DFT gradient (VV10), updates on ESD,
                                                   ML-optimized integration grids, MBIS, APM,
                                                   GOAT, DOCKER, SOLVATOR, interface openCOSMO-RS
   S Lehtola, MJT Oliveira, MAL Marques          : LibXC Library
   Liviu Ungur et al                             : ANISO software


 Your calculation uses the libint2 library for the computation of 2-el integrals
 For citations please refer to: http://libint.valeyev.net

 Your ORCA version has been built with support for libXC version: 6.2.2
 For citations please refer to: https://libxc.gitlab.io

 This ORCA versions uses:
   CBLAS   interface :  Fast vector & matrix operations
   LAPACKE interface :  Fast linear algebra routines
   SCALAPACK package :  Parallel linear algebra routines
   Shared memory     :  Shared parallel matrices
   BLAS/LAPACK       :  OpenBLAS 0.3.27  USE64BITINT DYNAMIC_ARCH NO_AFFINITY SapphireRapids SINGLE_THREADED
        Core in use  :  SapphireRapids
   Copyright (c) 2011-2014, The OpenBLAS Project




***************************************
The coordinates will be read from file: xtb_opt.xyz
***************************************


Your calculation utilizes the geometrical counterpoise correction gCP
Please cite in your paper:
H.Kruse, S. Grimme J.Chem.Phys., 136, (2012), 154101 
   

Your calculation utilizes the atom-pairwise dispersion correction
based on EEQ partial charges (D4)


Your calculation utilizes the SMD solvation module
Please cite in your paper:
A.V. Marenich, C.J. Cramer, D.G. Truhlar J. Phys. Chem. B, 113, (2009), 6378 

================================================================================

----- Orbital basis set information -----
Your calculation utilizes the basis: def2-mTZVPP
   Stefan Grimme, Andreas Hansen, Sebastian Ehlert, and Jan-Michael Mewes 
   J. Chem. Phys. 154, 064103 (2021). DOI: 10.1063/5.0040021

----- AuxJ basis set information -----
Your calculation utilizes the auxiliary basis: def2/J
   F. Weigend, Phys. Chem. Chem. Phys. 8, 1057 (2006).

================================================================================
                                        WARNINGS
                       Please study these warnings very carefully!
================================================================================

WARNING: Old DensityContainer found on disk!
         Will remove this file - 
         If you want to keep old densities, please start your calculation with a different basename. 

Using LibXC functional ID 497 : Re-regularized SCAN exchange by Furness et al
[ 1]  J. W. Furness, A. D. Kaplan, J. Ning, J. P. Perdew, and J. Sun.,  J. Phys. Chem. Lett. 11, 8208-8215 (2020)
[ 2]  J. W. Furness, A. D. Kaplan, J. Ning, J. P. Perdew, and J. Sun.,  J. Phys. Chem. Lett. 11, 9248-9248 (2020)
Using LibXC functional ID 498 : Re-regularized SCAN correlation by Furness et al
[ 1]  J. W. Furness, A. D. Kaplan, J. Ning, J. P. Perdew, and J. Sun.,  J. Phys. Chem. Lett. 11, 8208-8215 (2020)
[ 2]  J. W. Furness, A. D. Kaplan, J. Ning, J. P. Perdew, and J. Sun.,  J. Phys. Chem. Lett. 11, 9248-9248 (2020)
Using LibXC functional ID 497 : Re-regularized SCAN exchange by Furness et al
[ 1]  J. W. Furness, A. D. Kaplan, J. Ning, J. P. Perdew, and J. Sun.,  J. Phys. Chem. Lett. 11, 8208-8215 (2020)
[ 2]  J. W. Furness, A. D. Kaplan, J. Ning, J. P. Perdew, and J. Sun.,  J. Phys. Chem. Lett. 11, 9248-9248 (2020)
Using LibXC functional ID 498 : Re-regularized SCAN correlation by Furness et al
[ 1]  J. W. Furness, A. D. Kaplan, J. Ning, J. P. Perdew, and J. Sun.,  J. Phys. Chem. Lett. 11, 8208-8215 (2020)
[ 2]  J. W. Furness, A. D. Kaplan, J. Ning, J. P. Perdew, and J. Sun.,  J. Phys. Chem. Lett. 11, 9248-9248 (2020)

================================================================================
                                       INPUT FILE
================================================================================
NAME = xtb_opt.inp
|  1> ! r2scan-3c def2/J RI DEFGRID2 scfconv7 ENGRAD tightSCF miniprint
|  2> %cpcm
|  3>     smd true
|  4>     smdsolvent "water"
|  5> end
|  6> * xyzfile 0 1 xtb_opt.xyz
|  7> 
|  8>                          ****END OF INPUT****
================================================================================

                     *******************************
                     * Energy+Gradient Calculation *
                     *******************************

---------------------------------
CARTESIAN COORDINATES (ANGSTROEM)
---------------------------------
  C      3.201001   -2.288008    2.406614
  C      1.867912   -2.203833    1.705909
  O      1.575324   -0.835773    1.248514
  P      2.326075   -0.179987   -0.009002
  S      2.842210   -1.380769   -1.452709
  O      3.504915    0.624886    0.738932
  C      4.571837    1.284316   -0.027578
  C      5.534612    1.873118    0.970133
  S      1.017621    1.406240   -0.527156
  C     -0.013124    0.584526   -1.804860
  S     -1.163656   -0.723978   -1.239817
  P     -2.816509    0.392082   -0.458871
  S     -2.881562    2.239916   -1.066110
  O     -2.836987    0.111292    1.123104
  C     -1.694424    0.357697    2.011830
  C     -1.647404    1.788230    2.487641
  O     -4.104851   -0.441476   -0.923114
  C     -4.640711   -1.618812   -0.210342
  C     -3.705850   -2.801817   -0.239169
  H      4.031008   -2.105762    1.717445
  H      3.256543   -1.570839    3.230542
  H      3.316079   -3.296293    2.817802
  H      1.039754   -2.425396    2.382014
  H      1.812415   -2.872727    0.841690
  H      5.051241    0.532986   -0.662183
  H      4.118900    2.055813   -0.659193
  H      6.345230    2.369637    0.428352
  H      5.039068    2.612598    1.605208
  H      5.968093    1.091503    1.600497
  H      0.642716    0.100392   -2.534732
  H     -0.579093    1.384209   -2.290568
  H     -1.858034   -0.335086    2.840444
  H     -0.777282    0.067353    1.490187
  H     -1.440876    2.479587    1.667204
  H     -2.588272    2.072496    2.967980
  H     -0.842956    1.878495    3.225358
  H     -4.888277   -1.314957    0.809191
  H     -5.563449   -1.830821   -0.753613
  H     -2.804381   -2.627227    0.356313
  H     -4.228150   -3.660341    0.196033
  H     -3.423203   -3.059087   -1.263929

----------------------------
CARTESIAN COORDINATES (A.U.)
----------------------------
  NO LB      ZA    FRAG     MASS         X           Y           Z
   0 C     6.0000    0    12.011    6.049015   -4.323708    4.547842
   1 C     6.0000    0    12.011    3.529842   -4.164642    3.223701
   2 O     8.0000    0    15.999    2.976932   -1.579383    2.359350
   3 P    15.0000    0    30.974    4.395646   -0.340127   -0.017011
   4 S    16.0000    0    32.060    5.370998   -2.609276   -2.745222
   5 O     8.0000    0    15.999    6.623330    1.180862    1.396379
   6 C     6.0000    0    12.011    8.639520    2.427005   -0.052115
   7 C     6.0000    0    12.011   10.458900    3.539680    1.833285
   8 S    16.0000    0    32.060    1.923025    2.657408   -0.996180
   9 C     6.0000    0    12.011   -0.024801    1.104594   -3.410692
  10 S    16.0000    0    32.060   -2.198991   -1.368120   -2.342914
  11 P    15.0000    0    30.974   -5.322430    0.740928   -0.867141
  12 S    16.0000    0    32.060   -5.445363    4.232829   -2.014655
  13 O     8.0000    0    15.999   -5.361128    0.210312    2.122359
  14 C     6.0000    0    12.011   -3.201998    0.675949    3.801807
  15 C     6.0000    0    12.011   -3.113143    3.379265    4.700961
  16 O     8.0000    0    15.999   -7.757044   -0.834268   -1.744432
  17 C     6.0000    0    12.011   -8.769672   -3.059111   -0.397488
  18 C     6.0000    0    12.011   -7.003041   -5.294667   -0.451964
  19 H     1.0000    0     1.008    7.617501   -3.979313    3.245501
  20 H     1.0000    0     1.008    6.153974   -2.968456    6.104840
  21 H     1.0000    0     1.008    6.266481   -6.229092    5.324874
  22 H     1.0000    0     1.008    1.964851   -4.583334    4.501354
  23 H     1.0000    0     1.008    3.424968   -5.428667    1.590563
  24 H     1.0000    0     1.008    9.545463    1.007198   -1.251344
  25 H     1.0000    0     1.008    7.783593    3.884923   -1.245694
  26 H     1.0000    0     1.008   11.990747    4.477964    0.809469
  27 H     1.0000    0     1.008    9.522459    4.937095    3.033404
  28 H     1.0000    0     1.008   11.278061    2.062641    3.024502
  29 H     1.0000    0     1.008    1.214557    0.189714   -4.789949
  30 H     1.0000    0     1.008   -1.094327    2.615776   -4.328547
  31 H     1.0000    0     1.008   -3.511175   -0.633221    5.367661
  32 H     1.0000    0     1.008   -1.468850    0.127278    2.816045
  33 H     1.0000    0     1.008   -2.722862    4.685740    3.150559
  34 H     1.0000    0     1.008   -4.891125    3.916450    5.608670
  35 H     1.0000    0     1.008   -1.592955    3.549842    6.095043
  36 H     1.0000    0     1.008   -9.237505   -2.484908    1.529149
  37 H     1.0000    0     1.008  -10.513394   -3.459750   -1.424122
  38 H     1.0000    0     1.008   -5.299512   -4.964740    0.673334
  39 H     1.0000    0     1.008   -7.990046   -6.917043    0.370449
  40 H     1.0000    0     1.008   -6.468916   -5.780836   -2.388480

------------------------------------------------------------------------------
                   ___                                                        
                  /   \      - P O W E R E D   B Y -                         
                 /     \                                                     
                 |  |  |   _    _      __       _____    __    __             
                 |  |  |  | |  | |    /  \     |  _  \  |  |  /  |          
                  \  \/   | |  | |   /    \    | | | |  |  | /  /          
                 / \  \   | |__| |  /  /\  \   | |_| |  |  |/  /          
                |  |  |   |  __  | /  /__\  \  |    /   |      \           
                |  |  |   | |  | | |   __   |  |    \   |  |\   \          
                \     /   | |  | | |  |  |  |  | |\  \  |  | \   \       
                 \___/    |_|  |_| |__|  |__|  |_| \__\ |__|  \__/        
                                                                              
                      - O R C A' S   B I G   F R I E N D -                    
                                      &                                       
                       - I N T E G R A L  F E E D E R -                       
                                                                              
 v1 FN, 2020, v2 2021, v3 2022-2024                                           
------------------------------------------------------------------------------


----------------------
SHARK INTEGRAL PACKAGE
----------------------

Number of atoms                             ...     41
Number of basis functions                   ...    539
Number of shells                            ...    253
Maximum angular momentum                    ...      2
Integral batch strategy                     ... SHARK/LIBINT Hybrid
RI-J (if used) integral strategy            ... SPLIT-RIJ (Revised 2003 algorithm where possible)
Printlevel                                  ...      1
Contraction scheme used                     ... SEGMENTED contraction
Prescreening option                         ... SCHWARTZ
   Thresh                                   ... 3.000e-11
   Tcut                                     ... 1.000e-12
   Tpresel                                  ... 1.000e-12 
Coulomb Range Separation                    ... NOT USED
Exchange Range Separation                   ... NOT USED
Multipole approximations                    ... NOT USED
Finite Nucleus Model                        ... NOT USED
CABS basis                                  ... NOT available
Auxiliary Coulomb fitting basis             ... AVAILABLE
   # of basis functions in Aux-J            ...   1185
   # of shells in Aux-J                     ...    407
   Maximum angular momentum in Aux-J        ...      4
Auxiliary J/K fitting basis                 ... NOT available
Auxiliary Correlation fitting basis         ... NOT available
Auxiliary 'external' fitting basis          ... NOT available

Checking pre-screening integrals            ... done (  0.0 sec) Dimension = 253
Check shell pair data                       ... done (  0.0 sec)
Shell pair information
Shell pair cut-off parameter TPreSel        ...   1.0e-12
Total number of shell pairs                 ...     32131
Shell pairs after pre-screening             ...     21596
Total number of primitive shell pairs       ...    124843
Primitive shell pairs kept                  ...     50525
          la=0 lb=0:   6143 shell pairs
          la=1 lb=0:   7856 shell pairs
          la=1 lb=1:   2558 shell pairs
          la=2 lb=0:   2866 shell pairs
          la=2 lb=1:   1825 shell pairs
          la=2 lb=2:    348 shell pairs

Calculating one electron integrals          ... done (  0.1 sec)
Calculating RI/J V-Matrix + Cholesky decomp.... done (  0.1 sec)
[...]
CPCM gradient                     ... done (  7.8 sec)
SMD gradient                      ... done (  0.0 sec)
Dispersion correction             ... done (  0.0 sec)

-------------------
DISPERSION GRADIENT
-------------------

   1   C   :    0.000045585   -0.000105985    0.000109308
   2   C   :    0.000051692   -0.000135440    0.000089578
   3   O   :    0.000064932   -0.000082529    0.000084843
   4   P   :    0.000186106   -0.000044903   -0.000086576
   5   S   :    0.000140078   -0.000160616   -0.000220174
   6   O   :    0.000089580    0.000056408    0.000014990
   7   C   :    0.000108286    0.000075866   -0.000023012
   8   C   :    0.000112804    0.000081542    0.000034563
   9   S   :    0.000103035    0.000199183   -0.000163647
  10   C   :    0.000017996    0.000046882   -0.000166643
  11   S   :   -0.000077014   -0.000053339   -0.000265819
  12   P   :   -0.000219823    0.000079698   -0.000081133
  13   S   :   -0.000166889    0.000250731   -0.000146923
  14   O   :   -0.000082575    0.000015525    0.000088855
  15   C   :   -0.000064898    0.000046370    0.000168240
  16   C   :   -0.000035977    0.000103654    0.000166531
  17   O   :   -0.000112129   -0.000027113   -0.000040875
  18   C   :   -0.000103954   -0.000070771   -0.000003968
  19   C   :   -0.000072125   -0.000134539   -0.000008892
  20   H   :    0.000016030   -0.000049009    0.000040810
  21   H   :    0.000012047   -0.000033579    0.000055698
  22   H   :    0.000011526   -0.000033400    0.000033865
  23   H   :    0.000016570   -0.000057648    0.000057793
  24   H   :    0.000021762   -0.000060868    0.000022685
  25   H   :    0.000051627    0.000017741   -0.000014117
  26   H   :    0.000041526    0.000042665   -0.000003638
  27   H   :    0.000029396    0.000020928    0.000005172
  28   H   :    0.000036423    0.000033030    0.000018898
  29   H   :    0.000046336    0.000029265    0.000016590
  30   H   :    0.000010946   -0.000001395   -0.000063569
  31   H   :   -0.000002745    0.000032150   -0.000057548
  32   H   :   -0.000025484    0.000005560    0.000088803
  33   H   :   -0.000031083    0.000018315    0.000070885
  34   H   :   -0.000019280    0.000054669    0.000061319
  35   H   :   -0.000005031    0.000026998    0.000056922
  36   H   :   -0.000012323    0.000036072    0.000069803
  37   H   :   -0.000050327   -0.000028187    0.000007393
  38   H   :   -0.000042377   -0.000024356   -0.000008602
  39   H   :   -0.000044223   -0.000069367   -0.000000004
  40   H   :   -0.000020071   -0.000046609    0.000004846
  41   H   :   -0.000025957   -0.000053601   -0.000013250

Difference to translation invariance:
           :   -0.0000000000   -0.0000000000    0.0000000000

Difference to rotation invariance:
           :    0.0000000000    0.0000000000   -0.0000000000

Norm of the Dispersion gradient    ...    0.0009279811
RMS gradient                       ...    0.0000836732
MAX gradient                       ...    0.0002658185
gCP correction                   ... done

------------------
CARTESIAN GRADIENT
------------------

   1   C   :   -0.000007064   -0.000049407    0.000006219
   2   C   :   -0.000027295    0.000106536   -0.000028043
   3   O   :    0.000027883   -0.000006815   -0.000065017
   4   P   :   -0.000016396   -0.000029105   -0.000104838
   5   S   :    0.000053582   -0.000097089    0.000035166
   6   O   :   -0.000029381    0.000019191   -0.000075452
   7   C   :   -0.000124544   -0.000069261    0.000133785
   8   C   :    0.000065948    0.000006601   -0.000028305
   9   S   :    0.000022161    0.000163947    0.000034067
  10   C   :   -0.000147040    0.000104899    0.000192795
  11   S   :   -0.000031871   -0.000271526   -0.000074712
  12   P   :    0.000126754    0.000192513    0.000116255
  13   S   :    0.000040364    0.000012492   -0.000054599
  14   O   :    0.000042555   -0.000029507   -0.000026878
  15   C   :   -0.000043375    0.000002465   -0.000010693
  16   C   :    0.000000002    0.000024133   -0.000013423
  17   O   :   -0.000064556   -0.000081560   -0.000021639
  18   C   :    0.000057794    0.000032268   -0.000017782
  19   C   :    0.000000117   -0.000028354    0.000011845
  20   H   :   -0.000013021   -0.000023302   -0.000023750
  21   H   :   -0.000005878    0.000016994   -0.000024202
  22   H   :   -0.000008674    0.000003880    0.000012099
  23   H   :    0.000003925   -0.000024666   -0.000006274
  24   H   :   -0.000013838   -0.000006493   -0.000014557
  25   H   :    0.000012475    0.000030412   -0.000015664
  26   H   :    0.000015120    0.000031529    0.000017859
  27   H   :    0.000020325   -0.000001253    0.000029431
  28   H   :    0.000001878   -0.000036573    0.000014165
  29   H   :   -0.000002644   -0.000037746   -0.000012340
  30   H   :   -0.000015028   -0.000047142    0.000001854
  31   H   :    0.000016170    0.000045870   -0.000045490
  32   H   :    0.000010711   -0.000001816    0.000021927
  33   H   :    0.000001630    0.000003191   -0.000018802
  34   H   :    0.000041377    0.000025610   -0.000026279
  35   H   :   -0.000048997    0.000027632   -0.000029686
  36   H   :   -0.000015909   -0.000000446    0.000050395
  37   H   :    0.000001246   -0.000006261    0.000015819
  38   H   :    0.000007790   -0.000032753    0.000017693
  39   H   :    0.000003773    0.000019588    0.000012253
  40   H   :    0.000022071   -0.000007867    0.000002657
  41   H   :    0.000019862    0.000019195    0.000012140

Difference to translation invariance:
           :   -0.0000000000    0.0000000000   -0.0000000000

Difference to rotation invariance:
           :    0.0000448991    0.0000289483   -0.0009317183

Norm of the Cartesian gradient     ...    0.0006339480
RMS gradient                       ...    0.0000571612
MAX gradient                       ...    0.0002715264

-------
TIMINGS
-------

Total SCF gradient time     ....       46.934 sec

Densities                   ....       0.007 sec  (  0.0%)
One electron gradient       ....       1.990 sec  (  4.2%)
RI-J Coulomb gradient       ....       9.359 sec  ( 19.9%)
XC gradient                 ....      21.868 sec  ( 46.6%)
CPCM gradient               ....       7.840 sec  ( 16.7%)
   A-Matrix (El+Nuc)        ....       0.265 sec  (  0.6%)
   Potential                ....       7.575 sec  ( 16.1%)
SMD gradient                ....       0.040 sec  (  0.1%)

Maximum memory used throughout the entire SCFGRAD-calculation: 84.7 MB

------------------------------------------------------------------------------
                              ORCA PROPERTY CALCULATIONS
------------------------------------------------------------------------------

GBWName                                 ... xtb_opt.gbw
Number of atoms                         ...     41
Number of basis functions               ...    539
Max core memory                         ...   1024 MB

Electric properties:
Dipole moment                           ... YES
Quadrupole moment                       ...  NO
Static polarizability (Dipole/Dipole)   ...  NO
Static polarizability (Dipole/Quad.)    ...  NO
Static polarizability (Quad./Quad.)     ...  NO
Static polarizability (Velocity)        ...  NO

Atomic electric properties:
Dipole moment                           ...  NO
Quadrupole moment                       ...  NO
Static polarizability                   ...  NO

Choice of electric origin               ... Center of mass
Position of electric origin             ...     0.012419     0.012195    -0.044449

General magnetic properties:
Magnetizability                         ...  NO

EPR properties:
g-Tensor (aka g-matrix)                 ...  NO
Zero-Field splitting spin-orbit         ...  NO
Zero-field splitting spin-spin          ...  NO
Hyperfine couplings                     ...  NO (   0 nuclei)
Quadrupole couplings                    ...  NO (   0 nuclei)
Contact density                         ...  NO (   0 nuclei)

NMR properties:
Chemical shifts                         ...  NO (   0 nuclei)
Spin-rotation constants                 ...  NO (   0 nuclei)
Spin-spin couplings                     ...  NO (   0 nuclei,    0 pairs)

Choice of magnetic origin               ... GIAO
Position of magnetic origin             ...     0.000000     0.000000     0.000000

Properties with geometric perturbations:
SCF Hessian                             ...  NO
IR spectrum                             ...  NO
VCD spectrum                            ...  NO
X-ray spectroscopy properties:
SCF XES/XAS/RIXS spectra                ...  NO


-------------
DIPOLE MOMENT
-------------

Method             : SCF
Type of density    : Electron Density
Multiplicity       :   1
Irrep              :   0
Energy             : -2932.5058901689949380 Eh
Relativity type    : 
Basis              : AO
                                X                 Y                 Z
Electronic contribution:    -10.036821170       6.752300086     -17.690652493
Nuclear contribution   :     11.200755978      -8.294269889      19.791403429
                        -----------------------------------------
Total Dipole Moment    :      1.163934808      -1.541969803       2.100750936
                        -----------------------------------------
Magnitude (a.u.)       :      2.854044430
Magnitude (Debye)      :      7.254404424



--------------------
Rotational spectrum 
--------------------
 
Rotational constants in cm-1:             0.012469             0.004430             0.004171 
Rotational constants in MHz :           373.797805           132.815275           125.056086 

Dipole components along the rotational axes: 
x,y,z [a.u.] :     1.366512    -1.933264    -1.593959 
x,y,z [Debye]:     3.473399    -4.913966    -4.051521 

 

Dipole moment calculation done in   0.0 sec 

Maximum memory used throughout the entire PROP-calculation: 51.9 MB

--------------------------------
SUGGESTED CITATIONS FOR THIS RUN
--------------------------------

Below you find a list of papers that are relevant to this ORCA run
We neither can nor want to force you to cite these papers, but we appreciate if you do
You receive ORCA, which is the product of decades of hard work by many enthusiastic individuals, for free
The only thing we kindly ask in return is that you cite our papers,
We deeply appreciate it, if you show your appreciation for ORCA by not just citing the generic ORCA reference.

Please note that relegating all ORCA citations to the supporting information does *not* help us.
SI sections are not indexed - citations you put there will not count into any citation statistics
But we need these citations in order to attract the funding resources that allow us to do what we are doing

Therefore, if you are a happy ORCA user, please consider citing a few of the papers listed below in the main body of your paper

In addition to the list printed below, the program has created the file xtb_opt.bibtex that contains the list in bibtex format
You can import this file easily into all common literature databanks and citation aid programs


List of essential papers. We consider these as the minimum necessary citations

  1. Neese,F.
     Software update: the ORCA program system, version 5.0
     WIRES Comput. Molec. Sci., 2022 12(1)e1606
     doi.org/10.1002/wcms.1606
  2. Grimme,S.; Hansen,A.; Ehlert,S.; Mewes,J.
     r2SCAN-3c: A 'Swiss army knife' composite electronic-structure method
     J. Chem. Phys., 2021 154 064103
     doi.org/10.1063/5.0040021

List of papers to cite with high priority. The work reported in these papers was absolutely
necessary for this run to complete.
Our perspective: the developers of density functionals and basis sets usually get cited in chemistry papers
Good! But without the algorithms to do something with them, the functionals or basis sets would not do anything.
Hence, in our opinion, the algorithm design and method developments papers are equally worthy of getting cited

  1. Neese,F.
     An improvement of the resolution of the identity approximation for the formation of the Coulomb matrix
     J. Comp. Chem., 2003 24(14)1740-1747
     doi.org/10.1002/jcc.10318
  2. Garcia-Rates,M.; Neese,F.
     Effect of the Solute Cavity on the Solvation Energy and its Derivatives within the Framework of the Gaussian Charge Scheme
     J. Comput. Chem., 2020 41 922-939
     doi.org/10.1002/jcc.26139
  3. Neese,F.
     The SHARK Integral Generation and Digestion System
     J. Comp. Chem., 2022  1-16
     doi.org/10.1002/jcc.26942
  4. Lehtola,S.; Steigemann,C.; Oliveira,M.; Marques,M.
     Recent developments in Libxc - A comprehensive library of functionals for density functional theory
     Software X, 2018 7 
     doi.org/10.1016/j.softx.2017.11.002
  5. Caldeweyher,E.; Bannwarth,C.; Grimme,S.
     Extension of the D3 dispersion coefficient model
     J. Chem. Phys., 2017 147 034112-XXXX
     doi.org/10.1063/1.4993215
  6. Caldeweyher,E.; Ehlert,S.; Hansen,A.; Neugebauer,H.; Spicher,S.; Bannwarth,C.; Grimme,S.
     A generally applicable atomic-charge dependent London dispersion correction
     J. Chem. Phys., 2019 150 154122-XXXX
     doi.org/10.1063/1.5090222
  7. Caldeweyher,E.; Mewes,J.; Ehlert,S.; Grimme,S.
     Extension and evaluation of the D4 London-dispersion model for periodic systems
     Phys. Chem. Chem. Phys., 2020 22(16)8499-8512
     doi.org/10.1039/D0CP00502A

List of suggested additional citations. These are papers that are important in the 'surrounding' of 
of this run, or papers that preceded the highly important papers. If you like your results we are grateful for a citation.

  1. Neese,F.
     The ORCA program system
     WIRES Comput. Molec. Sci., 2012 2(1)73-78
     doi.org/10.1002/wcms.81
  2. Neese,F.
     Software update: the ORCA program system, version 4.0
     WIRES Comput. Molec. Sci., 2018 8(1)1-6
     doi.org/10.1002/wcms.1327
  3. Neese,F.; Wennmohs,F.; Becker,U.; Riplinger,C.
     The ORCA quantum chemistry program package
     J. Chem. Phys., 2020 152 Art. No. L224108
     doi.org/10.1063/5.0004608

List of optional additional citations

  1. Neese,F.
     Approximate second-order SCF convergence for spin unrestricted wavefunctions
     Chem. Phys. Lett., 2000 325(1-3)93-98
     doi.org/10.1016/s0009-2614(00)00662-x

Timings for individual modules:

Sum of individual times          ...       80.024 sec (=   1.334 min)
Startup calculation              ...        3.244 sec (=   0.054 min)   4.1 %
SCF iterations                   ...       29.511 sec (=   0.492 min)  36.9 %
Property calculations            ...        0.172 sec (=   0.003 min)   0.2 %
SCF Gradient evaluation          ...       47.096 sec (=   0.785 min)  58.9 %
                             ****ORCA TERMINATED NORMALLY****
TOTAL RUN TIME: 0 days 0 hours 1 minutes 20 seconds 984 msec
  ------------------------------------------------------------------------
          * successful ORCA run, taking over control again...

         :::::::::::::::::::::::::::::::::::::::::::::::::::::
         ::                  ORCA SUMMARY                   ::
         :::::::::::::::::::::::::::::::::::::::::::::::::::::
         :: total energy           -2932.481370046639 Eh    ::
         :: gradient norm              0.000633947984 Eh/a0 ::
         :: HOMO-LUMO gap              0.000000000000 eV    ::
         :::::::::::::::::::::::::::::::::::::::::::::::::::::

           -------------------------------------------------
          |                Property Printout                |
           -------------------------------------------------
           -------------------------------------------------
          |                Geometry Summary                 |
           -------------------------------------------------

      molecular mass/u    :      384.4756129
   center of mass at/Å    :        0.0065634       0.0064748      -0.0235793
  moments of inertia/u·Å² :        0.1352060E+04   0.3805205E+04   0.4041309E+04
rotational constants/cm⁻¹ :        0.1246811E-01   0.4430151E-02   0.4171330E-02

 * 34 selected distances

     #   Z          #   Z                                           value/Å
     1   6 C        2   6 C                                       1.5083766
     3   8 O        4  15 P                                       1.6046899
     4  15 P        5  16 S                                       1.9474505
     4  15 P        6   8 O                                       1.6114866
     7   6 C        8   6 C                                       1.5063368
     4  15 P        9  16 S                                       2.1205312
    11  16 S       12  15 P                                       2.1418194 (max)
    12  15 P       13  16 S                                       1.9461406
    12  15 P       14   8 O                                       1.6068316
    15   6 C       16   6 C                                       1.5083215
    12  15 P       17   8 O                                       1.6031735
    18   6 C       19   6 C                                       1.5080776
     1   6 C       20   1 H                                       1.0941113
     1   6 C       21   1 H                                       1.0937424
     1   6 C       22   1 H                                       1.0949697
     2   6 C       23   1 H                                       1.0918119
     2   6 C       24   1 H                                       1.0942455
     7   6 C       25   1 H                                       1.0940963
     7   6 C       26   1 H                                       1.0951241
     8   6 C       27   1 H                                       1.0941476
     8   6 C       28   1 H                                       1.0934879
     8   6 C       29   1 H                                       1.0937036
    10   6 C       30   1 H                                       1.0941770
    10   6 C       31   1 H                                       1.0934927
    15   6 C       32   1 H                                       1.0923907
    15   6 C       33   1 H                                       1.0943314
    16   6 C       34   1 H                                       1.0925865
    16   6 C       35   1 H                                       1.0939674
    16   6 C       36   1 H                                       1.0952222
    18   6 C       37   1 H                                       1.0922743
    18   6 C       38   1 H                                       1.0915756 (min)
    19   6 C       39   1 H                                       1.0944069
    19   6 C       40   1 H                                       1.0951086
    19   6 C       41   1 H                                       1.0937141

 * 4 distinct bonds (by element types)

   Z      Z             #   av. dist./Å        max./Å        min./Å
   1 H    6 C          22     1.0937585     1.0952222     1.0915756
   6 C    6 C           4     1.5077781     1.5083766     1.5063368
   8 O   15 P           4     1.6065454     1.6114866     1.6031735
  15 P   16 S           4     2.0389854     2.1418194     1.9461406


optimized geometry written to: xtbopt.coord


           -------------------------------------------------
          | TOTAL ENERGY            -2932.481370046639 Eh   |
          | GRADIENT NORM               0.000633947984 Eh/α |
           -------------------------------------------------

------------------------------------------------------------------------
 * finished run on 2025/04/10 at 14:56:18.120     
------------------------------------------------------------------------
 total:
 * wall-time:     0 d,  0 h,  4 min, 22.398 sec
 *  cpu-time:     0 d,  0 h,  0 min,  3.162 sec
 * ratio c/w:     0.012 speedup
 SCF:
 * wall-time:     0 d,  0 h,  1 min, 21.277 sec
 *  cpu-time:     0 d,  0 h,  0 min,  1.314 sec
 * ratio c/w:     0.016 speedup
 ANC optimizer:
 * wall-time:     0 d,  0 h,  3 min,  1.027 sec
 *  cpu-time:     0 d,  0 h,  0 min,  1.627 sec
 * ratio c/w:     0.009 speedup

