      -----------------------------------------------------------      
     |                   =====================                   |     
     |                           x T B                           |     
     |                   =====================                   |     
     |                         S. Grimme                         |     
     |          Mulliken Center for Theoretical Chemistry        |     
     |                    University of Bonn                     |     
      -----------------------------------------------------------      

   * xtb version 6.7.1 (edcfbbe) compiled by 'albert@albert-system' on 2024-07-22

   xtb is free software: you can redistribute it and/or modify it under
   the terms of the GNU Lesser General Public License as published by
   the Free Software Foundation, either version 3 of the License, or
   (at your option) any later version.
   
   xtb is distributed in the hope that it will be useful,
   but WITHOUT ANY WARRANTY; without even the implied warranty of
   MERCHANTABILITY or FITNESS FOR A PARTICULAR PURPOSE.  See the
   GNU Lesser General Public License for more details.
   
   Cite this work as:
   * C. Bannwarth, E. Caldeweyher, S. Ehlert, A. Hansen, P. Pracht,
     J. Seibert, S. Spicher, S. Grimme, WIREs Comput. Mol. Sci., 2020, 11,
     e01493. DOI: 10.1002/wcms.1493
   
   for GFN2-xTB:
   * C. Bannwarth, S. Ehlert and S. Grimme., J. Chem. Theory Comput., 2019,
     15, 1652-1671. DOI: 10.1021/acs.jctc.8b01176
   for GFN1-xTB:
   * S. Grimme, C. Bannwarth, P. Shushkov, J. Chem. Theory Comput., 2017,
     13, 1989-2009. DOI: 10.1021/acs.jctc.7b00118
   for GFN0-xTB:
   * P. Pracht, E. Caldeweyher, S. Ehlert, S. Grimme, ChemRxiv, 2019, preprint.
     DOI: 10.26434/chemrxiv.8326202.v1
   for GFN-FF:
   * S. Spicher and S. Grimme, Angew. Chem. Int. Ed., 2020, 59, 15665-15673.
     DOI: 10.1002/anie.202004239
   
   for ALPB and GBSA implicit solvation:
   * S. Ehlert, M. Stahn, S. Spicher, S. Grimme, J. Chem. Theory Comput.,
     2021, 17, 4250-4261. DOI: 10.1021/acs.jctc.1c00471
   
   for ddCOSMO and CPCM-X implicit solvation:
   * M. Stahn, S. Ehlert, S. Grimme, J. Phys. Chem. A,
     2023, XX, XXXX-XXXX. DOI: 10.1021/acs.jpca.3c04382
   
   for DFT-D4:
   * E. Caldeweyher, C. Bannwarth and S. Grimme, J. Chem. Phys., 2017,
     147, 034112. DOI: 10.1063/1.4993215
   * E. Caldeweyher, S. Ehlert, A. Hansen, H. Neugebauer, S. Spicher,
     C. Bannwarth and S. Grimme, J. Chem. Phys., 2019, 150, 154122.
     DOI: 10.1063/1.5090222
   * E. Caldeweyher, J.-M. Mewes, S. Ehlert and S. Grimme, Phys. Chem. Chem. Phys.
     2020, 22, 8499-8512. DOI: 10.1039/D0CP00502A
   
   for sTDA-xTB:
   * S. Grimme and C. Bannwarth, J. Chem. Phys., 2016, 145, 054103.
     DOI: 10.1063/1.4959605
   
   in the mass-spec context:
   * V. Asgeirsson, C. Bauer and S. Grimme, Chem. Sci., 2017, 8, 4879.
     DOI: 10.1039/c7sc00601b
   * J. Koopman and S. Grimme, ACS Omega 2019, 4, 12, 15120-15133.
     DOI: 10.1021/acsomega.9b02011
   
   for metadynamics refer to:
   * S. Grimme, J. Chem. Theory Comput., 2019, 155, 2847-2862
     DOI: 10.1021/acs.jctc.9b00143
   
   for SPH calculations refer to:
   * S. Spicher and S. Grimme, J. Chem. Theory Comput., 2021, 17, 1701-1714
     DOI: 10.1021/acs.jctc.0c01306
   
   for ONIOM refer to:
   * C. Plett, A. Katbashev, S. Ehlert, S. Grimme, M. Bursch,
     Phys. Chem. Chem. Phys., 2023, 25, 17860-17868. DOI: 10.1039/D3CP02178E
   
   for DIPRO refer to:
   * J. Kohn, N. Gildemeister, S. Grimme, D. Fazzi, A. Hansen,
     J. Chem. Phys., 2023, just accepted.
   
   for PTB refer to:
   * S. Grimme, M. Mueller, A. Hansen, J. Chem. Phys., 2023, 158, 124111.
     DOI: 10.1063/5.0137838
   
   with help from (in alphabetical order)
   P. Atkinson, C. Bannwarth, F. Bohle, G. Brandenburg, E. Caldeweyher
   M. Checinski, S. Dohm, S. Ehlert, S. Ehrlich, I. Gerasimov, C. Hölzer
   A. Katbashev, J. Kohn, J. Koopman, C. Lavigne, S. Lehtola, F. März, M. Müller,
   F. Musil, H. Neugebauer, J. Pisarek, C. Plett, P. Pracht, F. Pultar,
   J. Seibert, P. Shushkov, S. Spicher, M. Stahn, M. Steiner, T. Strunk,
   J. Stückrath, T. Rose, and J. Unsleber
   
 * started run on 2025/04/09 at 13:58:06.731     
   ID    Z sym.   atoms
    1    6 C      1, 2, 7, 8, 10, 15, 16, 18, 19
    2    8 O      3, 6, 14, 17
    3   15 P      4, 12
    4   16 S      5, 9, 11, 13
    5    1 H      20-41

           -------------------------------------------------
          |                Calculation Setup                |
           -------------------------------------------------

          program call               : /srv/scratch/z5358697/.xtb/bin/xtb xtb_rrho.coord --gfn2 --bhess vtight --chrg 0 --enso --norestart -I rrho-xcontrol-inp --parallel 1 --alpb water
          hostname                   : k163
          coordinate file            : xtb_rrho.coord
          omp threads                :                     1


           -------------------------------------------------
          |                 G F N 2 - x T B                 |
           -------------------------------------------------

        Reference                      10.1021/acs.jctc.8b01176
      * Hamiltonian:
        H0-scaling (s, p, d)           1.850000    2.230000    2.230000
        zeta-weighting                 0.500000
      * Dispersion:
        s8                             2.700000
        a1                             0.520000
        a2                             5.000000
        s9                             5.000000
      * Repulsion:
        kExp                           1.500000    1.000000
        rExp                           1.000000
      * Coulomb:
        alpha                          2.000000
        third order                    shell-resolved
        anisotropic                    true
        a3                             3.000000
        a5                             4.000000
        cn-shift                       1.200000
        cn-exp                         4.000000
        max-rad                        5.000000

      * Solvation model:               ALPB
        Solvent                        water
        Parameter file                 internal GFN2-xTB/ALPB
        Dielectric constant                8.0200E+01
        Reference state                gsolv [1 M gas/solution]
        Free energy shift                  1.0808E-03 Eh       6.7819E-01 kcal/mol
        Temperature                        2.9815E+02 K
        Density                            1.0000E+00 kg/L
        Solvent mass                       1.8000E+01 g/mol
        Interaction kernel             P16
        Born radius scaling (c1)           1.4744E+00
        Born radii integrator          GBOBC
        Born offset                        0.0000E+00 a0       0.0000E+00 AA
        H-bond correction              true
        Ion screening                  false
        Surface tension                    1.0000E-05 Eh       1.5569E+01 dyn/cm
        Grid points                               974 per atom

          ...................................................
          :                      SETUP                      :
          :.................................................:
          :  # basis functions                 134          :
          :  # atomic orbitals                 128          :
          :  # shells                           66          :
          :  # electrons                       116          :
          :  max. iterations                   250          :
          :  Hamiltonian                  GFN2-xTB          :
          :  restarted?                      false          :
          :  GBSA solvation                   true          :
          :  PC potential                    false          :
          :  electronic temp.          300.0000000     K    :
          :  accuracy                    1.0000000          :
          :  -> integral cutoff          0.2500000E+02      :
          :  -> integral neglect         0.1000000E-07      :
          :  -> SCF convergence          0.1000000E-05 Eh   :
          :  -> wf. convergence          0.1000000E-03 e    :
          :  Broyden damping             0.4000000          :
          :  net charge                          0          :
          :  unpaired electrons                  0          :
          ...................................................

 iter      E             dE          RMSdq      gap      omega  full diag
   1    -65.4108460 -0.654108E+02  0.657E+00    4.39       0.0  T
   2    -65.5325761 -0.121730E+00  0.368E+00    3.70       1.0  T
   3    -65.5514074 -0.188314E-01  0.104E+00    3.21       1.0  T
   4    -65.5546898 -0.328235E-02  0.479E-01    3.12       1.0  T
   5    -65.5553990 -0.709198E-03  0.251E-01    3.19       1.0  T
   6    -65.5556020 -0.203045E-03  0.114E-01    3.19       1.0  T
   7    -65.5556468 -0.447804E-04  0.415E-02    3.22       1.0  T
   8    -65.5556506 -0.379007E-05  0.170E-02    3.22       1.0  T
   9    -65.5556513 -0.724501E-06  0.500E-03    3.22       3.1  T
  10    -65.5556513 -0.755318E-08  0.254E-03    3.22       6.2  T
  11    -65.5556514 -0.387960E-07  0.688E-04    3.22      22.7  T
  12    -65.5556514 -0.981345E-09  0.285E-04    3.22      54.8  T

   *** convergence criteria satisfied after 12 iterations ***

         #    Occupation            Energy/Eh            Energy/eV
      -------------------------------------------------------------
         1        2.0000           -0.7605827             -20.6965
       ...           ...                  ...                  ...
        52        2.0000           -0.4457956             -12.1307
        53        2.0000           -0.4186034             -11.3908
        54        2.0000           -0.4149951             -11.2926
        55        2.0000           -0.3967822             -10.7970
        56        2.0000           -0.3953694             -10.7585
        57        2.0000           -0.3914583             -10.6521
        58        2.0000           -0.3898361             -10.6080 (HOMO)
        59                         -0.2716166              -7.3911 (LUMO)
        60                         -0.2445618              -6.6549
        61                         -0.2309371              -6.2841
        62                         -0.2000631              -5.4440
        63                         -0.1822406              -4.9590
       ...                                ...                  ...
       128                          1.2502219              34.0203
      -------------------------------------------------------------
                  HL-Gap            0.1182195 Eh            3.2169 eV
             Fermi-level           -0.3307263 Eh           -8.9995 eV

 SCC (total)                   0 d,  0 h,  0 min,  0.061 sec
 SCC setup                      ...        0 min,  0.002 sec (  3.848%)
 Dispersion                     ...        0 min,  0.000 sec (  0.476%)
 classical contributions        ...        0 min,  0.000 sec (  0.088%)
 integral evaluation            ...        0 min,  0.012 sec ( 19.479%)
 iterations                     ...        0 min,  0.025 sec ( 40.471%)
 molecular gradient             ...        0 min,  0.021 sec ( 35.170%)
 printout                       ...        0 min,  0.000 sec (  0.447%)

         :::::::::::::::::::::::::::::::::::::::::::::::::::::
         ::                     SUMMARY                     ::
         :::::::::::::::::::::::::::::::::::::::::::::::::::::
         :: total energy             -65.016362733737 Eh    ::
         :: total w/o Gsasa/hb       -65.018333629549 Eh    ::
         :: gradient norm              0.053209957230 Eh/a0 ::
         :: HOMO-LUMO gap              3.216916294991 eV    ::
         ::.................................................::
         :: SCC energy               -65.554743887235 Eh    ::
         :: -> isotropic ES            0.124862219551 Eh    ::
         :: -> anisotropic ES         -0.013232267465 Eh    ::
         :: -> anisotropic XC          0.031499652183 Eh    ::
         :: -> dispersion             -0.049698023119 Eh    ::
         :: -> Gsolv                  -0.020355987798 Eh    ::
         ::    -> Gelec               -0.022326883610 Eh    ::
         ::    -> Gsasa                0.005008159006 Eh    ::
         ::    -> Ghb                 -0.004118022892 Eh    ::
         ::    -> Gshift               0.001080759698 Eh    ::
         :: repulsion energy           0.538381153498 Eh    ::
         :: add. restraining           0.000000000000 Eh    ::
         :: total charge              -0.000000000000 e     ::
         :::::::::::::::::::::::::::::::::::::::::::::::::::::

metadynamics with 1 initial structures loaded
           -------------------------------------------------
          |           Optimal kpush determination           |
           -------------------------------------------------
      ----------------------------------------------------------- 
     |                   =====================                   |
     |                        A N C O P T                        |
     |                   =====================                   |
     |               Approximate Normal Coordinate               |
     |                Rational Function Optimizer                |
      ----------------------------------------------------------- 
target rmsd / Å         0.100000
unbiased initial rmsd   0.196532
 
iter. min.        max.        rmsd       kpush
      ----------------------------------------------------------- 
     |                   =====================                   |
     |                        A N C O P T                        |
     |                   =====================                   |
     |               Approximate Normal Coordinate               |
     |                Rational Function Optimizer                |
      ----------------------------------------------------------- 
 1    0.000000    1.863636    0.015844   -0.931818
      ----------------------------------------------------------- 
     |                   =====================                   |
     |                        A N C O P T                        |
     |                   =====================                   |
     |               Approximate Normal Coordinate               |
     |                Rational Function Optimizer                |
      ----------------------------------------------------------- 
 2    0.000000    0.931818    0.022179   -0.465909
      ----------------------------------------------------------- 
     |                   =====================                   |
     |                        A N C O P T                        |
     |                   =====================                   |
     |               Approximate Normal Coordinate               |
     |                Rational Function Optimizer                |
      ----------------------------------------------------------- 
 3    0.000000    0.465909    0.031960   -0.232955
      ----------------------------------------------------------- 
     |                   =====================                   |
     |                        A N C O P T                        |
     |                   =====================                   |
     |               Approximate Normal Coordinate               |
     |                Rational Function Optimizer                |
      ----------------------------------------------------------- 
 4    0.000000    0.232955    0.046832   -0.116477
      ----------------------------------------------------------- 
     |                   =====================                   |
     |                        A N C O P T                        |
     |                   =====================                   |
     |               Approximate Normal Coordinate               |
     |                Rational Function Optimizer                |
      ----------------------------------------------------------- 
 5    0.000000    0.116477    0.067717   -0.058239
      ----------------------------------------------------------- 
     |                   =====================                   |
     |                        A N C O P T                        |
     |                   =====================                   |
     |               Approximate Normal Coordinate               |
     |                Rational Function Optimizer                |
      ----------------------------------------------------------- 
 6    0.000000    0.058239    0.093343   -0.029119
      ----------------------------------------------------------- 
     |                   =====================                   |
     |                        A N C O P T                        |
     |                   =====================                   |
     |               Approximate Normal Coordinate               |
     |                Rational Function Optimizer                |
      ----------------------------------------------------------- 
 7    0.000000    0.029119    0.118714   -0.014560
      ----------------------------------------------------------- 
     |                   =====================                   |
     |                        A N C O P T                        |
     |                   =====================                   |
     |               Approximate Normal Coordinate               |
     |                Rational Function Optimizer                |
      ----------------------------------------------------------- 
 8    0.014560    0.029119    0.104210   -0.021839
      ----------------------------------------------------------- 
     |                   =====================                   |
     |                        A N C O P T                        |
     |                   =====================                   |
     |               Approximate Normal Coordinate               |
     |                Rational Function Optimizer                |
      ----------------------------------------------------------- 
 9    0.021839    0.029119    0.098490   -0.025479
      ----------------------------------------------------------- 
     |                   =====================                   |
     |                        A N C O P T                        |
     |                   =====================                   |
     |               Approximate Normal Coordinate               |
     |                Rational Function Optimizer                |
      ----------------------------------------------------------- 
10    0.021839    0.025479    0.101260   -0.023659
final kpush: -0.023659
           -------------------------------------------------
          |            Biased Numerical Hessian             |
           -------------------------------------------------
kpush                :  -0.02366
alpha                :   1.00000
step length          :   0.00500
SCC accuracy         :   0.30000
Hessian scale factor :   1.00000
frozen atoms in %    :   0.00000    0
RMS gradient         :   0.00005
estimated CPU  time      0.18 min
estimated wall time      0.18 min

writing file <hessian>.

 projected vibrational frequencies (cm⁻¹)
eigval :       -0.00    -0.00    -0.00    -0.00     0.00     0.00
eigval :       47.52    49.28    54.98    61.80    63.03    58.44
eigval :       63.94    69.29    81.36    81.30    86.40    92.19
eigval :       98.62   120.68   104.96   111.71   128.85   153.56
eigval :      161.41   184.41   201.69   217.02   237.69   241.10
eigval :      220.61   229.26   255.09   253.63   275.50   291.46
eigval :      320.71   325.29   339.17   368.61   401.53   421.21
eigval :      455.45   480.46   492.91   615.05   629.47   660.52
eigval :      681.98   727.81   764.36   766.33   784.12   793.88
eigval :      820.69   822.18   826.13   826.27   902.97   919.25
eigval :      930.37   945.68  1034.59  1038.09  1049.01  1058.25
eigval :     1074.72  1094.05  1097.94  1098.90  1100.71  1129.59
eigval :     1130.24  1132.32  1135.12  1158.18  1236.29  1236.62
eigval :     1237.46  1239.28  1308.53  1310.58  1314.37  1315.78
eigval :     1344.10  1391.17  1392.02  1393.17  1397.60  1433.48
eigval :     1438.25  1447.20  1455.69  1456.60  1457.99  1461.08
eigval :     1466.17  1475.97  1476.77  1478.87  1485.16  2915.95
eigval :     2921.04  2922.68  2925.78  2945.56  2956.06  2956.52
eigval :     2981.95  2985.27  3009.53  3022.86  3029.12  3039.66
eigval :     3044.23  3046.94  3052.10  3054.13  3054.32  3055.23
eigval :     3059.85  3061.28  3061.21
           -------------------------------------------------
          |                Property Printout                |
           -------------------------------------------------

    * Orbital Energies and Occupations

         #    Occupation            Energy/Eh            Energy/eV
      -------------------------------------------------------------
         1        2.0000           -0.7662507             -20.8507
       ...           ...                  ...                  ...
        46        2.0000           -0.4682690             -12.7422
        47        2.0000           -0.4645883             -12.6421
        48        2.0000           -0.4588694             -12.4865
        49        2.0000           -0.4526750             -12.3179
        50        2.0000           -0.4511164             -12.2755
        51        2.0000           -0.4494686             -12.2307
        52        2.0000           -0.4454932             -12.1225
        53        2.0000           -0.4194415             -11.4136
        54        2.0000           -0.4131603             -11.2427
        55        2.0000           -0.3955109             -10.7624
        56        2.0000           -0.3928125             -10.6890
        57        2.0000           -0.3917061             -10.6589
        58        2.0000           -0.3894557             -10.5976 (HOMO)
        59                         -0.2713468              -7.3837 (LUMO)
        60                         -0.2466825              -6.7126
        61                         -0.2324729              -6.3259
        62                         -0.1968489              -5.3565
        63                         -0.1754883              -4.7753
        64                         -0.1686346              -4.5888
        65                         -0.1628153              -4.4304
        66                         -0.1569763              -4.2715
        67                         -0.1366486              -3.7184
        68                         -0.1268534              -3.4519
        69                         -0.0493449              -1.3427
       ...                                ...                  ...
       128                          1.2742525              34.6742
      -------------------------------------------------------------
                  HL-Gap            0.1181089 Eh            3.2139 eV
             Fermi-level           -0.3304012 Eh           -8.9907 eV

     #   Z          covCN         q      C6AA      α(0)
     1   6 C        3.751    -0.128    23.015     6.842
     2   6 C        3.880     0.076    19.262     6.240
     3   8 O        1.655    -0.271    18.516     5.809
     4  15 P        3.875     0.387   144.195    21.571
     5  16 S        0.926    -0.469   159.889    21.387
     6   8 O        1.655    -0.256    18.265     5.769
     7   6 C        3.868     0.075    19.292     6.246
     8   6 C        3.751    -0.119    22.834     6.815
     9  16 S        1.993    -0.143   147.052    20.410
    10   6 C        3.811     0.032    20.023     6.369
    11  16 S        1.992    -0.110   145.645    20.312
    12  15 P        3.851     0.373   144.721    21.610
    13  16 S        0.926    -0.478   160.338    21.417
    14   8 O        1.655    -0.255    18.243     5.766
    15   6 C        3.851     0.083    19.168     6.227
    16   6 C        3.751    -0.128    23.027     6.843
    17   8 O        1.655    -0.262    18.356     5.784
    18   6 C        3.862     0.082    19.188     6.229
    19   6 C        3.751    -0.134    23.146     6.861
    20   1 H        0.925     0.084     1.938     2.177
    21   1 H        0.925     0.055     2.258     2.350
    22   1 H        0.925     0.073     2.058     2.243
    23   1 H        0.924     0.090     1.875     2.141
    24   1 H        0.924     0.063     2.159     2.298
    25   1 H        0.924     0.094     1.841     2.122
    26   1 H        0.924     0.065     2.140     2.288
    27   1 H        0.925     0.081     1.969     2.195
    28   1 H        0.924     0.050     2.322     2.383
    29   1 H        0.925     0.062     2.176     2.307
    30   1 H        0.925     0.113     1.673     2.022
    31   1 H        0.925     0.104     1.749     2.068
    32   1 H        0.924     0.058     2.225     2.333
    33   1 H        0.924     0.075     2.029     2.227
    34   1 H        0.925     0.085     1.927     2.171
    35   1 H        0.925     0.075     2.035     2.231
    36   1 H        0.925     0.060     2.203     2.321
    37   1 H        0.924     0.060     2.194     2.316
    38   1 H        0.924     0.066     2.128     2.281
    39   1 H        0.925     0.076     2.016     2.221
    40   1 H        0.925     0.070     2.085     2.258
    41   1 H        0.925     0.085     1.932     2.174

 Mol. C6AA /au·bohr⁶  :      26411.616532
 Mol. C8AA /au·bohr⁸  :     862590.817556
 Mol. α(0) /au        :        257.633510


Wiberg/Mayer (AO) data.
largest (>0.10) Wiberg bond orders for each atom

 ---------------------------------------------------------------------------
     #   Z sym  total        # sym  WBO       # sym  WBO       # sym  WBO
 ---------------------------------------------------------------------------
     1   6 C    3.987 --     2 C    1.023    22 H    0.982    21 H    0.977
                            20 H    0.975
     2   6 C    3.888 --     1 C    1.023    24 H    0.967    23 H    0.965
                             3 O    0.876
     3   8 O    2.379 --     4 P    1.306     2 C    0.876
     4  15 P    5.288 --     5 S    1.543     3 O    1.306     6 O    1.304
                             9 S    0.987
     5  16 S    1.832 --     4 P    1.543
     6   8 O    2.408 --     4 P    1.304     7 C    0.891
     7   6 C    3.892 --     8 C    1.022    26 H    0.967    25 H    0.963
                             6 O    0.891
     8   6 C    3.989 --     7 C    1.022    29 H    0.979    27 H    0.977
                            28 H    0.975
     9  16 S    2.263 --     4 P    0.987    10 C    0.980
    10   6 C    3.950 --    11 S    0.988     9 S    0.980    30 H    0.956
                            31 H    0.951
    11  16 S    2.307 --    12 P    1.004    10 C    0.988    13 S    0.134
    12  15 P    5.290 --    13 S    1.505    14 O    1.333    17 O    1.323
                            11 S    1.004
    13  16 S    1.839 --    12 P    1.505    11 S    0.134
    14   8 O    2.401 --    12 P    1.333    15 C    0.872
    15   6 C    3.889 --    16 C    1.021    33 H    0.970    32 H    0.964
                            14 O    0.872
    16   6 C    3.983 --    15 C    1.021    36 H    0.984    35 H    0.982
                            34 H    0.974
    17   8 O    2.402 --    12 P    1.323    18 C    0.883
    18   6 C    3.890 --    19 C    1.018    38 H    0.971    37 H    0.967
                            17 O    0.883
    19   6 C    3.982 --    18 C    1.018    40 H    0.984    39 H    0.982
                            41 H    0.975
    20   1 H    0.992 --     1 C    0.975
    21   1 H    0.997 --     1 C    0.977
    22   1 H    0.995 --     1 C    0.982
    23   1 H    0.991 --     2 C    0.965
    24   1 H    0.996 --     2 C    0.967
    25   1 H    0.991 --     7 C    0.963
    26   1 H    0.996 --     7 C    0.967
    27   1 H    0.993 --     8 C    0.977
    28   1 H    0.997 --     8 C    0.975
    29   1 H    0.996 --     8 C    0.979
    30   1 H    0.987 --    10 C    0.956
    31   1 H    0.987 --    10 C    0.951
    32   1 H    0.997 --    15 C    0.964
    33   1 H    0.994 --    15 C    0.970
    34   1 H    0.991 --    16 C    0.974
    35   1 H    0.994 --    16 C    0.982
    36   1 H    0.996 --    16 C    0.984
    37   1 H    0.996 --    18 C    0.967
    38   1 H    0.996 --    18 C    0.971
    39   1 H    0.994 --    19 C    0.982
    40   1 H    0.995 --    19 C    0.984
    41   1 H    0.991 --    19 C    0.975
 ---------------------------------------------------------------------------

Topologies differ in total number of bonds
Writing topology from bond orders to xtbtopo.mol

molecular dipole:
                 x           y           z       tot (Debye)
 q only:       -0.466      -2.507       1.351
   full:       -0.539      -2.628       1.155       7.425
molecular quadrupole (traceless):
                xx          xy          yy          xz          yz          zz
 q only:        7.341     -10.890      -3.470     -21.524       7.567      -3.871
  q+dip:        5.860     -13.671      -5.375     -25.066       6.269      -0.485
   full:        7.258     -13.770      -5.381     -25.389       6.767      -1.876

           -------------------------------------------------
          |                Geometry Summary                 |
           -------------------------------------------------

      molecular mass/u    :      384.4756129
   center of mass at/Å    :       -0.0005628       0.0128222      -0.0335799
  moments of inertia/u·Å² :        0.1243290E+04   0.3929668E+04   0.4171632E+04
rotational constants/cm⁻¹ :        0.1355889E-01   0.4289836E-02   0.4041016E-02

 * 38 selected distances

     #   Z          #   Z                                           value/Å
     1   6 C        2   6 C                                       1.5150820
     2   6 C        3   8 O                                       1.4456514
     3   8 O        4  15 P                                       1.5895900
     4  15 P        5  16 S                                       1.9574382
     4  15 P        6   8 O                                       1.5956709
     6   8 O        7   6 C                                       1.4354462
     7   6 C        8   6 C                                       1.5147189
     4  15 P        9  16 S                                       2.1142773 (max)
    11  16 S       12  15 P                                       2.1066488
    12  15 P       13  16 S                                       1.9660275
    12  15 P       14   8 O                                       1.5791974
    14   8 O       15   6 C                                       1.4459797
    15   6 C       16   6 C                                       1.5149636
    12  15 P       17   8 O                                       1.5909807
    17   8 O       18   6 C                                       1.4430372
    18   6 C       19   6 C                                       1.5158910
     1   6 C       20   1 H                                       1.0859323
     1   6 C       21   1 H                                       1.0888356
     1   6 C       22   1 H                                       1.0867763
     2   6 C       23   1 H                                       1.0907244
     2   6 C       24   1 H                                       1.0948003
     7   6 C       25   1 H                                       1.0905466
     7   6 C       26   1 H                                       1.0952267
     8   6 C       27   1 H                                       1.0853249
     8   6 C       28   1 H                                       1.0902755
     8   6 C       29   1 H                                       1.0874201
    10   6 C       30   1 H                                       1.0856832
    10   6 C       31   1 H                                       1.0906570
    15   6 C       32   1 H                                       1.0953273
    15   6 C       33   1 H                                       1.0921860
    16   6 C       34   1 H                                       1.0852233 (min)
    16   6 C       35   1 H                                       1.0862104
    16   6 C       36   1 H                                       1.0876279
    18   6 C       37   1 H                                       1.0950550
    18   6 C       38   1 H                                       1.0931411
    19   6 C       39   1 H                                       1.0861307
    19   6 C       40   1 H                                       1.0862862
    19   6 C       41   1 H                                       1.0852654

 * 5 distinct bonds (by element types)

   Z      Z             #   av. dist./Å        max./Å        min./Å
   1 H    6 C          22     1.0893026     1.0953273     1.0852233
   6 C    6 C           4     1.5151639     1.5158910     1.5147189
   6 C    8 O           4     1.4425286     1.4459797     1.4354462
   8 O   15 P           4     1.5888597     1.5956709     1.5791974
  15 P   16 S           4     2.0360979     2.1142773     1.9574382

           -------------------------------------------------
          |               Frequency Printout                |
           -------------------------------------------------
 projected vibrational frequencies (cm⁻¹)
eigval :       -0.00    -0.00    -0.00    -0.00     0.00     0.00
eigval :       47.52    49.28    54.98    61.80    63.03    58.44
eigval :       63.94    69.29    81.36    81.30    86.40    92.19
eigval :       98.62   120.68   104.96   111.71   128.85   153.56
eigval :      161.41   184.41   201.69   217.02   237.69   241.10
eigval :      220.61   229.26   255.09   253.63   275.50   291.46
eigval :      320.71   325.29   339.17   368.61   401.53   421.21
eigval :      455.45   480.46   492.91   615.05   629.47   660.52
eigval :      681.98   727.81   764.36   766.33   784.12   793.88
eigval :      820.69   822.18   826.13   826.27   902.97   919.25
eigval :      930.37   945.68  1034.59  1038.09  1049.01  1058.25
eigval :     1074.72  1094.05  1097.94  1098.90  1100.71  1129.59
eigval :     1130.24  1132.32  1135.12  1158.18  1236.29  1236.62
eigval :     1237.46  1239.28  1308.53  1310.58  1314.37  1315.78
eigval :     1344.10  1391.17  1392.02  1393.17  1397.60  1433.48
eigval :     1438.25  1447.20  1455.69  1456.60  1457.99  1461.08
eigval :     1466.17  1475.97  1476.77  1478.87  1485.16  2915.95
eigval :     2921.04  2922.68  2925.78  2945.56  2956.06  2956.52
eigval :     2981.95  2985.27  3009.53  3022.86  3029.12  3039.66
eigval :     3044.23  3046.94  3052.10  3054.13  3054.32  3055.23
eigval :     3059.85  3061.28  3061.21
 reduced masses (amu)
   1: 18.50   2: 19.59   3: 15.21   4: 22.04   5: 22.27   6: 20.92   7: 26.58   8: 20.91
   9: 20.23  10: 22.68  11: 19.97  12: 14.53  13: 16.24  14: 13.36  15: 14.59  16: 13.39
  17: 13.48  18: 11.51  19: 14.12  20: 18.93  21: 12.86  22: 10.59  23: 13.59  24: 21.13
  25: 17.23  26: 16.63  27: 17.03  28: 10.90  29: 17.36  30: 11.96  31:  4.46  32:  5.21
  33:  9.40  34:  9.68  35: 15.92  36: 13.90  37: 18.06  38: 14.13  39: 18.42  40: 17.84
  41: 19.71  42: 19.63  43: 16.49  44: 25.70  45: 17.28  46: 25.09  47: 26.75  48: 17.96
  49: 16.92  50: 20.42  51: 18.40  52: 22.81  53: 19.89  54:  6.10  55:  2.83  56:  2.70
  57:  2.60  58:  2.21  59: 12.48  60: 13.84  61: 10.97  62: 12.60  63:  8.29  64:  8.37
  65:  9.53  66:  9.65  67:  1.56  68:  7.84  69:  7.78  70:  7.72  71:  7.76  72:  4.94
  73:  5.17  74:  4.87  75:  5.29  76:  2.23  77:  2.35  78:  2.33  79:  2.24  80:  2.36
  81:  3.02  82:  3.09  83:  3.15  84:  2.99  85:  1.76  86:  3.14  87:  3.11  88:  3.10
  89:  3.08  90:  1.95  91:  1.94  92:  1.91  93:  1.74  94:  1.66  95:  1.50  96:  1.51
  97:  1.49  98:  1.56  99:  1.55 100:  1.57 101:  1.55 102:  1.79 103:  1.84 104:  1.73
 105:  1.74 106:  1.62 107:  1.69 108:  1.70 109:  1.73 110:  1.73 111:  1.75 112:  1.77
 113:  1.83 114:  1.75 115:  1.67 116:  1.62 117:  1.91 118:  1.77 119:  1.61 120:  1.44
 121:  1.75 122:  1.82 123:  1.81
 IR intensities (km·mol⁻¹)
   1:  0.57   2:  0.33   3:  0.72   4:  0.02   5:  0.15   6:  0.55   7:  2.37   8:  1.76
   9:  0.63  10:  1.40  11:  5.06  12:  1.90  13:  4.60  14:  4.24  15:  4.77  16:  0.70
  17:  4.39  18:  1.86  19:  1.72  20:  3.04  21:  0.48  22:  5.75  23:  6.22  24:  9.61
  25:  4.67  26: 14.91  27: 33.27  28: 17.72  29:  7.33  30:  5.32  31:  1.63  32:  1.51
  33: 17.99  34:  4.53  35:  4.08  36:  6.18  37:  7.66  38:  4.63  39: 16.72  40: 20.61
  41: 23.28  42: 61.82  43: 60.12  44:173.77  45: 93.89  46:195.62  47: 71.04  48:  8.75
  49: 44.63  50:209.24  51: 67.36  52:443.53  53:280.08  54: 12.48  55:  4.81  56:  8.13
  57:  1.41  58:  3.44  59:282.40  60:432.53  61: 92.74  62:132.67  63:174.23  64:157.40
  65: 82.55  66:131.64  67:  2.96  68:  8.70  69: 15.42  70: 19.55  71: 15.34  72: 13.57
  73: 27.43  74: 13.80  75: 16.46  76: 54.39  77:  4.91  78:  0.67  79:  4.59  80:  1.90
  81:  6.51  82:  3.65  83:  4.44  84:  2.56  85: 12.51  86: 13.50  87: 12.33  88: 15.71
  89:  5.46  90:  7.13  91:  7.05  92:  2.47  93:  2.53  94:  5.04  95:  5.42  96:  6.79
  97:  6.17  98:  4.44  99:  2.33 100:  2.14 101:  6.12 102: 26.69 103: 27.38 104: 30.20
 105: 26.68 106: 25.84 107: 14.23 108: 29.22 109:  9.19 110:  2.57 111: 49.52 112: 45.72
 113:  8.80 114: 34.36 115: 16.43 116: 15.60 117: 27.18 118: 12.53 119: 14.61 120: 13.99
 121:  8.42 122: 15.50 123:  7.09
 Raman intensities (Ä⁴*amu⁻¹)
   1:  0.00   2:  0.00   3:  0.00   4:  0.00   5:  0.00   6:  0.00   7:  0.00   8:  0.00
   9:  0.00  10:  0.00  11:  0.00  12:  0.00  13:  0.00  14:  0.00  15:  0.00  16:  0.00
  17:  0.00  18:  0.00  19:  0.00  20:  0.00  21:  0.00  22:  0.00  23:  0.00  24:  0.00
  25:  0.00  26:  0.00  27:  0.00  28:  0.00  29:  0.00  30:  0.00  31:  0.00  32:  0.00
  33:  0.00  34:  0.00  35:  0.00  36:  0.00  37:  0.00  38:  0.00  39:  0.00  40:  0.00
  41:  0.00  42:  0.00  43:  0.00  44:  0.00  45:  0.00  46:  0.00  47:  0.00  48:  0.00
  49:  0.00  50:  0.00  51:  0.00  52:  0.00  53:  0.00  54:  0.00  55:  0.00  56:  0.00
  57:  0.00  58:  0.00  59:  0.00  60:  0.00  61:  0.00  62:  0.00  63:  0.00  64:  0.00
  65:  0.00  66:  0.00  67:  0.00  68:  0.00  69:  0.00  70:  0.00  71:  0.00  72:  0.00
  73:  0.00  74:  0.00  75:  0.00  76:  0.00  77:  0.00  78:  0.00  79:  0.00  80:  0.00
  81:  0.00  82:  0.00  83:  0.00  84:  0.00  85:  0.00  86:  0.00  87:  0.00  88:  0.00
  89:  0.00  90:  0.00  91:  0.00  92:  0.00  93:  0.00  94:  0.00  95:  0.00  96:  0.00
  97:  0.00  98:  0.00  99:  0.00 100:  0.00 101:  0.00 102:  0.00 103:  0.00 104:  0.00
 105:  0.00 106:  0.00 107:  0.00 108:  0.00 109:  0.00 110:  0.00 111:  0.00 112:  0.00
 113:  0.00 114:  0.00 115:  0.00 116:  0.00 117:  0.00 118:  0.00 119:  0.00 120:  0.00
 121:  0.00 122:  0.00 123:  0.00
 output can be read by thermo (or use thermo option).
 writing <g98.out> molden fake output.
 recommended (thermochemical) frequency scaling factor: 1.0
           -------------------------------------------------
          |             Thermodynamic Functions             |
           -------------------------------------------------

Molecule has no symmetry elements
It seems to be the C1 point group
c1  symmetry found (for desy threshold:  0.10E+00) used in thermo

          ...................................................
          :                      SETUP                      :
          :.................................................:
          :  # frequencies                         117      :
          :  # imaginary freq.                       0      :
          :  linear?                             false      :
          :  only rotor calc.                    false      :
          :  symmetry                               c1      :
          :  rotational number                       1      :
          :  scaling factor                  1.0000000      :
          :  rotor cutoff                    0.0000000 cm⁻¹ :
          :  imag. cutoff                 -100.0000000 cm⁻¹ :
          :.................................................:

    mode    ω/cm⁻¹     T·S(HO)/kcal·mol⁻¹    T·S(FR)/kcal·mol⁻¹   T·S(vib)
   ------------------------------------------------------------------------
       1     47.52    -1.46626 (100.00%)    -1.07156 (  0.00%)    -1.46626
       2     49.28    -1.44487 (100.00%)    -1.06082 (  0.00%)    -1.44487
       3     54.98    -1.38031 (100.00%)    -1.02838 (  0.00%)    -1.38031
       4     61.80    -1.31153 (100.00%)    -0.99376 (  0.00%)    -1.31153
       5     63.03    -1.29995 (100.00%)    -0.98793 (  0.00%)    -1.29995
       6     58.44    -1.34445 (100.00%)    -1.01033 (  0.00%)    -1.34445
       7     63.94    -1.29149 (100.00%)    -0.98367 (  0.00%)    -1.29149
       8     69.29    -1.24428 (100.00%)    -0.95986 (  0.00%)    -1.24428
       9     81.36    -1.15019 (100.00%)    -0.91230 (  0.00%)    -1.15019
      10     81.30    -1.15063 (100.00%)    -0.91252 (  0.00%)    -1.15063
      11     86.40    -1.11506 (100.00%)    -0.89449 (  0.00%)    -1.11506
      12     92.19    -1.07725 (100.00%)    -0.87529 (  0.00%)    -1.07725
      13     98.62    -1.03800 (100.00%)    -0.85532 (  0.00%)    -1.03800
      14    120.68    -0.92110 (100.00%)    -0.79550 (  0.00%)    -0.92110
      15    104.96    -1.00177 (100.00%)    -0.83684 (  0.00%)    -1.00177
      16    111.71    -0.96573 (100.00%)    -0.81840 (  0.00%)    -0.96573
      17    128.85    -0.88345 (100.00%)    -0.77610 (  0.00%)    -0.88345
      18    153.56    -0.78345 (100.00%)    -0.72415 (  0.00%)    -0.78345
      19    161.41    -0.75528 (100.00%)    -0.70937 (  0.00%)    -0.75528
      20    184.41    -0.68075 (100.00%)    -0.66990 (  0.00%)    -0.68075
      21    201.69    -0.63136 (100.00%)    -0.64336 (  0.00%)    -0.63136
      22    217.02    -0.59147 (100.00%)    -0.62167 (  0.00%)    -0.59147
      23    237.69    -0.54265 (100.00%)    -0.59471 (  0.00%)    -0.54265
      24    241.10    -0.53510 (100.00%)    -0.59050 (  0.00%)    -0.53510
      25    220.61    -0.58261 (100.00%)    -0.61681 (  0.00%)    -0.58261
      26    229.26    -0.56192 (100.00%)    -0.60541 (  0.00%)    -0.56192
      27    255.09    -0.50540 (100.00%)    -0.57379 (  0.00%)    -0.50540
      28    253.63    -0.50841 (100.00%)    -0.57549 (  0.00%)    -0.50841
      29    275.50    -0.46555 (100.00%)    -0.55099 (  0.00%)    -0.46555
      30    291.46    -0.43692 (100.00%)    -0.53430 (  0.00%)    -0.43692
   ------------------------------------------------------------------------

   temp. (K)  partition function   enthalpy   heat capacity  entropy
                                   cal/mol     cal/K/mol   cal/K/mol   J/K/mol
 298.15  VIB  0.939E+12            15587.438     88.389    107.066
         ROT  0.109E+08              888.752      2.981     35.184
         INT  0.102E+20            16476.191     91.370    142.250
         TR   0.729E+28             1481.254      4.968     43.712
         TOT                       17957.4447    96.3377   185.9626   778.0674

       T/K    H(0)-H(T)+PV         H(T)/Eh          T*S/Eh         G(T)/Eh
   ------------------------------------------------------------------------
    298.15    0.286170E-01    0.341643E+00    0.883568E-01    0.253286E+00
   ------------------------------------------------------------------------

         :::::::::::::::::::::::::::::::::::::::::::::::::::::
         ::                  THERMODYNAMIC                  ::
         :::::::::::::::::::::::::::::::::::::::::::::::::::::
         :: total free energy         -64.793632157027 Eh   ::
         ::.................................................::
         :: total energy              -65.046918028983 Eh   ::
         :: zero point energy           0.313025675258 Eh   ::
         :: G(RRHO) w/o ZPVE           -0.059739803302 Eh   ::
         :: G(RRHO) contrib.            0.253285871956 Eh   ::
         :::::::::::::::::::::::::::::::::::::::::::::::::::::

optimized geometry written to: xtbopt.coord


           -------------------------------------------------
          | TOTAL ENERGY              -65.046918028983 Eh   |
          | TOTAL ENTHALPY            -64.705275344011 Eh   |
          | TOTAL FREE ENERGY         -64.793632157027 Eh   |
          | GRADIENT NORM               0.000051053360 Eh/α |
          | HOMO-LUMO GAP               3.213908100947 eV   |
           -------------------------------------------------

------------------------------------------------------------------------
 * finished run on 2025/04/09 at 13:58:28.550     
------------------------------------------------------------------------
 total:
 * wall-time:     0 d,  0 h,  0 min, 21.819 sec
 *  cpu-time:     0 d,  0 h,  0 min, 21.597 sec
 * ratio c/w:     0.990 speedup
 SCF:
 * wall-time:     0 d,  0 h,  0 min,  0.061 sec
 *  cpu-time:     0 d,  0 h,  0 min,  0.057 sec
 * ratio c/w:     0.939 speedup
 analytical hessian:
 * wall-time:     0 d,  0 h,  0 min, 10.394 sec
 *  cpu-time:     0 d,  0 h,  0 min, 10.352 sec
 * ratio c/w:     0.996 speedup

