41
 energy: -65.050237571446 gnorm: 0.051461026054 xtb: 6.7.1 (edcfbbe)
C            3.29592039151191        2.05997227119765        2.65085353565996
C            1.92466484746144        1.50022068610935        2.36454773552770
O            1.78112551858169        1.10533107763209        0.95880734978084
P            2.42802732418747       -0.23421334295684        0.35820252666986
S            2.70874702770112       -1.70975825039245        1.59741215896949
O            3.71831219574898        0.36006294742084       -0.39546093918043
C            4.89651480881139       -0.44550099092160       -0.74768031958995
C            4.65285554169063       -1.33472777081167       -1.94232731207937
S            1.13338376353405       -0.61799110390833       -1.27949276326188
C           -0.17872380651651       -1.58525036744877       -0.44044143282718
S           -1.34744183165667       -0.67833722012741        0.64705806629469
P           -2.62581747964622        0.23018556804840       -0.79099140963911
S           -3.01350977202595       -0.83513618645617       -2.37305335725178
O           -2.00120438899990        1.65365166531419       -1.18334305867660
C           -1.18880714592385        2.50193916490429       -0.29411764914815
C           -1.94897652996580        3.01008157862562        0.90749082948651
O           -3.87043278076786        0.65786032523038        0.13482162870660
C           -5.09077795485315       -0.15331537454797        0.26169344849902
C           -4.89540027626954       -1.35052503508910        1.15871879929830
H            3.31180069538634        2.42910542174368        3.68118727495911
H            4.07103663280578        1.29402410648068        2.55228732425943
H            3.52769336083615        2.89358047456785        1.98162317078826
H            1.14280702872648        2.25148611054835        2.49760983379498
H            1.69632345032643        0.63242643797103        2.99112586024392
H            5.65936835002833        0.30594024395362       -0.95951063885335
H            5.19618419851933       -1.01876058354244        0.13529792706183
H            3.94794054299616       -2.13871402354754       -1.71453622465201
H            4.27873664140664       -0.75794307785780       -2.79366919789404
H            5.60647505208995       -1.78962274271339       -2.22923163195556
H            0.28681226769855       -2.34862106351083        0.19101859767663
H           -0.74747076998864       -2.07634563347391       -1.23683966010402
H           -0.30004848136597        1.93543343011090       -0.00505869169934
H           -0.88952597694907        3.32297993309573       -0.94944421655316
H           -2.17259036797422        2.21118003362006        1.62196083943808
H           -1.32270803470947        3.75038746660502        1.41626415022631
H           -2.88425534827806        3.49396973024070        0.61013807493844
H           -5.81617375211979        0.54702593805332        0.68010090481852
H           -5.41274401015798       -0.44269181457417       -0.74339587345905
H           -4.49310015844909       -1.05113750894431        2.13135948227496
H           -5.87030470138955       -1.82249966919422        1.31956203027440
H           -4.22904802653437       -2.09037484996554        0.70708649830334
41
 energy: -65.054444910430 gnorm: 0.028270374283 xtb: 6.7.1 (edcfbbe)
C            3.29188856747564        2.05273129515625        2.64248796674233
C            1.92286320227245        1.48752758077808        2.34724039178940
O            1.77430825296704        1.09418875417160        0.95145855510987
P            2.41804207585277       -0.23720077812094        0.34444930926320
S            2.71815545216785       -1.70290268769545        1.61138243073716
O            3.71563761686755        0.35518151009781       -0.38540922352506
C            4.88193610491125       -0.44266361703795       -0.73702068508262
C            4.64508515376186       -1.33187000508638       -1.93516987624171
S            1.08233821792305       -0.56275170734868       -1.27019394520068
C           -0.17684820451952       -1.58634059490738       -0.43782837583058
S           -1.27912438110000       -0.64104624116175        0.66515638329757
P           -2.61034824306505        0.22055284365823       -0.75895506282457
S           -3.01606202957848       -0.82996290221911       -2.35618637666746
O           -1.98460711200283        1.63303106091603       -1.16060082228491
C           -1.18788075624582        2.49585462242513       -0.29255463618314
C           -1.94924065795396        3.00605029976991        0.90740767411094
O           -3.87022713490888        0.65580691052084        0.13240285093108
C           -5.07740861531931       -0.14938160964948        0.25467857685187
C           -4.88801759578133       -1.34709440954356        1.15516987295624
H            3.31070816635210        2.41915704080101        3.66823916001651
H            4.05770833727880        1.28489557586045        2.53415018198323
H            3.52052695258621        2.87675023802214        1.96926300894580
H            1.14199800174558        2.23832460710072        2.48225734696931
H            1.70745910443042        0.61661845286690        2.97311623078233
H            5.64415074753168        0.31030405566396       -0.94527073454566
H            5.16930393138841       -1.02847937184741        0.14090578872551
H            3.93231223941606       -2.12217325547874       -1.70230724864135
H            4.26626245077437       -0.75335604460116       -2.77595786854770
H            5.59046445144625       -1.79071034938573       -2.22268515010631
H            0.30847390188859       -2.33452970226209        0.19128007691041
H           -0.76442571800214       -2.05233607671894       -1.23172296424206
H           -0.29710647908634        1.93822843819143        0.00574876560799
H           -0.89897706348085        3.30961016533400       -0.96036754294406
H           -2.17469348536909        2.19911162361176        1.60424055162206
H           -1.33374517985719        3.74737990647592        1.41624720976088
H           -2.88181812002216        3.47488335853763        0.59925656471775
H           -5.80224534589758        0.55319516869367        0.66946873593020
H           -5.38748174215220       -0.45102495313283       -0.74992145847497
H           -4.48313539770978       -1.04468644650127        2.11921955209066
H           -5.85539191197246       -1.82198369460555        1.31330541728828
H           -4.21516970950573       -2.07351105985975        0.70125303932851
41
 energy: -65.056195865008 gnorm: 0.011337107620 xtb: 6.7.1 (edcfbbe)
C            3.28852268694246        2.04233908637064        2.62639064280232
C            1.91569876790709        1.47669942447712        2.33411342597385
O            1.76090453322853        1.09068909315514        0.94909328164441
P            2.39785318301197       -0.23013171968485        0.33021415432173
S            2.69489134208211       -1.70729665756945        1.58858669444574
O            3.70507033387671        0.35342265756149       -0.37385801700351
C            4.85916177585103       -0.43803634332259       -0.72084353134417
C            4.62481015953472       -1.32608614358727       -1.92435620044605
S            1.06331583111846       -0.54359071411794       -1.28603266533201
C           -0.17529917801668       -1.55998166316242       -0.42792409268263
S           -1.25409125522054       -0.63797014868514        0.70259704039439
P           -2.58530546799018        0.21771178246472       -0.73100614514924
S           -2.98758388481778       -0.85243668715836       -2.31749678297008
O           -1.96044220682756        1.61820502502186       -1.14073685473408
C           -1.18047890405767        2.49476392283378       -0.29419533022369
C           -1.95107044253363        3.00011023676327        0.90441344252591
O           -3.85692792305052        0.65315367494720        0.13120950776298
C           -5.05255219957729       -0.14328554928069        0.24710297524005
C           -4.86928611275977       -1.34318293534356        1.15098502190616
H            3.31195153220866        2.40496830219084        3.64880725243599
H            4.04574330894708        1.27045468499703        2.50824765568240
H            3.51318904783879        2.86016691870044        1.94943176396610
H            1.13609242355100        2.22616615656418        2.47755874223466
H            1.71400532382992        0.60145654687038        2.95848456175200
H            5.62589723422033        0.31120286051742       -0.92504696145406
H            5.13885653147024       -1.03700284630205        0.15086442115673
H            3.90364495124414       -2.10487208386867       -1.68627778263666
H            4.24581208317642       -0.74409800804234       -2.75848568866458
H            5.56316844446143       -1.79050585668032       -2.20985218549072
H            0.32751763008088       -2.30643435251309        0.18496127231020
H           -0.77985079960081       -2.01514976838593       -1.21213625659047
H           -0.28193561456307        1.95464347596494        0.01494606240177
H           -0.90465459476075        3.30507850298142       -0.97062528430943
H           -2.17516736443624        2.18236789334557        1.58470891402647
H           -1.34861943320970        3.74203598884294        1.41869379846029
H           -2.88366429718220        3.45505023681878        0.58640854451276
H           -5.78124087991366        0.55768335252350        0.65733906897898
H           -5.35631002914397       -0.45639446726019       -0.75609180756412
H           -4.46511593137197       -1.03765365164606        2.11044454701194
H           -5.83126477650740       -1.82087932967122        1.30352140923603
H           -4.18957778353334       -2.05800289614133        0.69347505653801
41
 energy: -65.056717348727 gnorm: 0.006252302460 xtb: 6.7.1 (edcfbbe)
C            3.28427439635344        2.03310272861707        2.60979699022183
C            1.90582073033912        1.46947899063635        2.32877172975926
O            1.74548866324767        1.08766419832515        0.94834866674622
P            2.38594305107222       -0.22386466228029        0.32528602711888
S            2.66576854427519       -1.71782764886813        1.56693716509519
O            3.69664829634695        0.35679532533604       -0.36428227934794
C            4.84413812120875       -0.43403696744825       -0.70873211162912
C            4.60243432822851       -1.32010688970743       -1.91523910514913
S            1.04958123532135       -0.52626220886871       -1.28936596671287
C           -0.17429621838187       -1.54960228083540       -0.42008596363639
S           -1.23832202358642       -0.62956374362718        0.72021218889924
P           -2.56913697285856        0.21854302751870       -0.71934483656024
S           -2.95400832496333       -0.87701058642644       -2.29282108009331
O           -1.93891255277146        1.60848592454417       -1.13394401853347
C           -1.17141338385972        2.49743642597077       -0.29722462310165
C           -1.95318591610695        2.99579908882953        0.90016393137399
O           -3.84389070861083        0.65555142749795        0.12917342218575
C           -5.03417950371640       -0.13792051704969        0.24284170490251
C           -4.84801348975325       -1.33932850852501        1.14824638836509
H            3.31571351403540        2.39508462555600        3.63183531884780
H            4.03767826955878        1.25755383586880        2.48560277374735
H            3.50526609265894        2.84972654148910        1.92934588923158
H            1.12753792574959        2.21791577911392        2.48387490741879
H            1.71240075473601        0.59342134750643        2.95543053331357
H            5.61844994890023        0.30797974339879       -0.91058883433828
H            5.12254052652541       -1.04062505815058        0.15891917493322
H            3.87406196717090       -2.09256071389631       -1.67462139556313
H            4.22678864358877       -0.73330298936533       -2.74828346553043
H            5.53642674537361       -1.79249473803163       -2.20037416872079
H            0.34195846452422       -2.29869250443196        0.17921124518473
H           -0.79147369193875       -2.00394336651078       -1.19544652225932
H           -0.26280259834971        1.97675657511583        0.01953681246163
H           -0.90541503378281        3.30987923095960       -0.97490540072687
H           -2.17416855358059        2.17103969933854        1.57388300575702
H           -1.36114879070058        3.73964663586289        1.42293838964508
H           -2.88842430076552        3.44312196474949        0.57671197457845
H           -5.76983101542134        0.55791179529531        0.64966316415294
H           -5.33788229861533       -0.45760470356750       -0.75895902072305
H           -4.44695759609868       -1.03142529316789        2.10887711433585
H           -5.80751534057352       -1.82258695444623        1.29672958211594
H           -4.16227385927221       -2.04875657483660        0.68951436336056
41
 energy: -65.056896068985 gnorm: 0.005029429373 xtb: 6.7.1 (edcfbbe)
C            3.28113127178136        2.02645702060261        2.59869328008418
C            1.89892617946637        1.46458497398627        2.33012974695460
O            1.72875400569724        1.08319581047718        0.95096131419736
P            2.37372230907481       -0.22222000153626        0.32450875937221
S            2.65061854215889       -1.72236652908982        1.55894769173116
O            3.68604628861075        0.36035507279914       -0.35583471702770
C            4.83168225601270       -0.43268627174753       -0.70094436067105
C            4.58401906923842       -1.31617594652097       -1.90884555296421
S            1.04315866225801       -0.52105865183838       -1.29684931854419
C           -0.17304986552917       -1.54481896809082       -0.41499636121862
S           -1.23092493736590       -0.62850946294958        0.73301594010621
P           -2.55426680837603        0.21803774968570       -0.71624648376561
S           -2.93690053882286       -0.88447001154589       -2.28511682187708
O           -1.92035337349121        1.60168360998274       -1.13591142608719
C           -1.16532110457533        2.50357771893853       -0.30077516140700
C           -1.95495745812144        2.99389417142481        0.89597926641500
O           -3.83030795873585        0.65841109704071        0.12488653539452
C           -5.01969642117851       -0.13624905062356        0.23965858137717
C           -4.82953056082560       -1.33679566828549        1.14656175016669
H            3.32304168919611        2.39048698411611        3.62066958094036
H            4.03239962309349        1.24859567204523        2.46935499848952
H            3.49786336690856        2.84237459199810        1.91445281445978
H            1.12234030079512        2.21304507569648        2.49447925513040
H            1.70897986485433        0.58924629277809        2.95933510892300
H            5.61130923786250        0.30423961043836       -0.90154073479364
H            5.11053477719647       -1.04235996643671        0.16489835344608
H            3.85001285496085       -2.08430875947002       -1.66836649185558
H            4.21235994550215       -0.72527331714908       -2.74203924923953
H            5.51490617611061       -1.79592706375224       -2.19510597496649
H            0.35117502240849       -2.29524717708628        0.17692674208137
H           -0.79652996337451       -2.00454555072799       -1.18311148447798
H           -0.24917486926305        1.99739485401732        0.01856616951493
H           -0.90808066802145        3.31921578155016       -0.97836833983452
H           -2.17186562766575        2.16551664269724        1.56804851729609
H           -1.37014534384453        3.74024261563636        1.42500203043191
H           -2.89295029951902        3.43649623755508        0.57104256282079
H           -5.75962762051351        0.55621290103284        0.64493070413709
H           -5.32507101046818       -0.45869682301870       -0.76119432485263
H           -4.43198405341028       -1.02671500536028        2.10913504750082
H           -5.78748038471552       -1.82568110025392        1.29328726490702
H           -4.13909452986227       -2.04378115752653        0.68940845883134
41
 energy: -65.056992413516 gnorm: 0.003729727430 xtb: 6.7.1 (edcfbbe)
C            3.27893023353817        2.02151454699802        2.59083265855092
C            1.89419103770830        1.46166115446531        2.33432317733965
O            1.71457073580227        1.07930005160997        0.95523628400625
P            2.36765073172128       -0.22053525955926        0.32701647812640
S            2.64240942180235       -1.72548283197380        1.55581653162743
O            3.68052468121127        0.36598270531408       -0.34701009429466
C            4.82366002542972       -0.43184984685973       -0.69575447790441
C            4.56879113161051       -1.31265236480728       -1.90364089781102
S            1.04046019815642       -0.52579287723506       -1.29477395286600
C           -0.17332460766780       -1.55198999625213       -0.41237777770579
S           -1.23011825927601       -0.63234286771151        0.73219706510448
P           -2.54639267390933        0.22152469608468       -0.71817925895812
S           -2.92495609170990       -0.88629275233057       -2.28427862865552
O           -1.90534337973048        1.59967025516298       -1.14073108714162
C           -1.16124459884399        2.51151977096626       -0.30345272322740
C           -1.95660790200846        2.99325025188486        0.89259625601146
O           -3.82265244121654        0.66505198464570        0.11922784774788
C           -5.00993710016903       -0.13520183801474        0.23784334208066
C           -4.81316892971908       -1.33376098942267        1.14547571665323
H            3.33064559254556        2.38827402349879        3.61208182532437
H            4.02852194347843        1.24230529784975        2.45735357602815
H            3.49146930603125        2.83623332225980        1.90305254849567
H            1.11916212741439        2.21056961954870        2.50433195817122
H            1.70612429503558        0.58676495210705        2.96490123281859
H            5.60631855655523        0.30179127456947       -0.89629144578309
H            5.10168862959433       -1.04268192129201        0.16970184291952
H            3.82977110920286       -2.07652478136224       -1.66363488284144
H            4.20080879413983       -0.71867420687297       -2.73690031869514
H            5.49626466020209       -1.79931946866514       -2.19166820363494
H            0.35401044406377       -2.30051775099885        0.17910390657286
H           -0.79697073772914       -2.01634393042043       -1.17771945935956
H           -0.23969833213635        2.01564445349494        0.01500228436482
H           -0.91314603238671        3.33015608413157       -0.98116881617720
H           -2.16918069826253        2.16259566944864        1.56398350874340
H           -1.37681167118237        3.74180634974424        1.42512465505995
H           -2.89691519507042        3.43206931940347        0.56808275933034
H           -5.75198203081917        0.55490299254497        0.64317584077878
H           -5.31586372068806       -0.45897095549878       -0.76255253286529
H           -4.41873981123589       -1.02139604522486        2.10921157944590
H           -5.76886206516411       -1.82862689251222        1.29184131100111
H           -4.11838933081099       -2.03825319723014        0.69025404274485
41
 energy: -65.057044639403 gnorm: 0.002116671417 xtb: 6.7.1 (edcfbbe)
C            3.27743705033346        2.01779380578337        2.58566129755615
C            1.89139262687095        1.45924142979261        2.33909386495291
O            1.70186868048260        1.07271260259949        0.96056242122081
P            2.36274063758555       -0.22361513256776        0.33223078560998
S            2.64373608172082       -1.72670534921056        1.56227557349547
O            3.67455077766470        0.36855109038084       -0.33901286483652
C            4.81661996647029       -0.43223185085962       -0.69257897493638
C            4.55644969109119       -1.31052954474039       -1.89994127419639
S            1.03974742891903       -0.53064571827742       -1.29359653819900
C           -0.17365775553125       -1.55647195609893       -0.41005613826863
S           -1.23124276827959       -0.63467656449149        0.73185613839232
P           -2.54069324474729        0.22277873125275       -0.72368686574930
S           -2.92187311615519       -0.88095195521767       -2.29216372014640
O           -1.89277726218184        1.59757591259977       -1.14640304525263
C           -1.15888551207239        2.51774685320109       -0.30554125451071
C           -1.95770380182199        2.99225709398192        0.88983907519113
O           -3.81624937760581        0.66998406986643        0.11261900618014
C           -5.00221712709980       -0.13515615066001        0.23641067142429
C           -4.79924546006158       -1.33105413772141        1.14466446796766
H            3.33638699937634        2.38768713164458        3.60545117838918
H            4.02565530291366        1.23784056831654        2.45003066113754
H            3.48660120724414        2.83059518274324        1.89459644019260
H            1.11800259134891        2.20929217379161        2.51087185558482
H            1.70453012940464        0.58554924363661        2.97154820395958
H            5.59923329999312        0.30093001813661       -0.89414045699958
H            5.09446687788401       -1.04303100396400        0.17277247010424
H            3.81431048083790       -2.07122652053903       -1.66028391298843
H            4.19084250894628       -0.71463501053356       -2.73284031568374
H            5.48132054434391       -1.80141918711543       -2.18929858742819
H            0.35346825900648       -2.30313537506977        0.18382838503138
H           -0.79504536728963       -2.02388411405237       -1.17537895972010
H           -0.23316004118783        2.02961143608648        0.01081672883174
H           -0.91990374396593        3.33877498050671       -0.98378663440846
H           -2.16578439549058        2.16041735137034        1.56104866006735
H           -1.38148054512712        3.74326875777409        1.42308581193295
H           -2.90008446700005        3.42723763792001        0.56642031503764
H           -5.74381752130718        0.55436003187926        0.64316150770545
H           -5.30885334808446       -0.45955482135978       -0.76337516988946
H           -4.40659400797672       -1.01637727190825        2.10836326958282
H           -5.75278995414207       -1.83009076515360        1.29167823770570
H           -4.10163427980242       -2.03343567223455        0.69083135708690
41
 energy: -65.057057963337 gnorm: 0.001302365523 xtb: 6.7.1 (edcfbbe)
C            3.27723314665663        2.01687106636300        2.58518368599297
C            1.89094129204859        1.45898730936424        2.34143569382915
O            1.69837226874384        1.07023877007491        0.96348798226880
P            2.36251792431475       -0.22507551942683        0.33521502888119
S            2.64567645864872       -1.72722953356495        1.56639441980740
O            3.67407086867185        0.36948603866252       -0.33537212773392
C            4.81501613230740       -0.43238888540768       -0.69188541513946
C            4.55232256096892       -1.30989315161422       -1.89877882936958
S            1.04063015347146       -0.53561060647385       -1.29038353910730
C           -0.17476580830707       -1.56071465300513       -0.40969089613592
S           -1.23391610964070       -0.63744102623457        0.72949633192973
P           -2.54023088844891        0.22403207859124       -0.72644379411757
S           -2.92125671816798       -0.87756774603385       -2.29657988500392
O           -1.88880641741457        1.59773970546804       -1.14849074678370
C           -1.15838788297588        2.52021140023885       -0.30667384161857
C           -1.95759284793522        2.99138881616754        0.88904803373958
O           -3.81616923803555        0.67315728143219        0.10891519819902
C           -5.00062788817659       -0.13455493683734        0.23569579616736
C           -4.79404306091656       -1.32914715109627        1.14418339888254
H            3.33749926422351        2.38808290528598        3.60397307399998
H            4.02456348422906        1.23639904893438        2.44961329417802
H            3.48579539420101        2.82818815347888        1.89270898048522
H            1.11845655151020        2.21010774188318        2.51181829107922
H            1.70432552108312        0.58613261481528        2.97487292837465
H            5.59666893171542        0.30130067113526       -0.89474647106091
H            5.09311880632350       -1.04345494673471        0.17299597825366
H            3.80924920115370       -2.06916757095404       -1.65848939085089
H            4.18665427301055       -0.71361196986755       -2.73097386516823
H            5.47595220560211       -1.80196065203505       -2.18892215336512
H            0.35041177930956       -2.30643719848438        0.18694151245384
H           -0.79431302151920       -2.02720820499118       -1.17686097713203
H           -0.23127510034348        2.03425889253229        0.00818293889556
H           -0.92359388566560        3.34182482817961       -0.98539747059158
H           -2.16308856064396        2.15900227497170        1.55985663091637
H           -1.38279763248648        3.74385138779946        1.42134349161901
H           -2.90114531797909        3.42373328252651        0.56639413585508
H           -5.74150702642884        0.55481633686982        0.64374065656164
H           -5.30765388373344       -0.45983865839478       -0.76346821261614
H           -4.40095089247505       -1.01320461317961        2.10690426016851
H           -5.74615762513327       -1.82989608879224        1.29237690019102
H           -4.09552836625920       -2.03002949015796        0.69001264419222
41
 energy: -65.057062393088 gnorm: 0.000729978993 xtb: 6.7.1 (edcfbbe)
C            3.27748486957879        2.01651056807671        2.58615425934318
C            1.89088704971973        1.45918751580572        2.34266168894308
O            1.69757411844206        1.06808718220585        0.96565698639464
P            2.36268969406035       -0.22753117749028        0.33787292038036
S            2.64757746121962       -1.72807888893323        1.57067545737407
O            3.67409328242295        0.36839000136535       -0.33302481548855
C            4.81462081805107       -0.43268662920663       -0.69172039978652
C            4.55064345569682       -1.31011684809332       -1.89841680243484
S            1.04168412020007       -0.53747293899069       -1.28849095875205
C           -0.17531974529230       -1.56183376202373       -0.40938132956772
S           -1.23607825031621       -0.63799841779258        0.72845637499832
P           -2.54084669532320        0.22409257937820       -0.72857757060169
S           -2.92176293334274       -0.87574837114396       -2.29997007174969
O           -1.88741104237666        1.59756586727814       -1.14951728288862
C           -1.15831133115501        2.52072019399181       -0.30803722096968
C           -1.95706726105239        2.98994956609798        0.88866107613227
O           -3.81746688474618        0.67520214353590        0.10556719883932
C           -5.00079751570259       -0.13328847021785        0.23487130083022
C           -4.79162987908484       -1.32723073188888        1.14363495892540
H            3.33718050856215        2.38880125653381        3.60426874070702
H            4.02412965143440        1.23533873918672        2.45188416795072
H            3.48685664017523        2.82643791355347        1.89267542506545
H            1.11916851948325        2.21154315377341        2.51082890481579
H            1.70393228315660        0.58765997862871        2.97759272198218
H            5.59501274143271        0.30192445220482       -0.89605243110686
H            5.09431840374788       -1.04399338727300        0.17229578968314
H            3.80775261230450       -2.06903645243573       -1.65703099591261
H            4.18389788735257       -0.71392137540669       -2.72994245845664
H            5.47377824400034       -1.80206750848582       -2.18926016606732
H            0.34751797693672       -2.30793268576449        0.18893718699492
H           -0.79393119886449       -2.02663007421731       -1.17826079967445
H           -0.23001941214399        2.03609657296490        0.00579355445423
H           -0.92613502848909        3.34275227167768       -0.98679303616910
H           -2.15961790948801        2.15702509480335        1.55928669895068
H           -1.38365673907559        3.74404568325301        1.41974017472366
H           -2.90208175796272        3.41940503151636        0.56690078536360
H           -5.74106872180911        0.55596247603589        0.64414701439939
H           -5.30907102845165       -0.45958079831552       -0.76340918095039
H           -4.39696400703555       -1.01030253800527        2.10512048319581
H           -5.74273090924533       -1.82874147376406        1.29358296543469
H           -4.09316404151283       -2.02712771093015        0.68825235582155
41
 energy: -65.057064218543 gnorm: 0.000404241326 xtb: 6.7.1 (edcfbbe)
C            3.27776058061715        2.01622767172790        2.58709680406194
C            1.89075587377888        1.45955249825817        2.34294125214013
O            1.69827423761645        1.06797713084313        0.96632480659617
P            2.36294746779182       -0.22798491042573        0.33863391985514
S            2.64650534351030       -1.72916842427604        1.57082609425261
O            3.67481003924297        0.36777689041846       -0.33197612525410