 Entering Gaussian System
 *********************************************
 Gaussian 98:
 frequency output generated by the xtb code
 *********************************************
                         Standard orientation:
 --------------------------------------------------------------------
  Center     Atomic     Atomic              Coordinates (Angstroms)
  Number     Number      Type              X           Y           Z
 --------------------------------------------------------------------
    1          6             0       -3.076066    0.370433   -0.005247
    2          6             0       -1.618663    0.019721   -0.011002
    3          6             0       -1.187894   -1.293693   -0.108181
    4          6             0        0.165564   -1.590706   -0.110615
    5          6             0        1.124053   -0.597514   -0.017201
    6          6             0        0.689541    0.730103    0.080969
    7          6             0       -0.664085    1.026022    0.083327
    8          8             0        1.640637    1.704669    0.172654
    9          6             0        2.591379   -0.896060   -0.017791
   10          1             0       -3.688200   -0.522944   -0.091177
   11          1             0       -3.337811    0.885267    0.917792
   12          1             0       -3.309085    1.034575   -0.835955
   13          1             0       -1.910475   -2.092755   -0.182616
   14          1             0        0.484886   -2.619953   -0.187188
   15          1             0       -0.986313    2.055781    0.159699
   16          1             0        1.222061    2.575718    0.234573
   17          1             0        3.076268   -0.383851   -0.847758
   18          1             0        3.047527   -0.528094    0.900300
   19          1             0        2.768604   -1.964254   -0.102896
 --------------------------------------------------------------------
     1 basis functions        1 primitive gaussians
     1 alpha electrons        1 beta electrons
 
 Harmonic frequencies (cm**-1), IR intensities (km*mol⁻¹),
 Raman scattering activities (A**4/amu), Raman depolarization ratios,
 reduced masses (AMU), force constants (mDyne/A) and normal coordinates:
                      1                      2                      3
                        a                      a                      a 
 Frequencies --    20.9446                70.4674               125.7748
 Red. masses --     1.3073                 1.2828                 9.0872
 Frc consts  --     0.0000                 0.0000                 0.0000
 IR Inten    --     0.4232                 0.0455                 0.6963
 Raman Activ --     0.0000                 0.0000                 0.0000
 Depolar     --     0.0000                 0.0000                 0.0000
 Atom AN      X      Y      Z        X      Y      Z        X      Y      Z
   1   6    -0.00  -0.00   0.05    -0.00  -0.00   0.03    -0.01  -0.03   0.43
   2   6     0.00   0.00  -0.05    -0.00  -0.00   0.01     0.00   0.00  -0.05
   3   6    -0.00  -0.00   0.01    -0.00  -0.00   0.04     0.01   0.03  -0.34
   4   6    -0.00  -0.00   0.05    -0.00  -0.00   0.02     0.00   0.02  -0.30
   5   6    -0.00  -0.00   0.03     0.00   0.00  -0.01     0.00   0.00  -0.03
   6   6     0.00   0.00  -0.03     0.00   0.00  -0.04     0.00   0.01  -0.13
   7   6     0.00   0.01  -0.07     0.00   0.00  -0.04     0.00   0.01  -0.09
   8   8     0.00   0.01  -0.08     0.00   0.01  -0.10     0.00   0.01  -0.19
   9   6    -0.00  -0.00   0.06    -0.00  -0.01   0.07    -0.01  -0.04   0.51
  10   1     0.01   0.04  -0.52    -0.00  -0.00   0.01    -0.00  -0.02   0.22
  11   1    -0.09  -0.51   0.28     0.00  -0.00   0.01     0.10   0.02   0.14
  12   1     0.08   0.46   0.36    -0.00   0.00   0.01    -0.10  -0.04   0.13
  13   1    -0.00  -0.00   0.01    -0.00  -0.00   0.02     0.00   0.01  -0.13
  14   1    -0.00  -0.00   0.03    -0.00  -0.00   0.01     0.00   0.01  -0.11
  15   1     0.00   0.00  -0.04     0.00   0.00  -0.02    -0.00  -0.00   0.00
  16   1     0.00   0.00  -0.03     0.00   0.00  -0.05     0.00   0.00  -0.06
  17   1     0.00  -0.02   0.01     0.11   0.45   0.37     0.09  -0.08   0.16
  18   1    -0.00   0.01   0.01    -0.12  -0.51   0.28    -0.09   0.05   0.17
  19   1    -0.00  -0.00   0.03     0.01   0.04  -0.52    -0.00  -0.02   0.25
                      4                      5                      6
                        a                      a                      a 
 Frequencies --   208.5855               267.0495               287.0358
 Red. masses --    11.3085                 9.9487                 9.8392
 Frc consts  --     0.0000                 0.0000                 0.0000
 IR Inten    --     0.0058                 6.7037                 1.1797
 Raman Activ --     0.0000                 0.0000                 0.0000
 Depolar     --     0.0000                 0.0000                 0.0000
 Atom AN      X      Y      Z        X      Y      Z        X      Y      Z
   1   6    -0.00  -0.02   0.22    -0.02  -0.15  -0.01    -0.18  -0.52  -0.04
   2   6     0.00   0.02  -0.21     0.02   0.03   0.00     0.00   0.21   0.02
   3   6    -0.00  -0.02   0.20     0.06   0.05   0.00    -0.01   0.21   0.02
   4   6    -0.00  -0.00   0.05     0.05   0.14   0.01    -0.06   0.10   0.01
   5   6     0.00   0.01  -0.13     0.10   0.11   0.01    -0.08   0.08   0.00
   6   6     0.00   0.01  -0.19     0.08   0.12   0.01     0.01   0.11   0.01
   7   6     0.01   0.05  -0.60     0.03   0.01   0.00     0.00   0.25   0.02
   8   8    -0.01  -0.04   0.53    -0.20   0.45   0.03     0.40  -0.24  -0.01
   9   6     0.00   0.01  -0.07    -0.04  -0.61  -0.05    -0.11  -0.01  -0.00
  10   1    -0.00  -0.01   0.14     0.04  -0.07  -0.00     0.11  -0.26  -0.02
  11   1     0.09  -0.00   0.09    -0.03  -0.06  -0.00    -0.17  -0.20  -0.02
  12   1    -0.09  -0.01   0.09    -0.03  -0.06  -0.01    -0.17  -0.20  -0.02
  13   1    -0.00  -0.01   0.18     0.03   0.00   0.00    -0.02   0.07   0.01
  14   1    -0.00  -0.01   0.07     0.02   0.04   0.00    -0.03   0.03   0.00
  15   1     0.00   0.02  -0.24     0.00   0.00  -0.00     0.01   0.08   0.01
  16   1    -0.00  -0.01   0.13    -0.13   0.08   0.00     0.20  -0.01   0.00
  17   1     0.01   0.00  -0.02     0.07  -0.27  -0.02    -0.02  -0.02  -0.00
  18   1    -0.01   0.00  -0.02     0.07  -0.27  -0.02    -0.02  -0.02  -0.00
  19   1     0.00   0.00  -0.02    -0.20  -0.21  -0.02    -0.06  -0.01  -0.00
                      7                      8                      9
                        a                      a                      a 
 Frequencies --   315.3989               394.0042               424.7328
 Red. masses --     9.0206                 4.1031                10.5902
 Frc consts  --     0.0000                 0.0000                 0.0000
 IR Inten    --     5.9857               145.0827                 1.5854
 Raman Activ --     0.0000                 0.0000                 0.0000
 Depolar     --     0.0000                 0.0000                 0.0000
 Atom AN      X      Y      Z        X      Y      Z        X      Y      Z
   1   6     0.00   0.01  -0.17    -0.00   0.00  -0.03    -0.34   0.01  -0.00
   2   6    -0.01  -0.03   0.33    -0.00  -0.02   0.21    -0.21   0.26   0.02
   3   6    -0.01  -0.03   0.39    -0.00  -0.01   0.15     0.01   0.31   0.03
   4   6     0.00   0.02  -0.29     0.00   0.03  -0.31     0.01   0.06   0.00
   5   6     0.01   0.04  -0.51    -0.00  -0.01   0.14     0.32  -0.21  -0.01
   6   6     0.00   0.02  -0.21    -0.00  -0.01   0.18     0.03  -0.29  -0.02
   7   6    -0.00  -0.01   0.08     0.00   0.01  -0.15     0.05  -0.03  -0.00
   8   8    -0.00  -0.00   0.04    -0.00  -0.01   0.17    -0.27  -0.08  -0.01
   9   6    -0.00  -0.02   0.20    -0.00   0.00  -0.00     0.45  -0.01   0.01
  10   1     0.00   0.01  -0.14     0.00   0.00  -0.04    -0.03  -0.05  -0.00
  11   1    -0.12   0.01  -0.09    -0.06   0.01  -0.03    -0.14  -0.02  -0.00
  12   1     0.13   0.01  -0.08     0.06  -0.00  -0.03    -0.14  -0.02  -0.00
  13   1    -0.00  -0.02   0.22    -0.00  -0.00   0.04     0.01   0.08   0.01
  14   1     0.00   0.01  -0.12     0.00   0.02  -0.24    -0.10  -0.02  -0.01
  15   1    -0.00  -0.00   0.05     0.00   0.01  -0.16     0.13   0.03   0.00
  16   1    -0.00  -0.01   0.19     0.01   0.06  -0.79    -0.14  -0.06  -0.00
  17   1     0.16  -0.06   0.12    -0.03  -0.00  -0.02     0.10   0.02   0.00
  18   1    -0.16   0.04   0.12     0.03   0.01  -0.02     0.10   0.02   0.00
  19   1    -0.00  -0.01   0.16    -0.00   0.00  -0.00     0.19   0.01   0.00
                     10                     11                     12
                        a                      a                      a 
 Frequencies --   431.4915               487.3640               542.0435
 Red. masses --     7.4557                10.2132                12.2249
 Frc consts  --     0.0000                 0.0000                 0.0000
 IR Inten    --    52.6100                 6.0683                 9.5747
 Raman Activ --     0.0000                 0.0000                 0.0000
 Depolar     --     0.0000                 0.0000                 0.0000
 Atom AN      X      Y      Z        X      Y      Z        X      Y      Z
   1   6     0.00   0.00  -0.01     0.33  -0.17  -0.01     0.19   0.05   0.01
   2   6    -0.00  -0.02   0.18     0.31   0.21   0.02     0.13   0.09   0.01
   3   6    -0.00  -0.01   0.13    -0.07   0.11   0.01     0.37   0.16   0.02
   4   6     0.01   0.03  -0.34    -0.19  -0.28  -0.03     0.29  -0.09  -0.00
   5   6    -0.01  -0.03   0.40    -0.18  -0.25  -0.02    -0.00   0.07   0.01
   6   6    -0.01  -0.02   0.29     0.10  -0.15  -0.01    -0.38  -0.05  -0.01
   7   6     0.00   0.02  -0.29     0.24   0.18   0.02    -0.24   0.34   0.02
   8   8     0.01   0.02  -0.26    -0.29   0.21   0.01    -0.32  -0.41  -0.04
   9   6    -0.00  -0.00  -0.00    -0.15   0.10   0.01    -0.05  -0.09  -0.01
  10   1     0.00   0.00  -0.03     0.19  -0.12  -0.01     0.03   0.03   0.00
  11   1    -0.04   0.01  -0.02     0.03  -0.08  -0.01     0.07   0.02   0.00
  12   1     0.05  -0.01  -0.02     0.03  -0.08  -0.01     0.07   0.02   0.00
  13   1    -0.00  -0.00   0.02    -0.11   0.12   0.01     0.09   0.06   0.01
  14   1     0.01   0.02  -0.28    -0.09  -0.09  -0.01     0.08  -0.02  -0.00
  15   1     0.00   0.02  -0.27     0.11   0.06   0.01    -0.06   0.10   0.01
  16   1    -0.01  -0.04   0.50    -0.22  -0.01  -0.01    -0.00  -0.06  -0.01
  17   1    -0.09   0.03  -0.04    -0.09   0.09   0.01     0.03  -0.08  -0.01
  18   1     0.09  -0.02  -0.04    -0.09   0.09   0.00     0.03  -0.08  -0.00
  19   1    -0.00   0.00  -0.05     0.08   0.05   0.01    -0.12  -0.04  -0.01
                     13                     14                     15
                        a                      a                      a 
 Frequencies --   555.9495               662.3426               722.5061
 Red. masses --    10.4019                10.9173                11.2862
 Frc consts  --     0.0000                 0.0000                 0.0000
 IR Inten    --     4.4899                 4.3061                13.5565
 Raman Activ --     0.0000                 0.0000                 0.0000
 Depolar     --     0.0000                 0.0000                 0.0000
 Atom AN      X      Y      Z        X      Y      Z        X      Y      Z
   1   6    -0.00   0.00  -0.02    -0.00  -0.00   0.04    -0.42   0.13   0.00
   2   6     0.01   0.05  -0.61    -0.00  -0.02   0.26    -0.10   0.06   0.00
   3   6    -0.01  -0.03   0.34     0.00   0.02  -0.27     0.37   0.05   0.01
   4   6     0.00   0.01  -0.16    -0.00  -0.02   0.31     0.28  -0.51  -0.04
   5   6     0.00   0.01  -0.18     0.01   0.04  -0.46    -0.11  -0.14  -0.01
   6   6    -0.01  -0.04   0.49    -0.01  -0.05   0.59     0.09   0.01   0.00
   7   6    -0.00  -0.01   0.16     0.00   0.02  -0.28     0.03   0.06   0.01
   8   8     0.00   0.01  -0.17     0.00   0.01  -0.09     0.18   0.26   0.02
   9   6     0.00  -0.00   0.01     0.00   0.00  -0.05    -0.25  -0.00  -0.00
  10   1    -0.00  -0.01   0.09     0.00   0.00  -0.02    -0.13   0.05   0.00
  11   1     0.17  -0.04   0.07    -0.06   0.01  -0.02    -0.11   0.04   0.00
  12   1    -0.17   0.02   0.06     0.06  -0.01  -0.02    -0.11   0.04   0.00
  13   1    -0.00  -0.02   0.23     0.00   0.01  -0.11     0.08   0.03   0.00
  14   1     0.00   0.01  -0.06    -0.00  -0.00   0.06     0.08  -0.14  -0.01
  15   1    -0.00  -0.01   0.06     0.00   0.01  -0.18     0.04   0.03   0.00
  16   1     0.00   0.00  -0.04    -0.00   0.00  -0.00    -0.01   0.04   0.00
  17   1     0.06  -0.02   0.03     0.13  -0.03   0.04    -0.09   0.03   0.00
  18   1    -0.06   0.02   0.03    -0.13   0.03   0.04    -0.09   0.03  -0.00
  19   1    -0.00  -0.00   0.04    -0.00  -0.00   0.06    -0.02   0.01   0.00
                     16                     17                     18
                        a                      a                      a 
 Frequencies --   788.6500               809.3260               863.6165
 Red. masses --    10.4574                 3.3459                 3.3878
 Frc consts  --     0.0000                 0.0000                 0.0000
 IR Inten    --     5.2659                19.3380                 1.1552
 Raman Activ --     0.0000                 0.0000                 0.0000
 Depolar     --     0.0000                 0.0000                 0.0000
 Atom AN      X      Y      Z        X      Y      Z        X      Y      Z
   1   6    -0.03   0.02   0.00     0.00   0.00  -0.04     0.00   0.00  -0.00
   2   6    -0.03   0.03   0.00     0.00   0.01  -0.09    -0.00  -0.00   0.01
   3   6     0.19   0.17   0.02    -0.00  -0.02   0.26     0.00   0.02  -0.21
   4   6     0.12   0.34   0.03    -0.00  -0.02   0.23     0.00   0.01  -0.14
   5   6     0.01   0.14   0.01     0.00   0.01  -0.08     0.00   0.00  -0.01
   6   6     0.18  -0.17  -0.01     0.00   0.01  -0.14     0.00   0.00  -0.04
   7   6     0.29  -0.39  -0.03    -0.00  -0.02   0.23    -0.01  -0.03   0.39
   8   8    -0.17  -0.21  -0.02    -0.00  -0.00   0.04    -0.00  -0.00   0.02
   9   6    -0.48   0.12   0.00     0.00   0.00  -0.04    -0.00   0.00  -0.00
  10   1     0.04  -0.03  -0.00    -0.00  -0.00   0.05     0.00  -0.00   0.00
  11   1    -0.03  -0.01   0.00     0.10  -0.03   0.03     0.01  -0.00   0.00
  12   1    -0.03  -0.01  -0.00    -0.10   0.02   0.03    -0.01   0.00   0.00
  13   1     0.13  -0.02  -0.00     0.01   0.05  -0.60    -0.01  -0.03   0.32
  14   1     0.06   0.11   0.01     0.01   0.03  -0.43    -0.01  -0.03   0.34
  15   1     0.18  -0.08  -0.00     0.01   0.03  -0.44     0.01   0.06  -0.75
  16   1    -0.13  -0.09  -0.01    -0.00  -0.00   0.02    -0.00  -0.00   0.00
  17   1    -0.12   0.02  -0.00     0.08  -0.02   0.03     0.00  -0.00  -0.00
  18   1    -0.12   0.02   0.00    -0.08   0.01   0.03    -0.00   0.00  -0.00
  19   1    -0.19   0.03  -0.00    -0.00  -0.00   0.04     0.00   0.00  -0.00
                     19                     20                     21
                        a                      a                      a 
 Frequencies --   909.7004               961.3358              1009.1569
 Red. masses --     3.4491                 8.3878                 5.7634
 Frc consts  --     0.0000                 0.0000                 0.0000
 IR Inten    --     0.1983                11.9198                20.5647
 Raman Activ --     0.0000                 0.0000                 0.0000
 Depolar     --     0.0000                 0.0000                 0.0000
 Atom AN      X      Y      Z        X      Y      Z        X      Y      Z
   1   6     0.00   0.00  -0.01    -0.24   0.22   0.01     0.16   0.06   0.01
   2   6     0.00   0.00  -0.02     0.22   0.07   0.01    -0.12   0.06   0.00
   3   6     0.00   0.02  -0.29    -0.19  -0.46  -0.04     0.04   0.21   0.02
   4   6    -0.01  -0.03   0.35     0.04  -0.09  -0.01    -0.06  -0.28  -0.02
   5   6    -0.00  -0.00   0.02    -0.02   0.17   0.01    -0.05   0.07   0.00
   6   6     0.00   0.01  -0.09     0.12   0.03   0.00    -0.03  -0.00  -0.00
   7   6    -0.00  -0.01   0.07     0.22   0.23   0.02    -0.07  -0.33  -0.03
   8   8    -0.00  -0.00   0.01    -0.17  -0.17  -0.02     0.07   0.05   0.01
   9   6     0.00   0.00  -0.01     0.08   0.14   0.01     0.11   0.33   0.03
  10   1     0.00  -0.00  -0.00     0.14  -0.08  -0.00     0.18  -0.08  -0.00
  11   1     0.01  -0.00   0.00    -0.24  -0.03   0.00    -0.03  -0.03   0.01
  12   1    -0.01   0.00   0.00    -0.24  -0.03  -0.01    -0.04  -0.03  -0.01
  13   1    -0.01  -0.04   0.56    -0.07  -0.12  -0.01    -0.08   0.13   0.01
  14   1     0.01   0.05  -0.68     0.22   0.03   0.01    -0.18  -0.13  -0.01
  15   1     0.00   0.00  -0.01     0.13   0.09   0.01    -0.07  -0.11  -0.01
  16   1    -0.00  -0.00   0.01    -0.09  -0.06  -0.01     0.06   0.03   0.00
  17   1     0.02  -0.00   0.01     0.13  -0.10  -0.02     0.24  -0.20  -0.04
  18   1    -0.02   0.00   0.01     0.13  -0.10   0.01     0.24  -0.20   0.02
  19   1    -0.00  -0.00   0.01    -0.22  -0.01  -0.00    -0.49  -0.01  -0.01
                     22                     23                     24
                        a                      a                      a 
 Frequencies --  1020.7819              1030.3809              1035.1945
 Red. masses --     4.0072                 4.5580                 4.5313
 Frc consts  --     0.0000                 0.0000                 0.0000
 IR Inten    --     5.0261                 5.6824                10.5682
 Raman Activ --     0.0000                 0.0000                 0.0000
 Depolar     --     0.0000                 0.0000                 0.0000
 Atom AN      X      Y      Z        X      Y      Z        X      Y      Z
   1   6    -0.18  -0.36  -0.03    -0.01  -0.03   0.42    -0.00  -0.01   0.09
   2   6     0.05  -0.04  -0.00     0.01   0.03  -0.35     0.00   0.01  -0.08
   3   6    -0.06   0.01  -0.00    -0.00  -0.00   0.04    -0.00  -0.00   0.04
   4   6    -0.05  -0.01  -0.00    -0.00  -0.00   0.02    -0.00  -0.00   0.06
   5   6     0.01   0.02   0.00    -0.00  -0.01   0.07     0.01   0.03  -0.35
   6   6     0.10  -0.05  -0.00    -0.00   0.00   0.00    -0.00  -0.00   0.04
   7   6     0.14   0.18   0.02    -0.00  -0.00   0.05    -0.00  -0.00   0.03
   8   8    -0.01  -0.03  -0.00    -0.00   0.00  -0.00    -0.00   0.00  -0.00
   9   6     0.02   0.18   0.01     0.00   0.01  -0.10    -0.01  -0.03   0.42
  10   1    -0.54   0.25   0.01     0.01   0.02  -0.23     0.00   0.00  -0.05
  11   1     0.29   0.11  -0.02    -0.50   0.16  -0.14    -0.11   0.04  -0.03
  12   1     0.30   0.10   0.04     0.50  -0.14  -0.15     0.11  -0.03  -0.03
  13   1    -0.09   0.07   0.00     0.00   0.00  -0.04     0.00   0.00  -0.05
  14   1    -0.03  -0.01  -0.00     0.00   0.00  -0.04     0.00   0.01  -0.07
  15   1     0.17   0.09   0.01     0.00   0.00  -0.05     0.00   0.00  -0.06
  16   1    -0.12  -0.06  -0.01     0.00   0.00  -0.00     0.00   0.00  -0.00
  17   1     0.11  -0.10  -0.02     0.12  -0.02   0.04    -0.51   0.07  -0.15
  18   1     0.11  -0.10   0.01    -0.12   0.01   0.03     0.52  -0.05  -0.15
  19   1    -0.26   0.00  -0.00    -0.00  -0.00   0.05     0.00   0.02  -0.23
                     25                     26                     27
                        a                      a                      a 
 Frequencies --  1099.1550              1148.2309              1182.1140
 Red. masses --     6.5720                 5.0203                 4.6751
 Frc consts  --     0.0000                 0.0000                 0.0000
 IR Inten    --   372.3396                14.2734               123.4976
 Raman Activ --     0.0000                 0.0000                 0.0000
 Depolar     --     0.0000                 0.0000                 0.0000
 Atom AN      X      Y      Z        X      Y      Z        X      Y      Z
   1   6    -0.07  -0.05  -0.01     0.08   0.01   0.00     0.17  -0.04  -0.00
   2   6     0.05   0.01   0.00    -0.11  -0.03  -0.00    -0.26   0.11   0.01
   3   6    -0.03   0.09   0.01    -0.05  -0.14  -0.01    -0.15  -0.03  -0.00
   4   6     0.05  -0.15  -0.01     0.00   0.11   0.01     0.14  -0.07  -0.00
   5   6    -0.13   0.09   0.01     0.23  -0.23  -0.01     0.04   0.09   0.01
   6   6     0.00   0.31   0.02    -0.17  -0.25  -0.02    -0.16  -0.21  -0.02
   7   6     0.24  -0.22  -0.01    -0.03   0.17   0.01    -0.16  -0.09  -0.01
   8   8    -0.37  -0.12  -0.02    -0.02   0.20   0.02     0.17   0.12   0.01
   9   6     0.09  -0.09  -0.01    -0.14   0.12   0.01    -0.02  -0.03  -0.00
  10   1    -0.08   0.03   0.00     0.07  -0.03  -0.00     0.07  -0.03  -0.00
  11   1     0.02   0.01  -0.00     0.00  -0.00  -0.00     0.05  -0.01  -0.00
  12   1     0.02   0.01   0.01     0.00  -0.00  -0.00     0.05  -0.01   0.00
  13   1    -0.17   0.17   0.01     0.25  -0.27  -0.02    -0.32   0.23   0.01
  14   1     0.09  -0.02   0.00    -0.18  -0.03  -0.01     0.58   0.14   0.02
  15   1     0.19  -0.02   0.00     0.39   0.17   0.02     0.38   0.11   0.01
  16   1     0.58   0.29   0.03     0.43   0.25   0.03    -0.07  -0.03  -0.00
  17   1    -0.00   0.02   0.01    -0.01  -0.02  -0.01    -0.01   0.01   0.01
  18   1    -0.00   0.02  -0.01    -0.01  -0.02   0.01    -0.01   0.01  -0.00
  19   1     0.15  -0.00   0.00    -0.20   0.00  -0.00     0.03  -0.00   0.00
                     28                     29                     30
                        a                      a                      a 
 Frequencies --  1216.6034              1272.2780              1300.5996
 Red. masses --     5.9455                 3.5240                11.1123
 Frc consts  --     0.0000                 0.0000                 0.0000
 IR Inten    --    58.8590                14.1286                94.4982
 Raman Activ --     0.0000                 0.0000                 0.0000
 Depolar     --     0.0000                 0.0000                 0.0000
 Atom AN      X      Y      Z        X      Y      Z        X      Y      Z
   1   6    -0.11   0.04   0.00    -0.02   0.07   0.01     0.15  -0.04  -0.00
   2   6     0.27  -0.07  -0.00     0.08  -0.19  -0.01    -0.44  -0.04  -0.01
   3   6    -0.10  -0.03  -0.00     0.11  -0.15  -0.01    -0.38   0.06  -0.00
   4   6     0.13   0.12   0.01     0.08   0.02   0.00     0.38  -0.16  -0.01
   5   6     0.43  -0.19  -0.01     0.12   0.26   0.02     0.31  -0.11  -0.00
   6   6    -0.03  -0.19  -0.02    -0.12   0.11   0.01     0.14   0.38   0.03
   7   6    -0.03   0.05   0.00    -0.09  -0.05  -0.01     0.15   0.15   0.01
   8   8    -0.03   0.07   0.01     0.08  -0.03  -0.00    -0.09  -0.15  -0.01
   9   6    -0.21   0.07   0.00    -0.03  -0.09  -0.01    -0.15   0.01  -0.00
  10   1    -0.06   0.03   0.00     0.02  -0.01  -0.00     0.10  -0.05  -0.00
  11   1    -0.07  -0.01   0.00    -0.07  -0.02   0.00     0.08  -0.01   0.01
  12   1    -0.08  -0.01  -0.00    -0.07  -0.02  -0.01     0.08  -0.01  -0.01
  13   1    -0.40   0.33   0.02    -0.30   0.26   0.02    -0.01  -0.08  -0.01
  14   1     0.02   0.02   0.00    -0.56  -0.17  -0.02    -0.09  -0.11  -0.01
  15   1    -0.41  -0.12  -0.02     0.43   0.13   0.02    -0.08   0.02   0.00
  16   1     0.19   0.11   0.01    -0.17  -0.09  -0.01    -0.13  -0.08  -0.01
  17   1    -0.07   0.02  -0.01    -0.06   0.07   0.03    -0.06   0.02  -0.00
  18   1    -0.07   0.02   0.01    -0.06   0.08  -0.01    -0.06   0.02   0.00
  19   1    -0.16   0.00  -0.00     0.06  -0.01   0.00    -0.06   0.00  -0.00
                     31                     32                     33
                        a                      a                      a 
 Frequencies --  1347.6506              1399.3545              1400.7230
 Red. masses --    11.1587                 3.2515                 3.4214
 Frc consts  --     0.0000                 0.0000                 0.0000
 IR Inten    --    52.4804                 1.4677                 5.4650
 Raman Activ --     0.0000                 0.0000                 0.0000
 Depolar     --     0.0000                 0.0000                 0.0000
 Atom AN      X      Y      Z        X      Y      Z        X      Y      Z
   1   6     0.07  -0.10  -0.01    -0.41   0.14   0.01    -0.09   0.06   0.00
   2   6    -0.11   0.46   0.03     0.05  -0.00   0.00    -0.03  -0.08  -0.01
   3   6     0.10  -0.27  -0.02     0.03  -0.03  -0.00     0.04  -0.01  -0.00
   4   6    -0.19  -0.21  -0.02    -0.03   0.01   0.00    -0.01   0.05   0.00
   5   6     0.28   0.37   0.03    -0.01   0.03   0.00     0.03  -0.06  -0.00
   6   6     0.39  -0.13  -0.00     0.00  -0.03  -0.00     0.06  -0.01   0.00
   7   6    -0.31  -0.05  -0.01    -0.00   0.01   0.00    -0.04   0.05   0.00
   8   8    -0.11  -0.07  -0.01    -0.00   0.00   0.00    -0.02  -0.00  -0.00
   9   6    -0.12  -0.06  -0.01     0.11  -0.02   0.00    -0.42   0.09  -0.00
  10   1    -0.03   0.02   0.00     0.37  -0.27  -0.02     0.10  -0.07  -0.00
  11   1     0.07   0.06  -0.03     0.46  -0.12   0.21     0.10  -0.05   0.06
  12   1     0.07   0.05   0.04     0.46  -0.08  -0.22     0.10  -0.04  -0.07
  13   1     0.01  -0.06  -0.00    -0.03   0.03   0.00    -0.05   0.05   0.00
  14   1    -0.08  -0.07  -0.01    -0.01   0.00   0.00    -0.03   0.01   0.00
  15   1    -0.11  -0.01  -0.00    -0.01  -0.00  -0.00     0.01   0.02   0.00
  16   1     0.12   0.05   0.01     0.01   0.01   0.00     0.01   0.01   0.00
  17   1    -0.03   0.07   0.04    -0.11   0.04  -0.04     0.44  -0.17   0.17
  18   1    -0.03   0.08  -0.03    -0.11   0.04   0.05     0.44  -0.15  -0.18
  19   1     0.05   0.01   0.00    -0.12  -0.02  -0.00     0.46   0.09   0.02
                     34                     35                     36
                        a                      a                      a 
 Frequencies --  1425.2963              1464.8721              1476.5942
 Red. masses --    10.0954                 1.5536                 1.5582
 Frc consts  --     0.0000                 0.0000                 0.0000
 IR Inten    --    99.5333                 2.3388                 3.8544
 Raman Activ --     0.0000                 0.0000                 0.0000
 Depolar     --     0.0000                 0.0000                 0.0000
 Atom AN      X      Y      Z        X      Y      Z        X      Y      Z
   1   6     0.11   0.09   0.01     0.00   0.00  -0.00    -0.01  -0.03   0.22
   2   6    -0.25  -0.30  -0.03    -0.00  -0.00  -0.00    -0.00  -0.00   0.04
   3   6     0.32  -0.03   0.00    -0.00   0.00  -0.00     0.00  -0.00   0.00
   4   6    -0.21   0.14   0.01     0.00  -0.00   0.00     0.00   0.00  -0.00
   5   6    -0.08  -0.25  -0.02    -0.00  -0.00   0.04    -0.00  -0.00   0.00
   6   6     0.50   0.12   0.02     0.00  -0.00  -0.00    -0.00   0.00  -0.00
   7   6    -0.24   0.21   0.01     0.00   0.00  -0.00    -0.00  -0.00  -0.01
   8   8    -0.14  -0.08  -0.01    -0.00   0.00  -0.00     0.00   0.00   0.00
   9   6     0.08   0.10   0.01    -0.00  -0.02   0.22     0.00   0.01   0.00
  10   1     0.02   0.01   0.00    -0.00  -0.00   0.01     0.02   0.05  -0.72
  11   1    -0.06  -0.09   0.04    -0.00  -0.00   0.00     0.36   0.31  -0.06
  12   1    -0.06  -0.08  -0.05     0.00   0.00   0.00    -0.35  -0.26  -0.09
  13   1    -0.13   0.19   0.01    -0.00  -0.00   0.00    -0.00   0.00  -0.00
  14   1     0.09   0.09   0.01    -0.00   0.00  -0.00    -0.00  -0.00   0.00
  15   1     0.09   0.12   0.01    -0.00  -0.00   0.00    -0.00  -0.00   0.00
  16   1     0.05   0.02   0.00     0.00   0.00   0.00    -0.00  -0.00   0.00
  17   1    -0.09  -0.09  -0.12     0.21  -0.40  -0.11    -0.00  -0.02  -0.01
  18   1    -0.09  -0.11   0.10    -0.21   0.41  -0.05    -0.01  -0.01   0.01
  19   1    -0.06   0.00  -0.00     0.01   0.06  -0.72     0.01   0.00  -0.01
                     37                     38                     39
                        a                      a                      a 
 Frequencies --  1477.6739              1484.7178              1507.0280
 Red. masses --     1.8929                 2.1796                10.1764
 Frc consts  --     0.0000                 0.0000                 0.0000
 IR Inten    --     6.8160                16.4063                68.2260
 Raman Activ --     0.0000                 0.0000                 0.0000
 Depolar     --     0.0000                 0.0000                 0.0000
 Atom AN      X      Y      Z        X      Y      Z        X      Y      Z
   1   6    -0.09  -0.15  -0.02    -0.07  -0.10  -0.01     0.11  -0.01   0.00
   2   6     0.00   0.06   0.00    -0.06  -0.15  -0.01    -0.39   0.03  -0.00
   3   6     0.02  -0.09  -0.01     0.10   0.01   0.00     0.07  -0.20  -0.01
   4   6     0.09   0.07   0.01    -0.08   0.05   0.00     0.28   0.15   0.02
   5   6    -0.04  -0.04  -0.00    -0.05  -0.12  -0.01    -0.40   0.19   0.01
   6   6    -0.03   0.00  -0.00     0.07   0.05   0.00     0.04  -0.40  -0.03
   7   6     0.00  -0.02  -0.00     0.01   0.06   0.01     0.31   0.20   0.02
   8   8     0.01   0.01   0.00    -0.03  -0.01  -0.00    -0.02   0.07   0.01
   9   6     0.01   0.14   0.01     0.02  -0.14  -0.01     0.11  -0.05  -0.00
  10   1     0.25  -0.19   0.02     0.23  -0.17  -0.01    -0.00   0.01   0.00
  11   1     0.02   0.39  -0.22     0.01   0.34  -0.19     0.01  -0.04   0.02
  12   1     0.05   0.38   0.29     0.00   0.30   0.24     0.01  -0.04  -0.03
  13   1    -0.06   0.03   0.00    -0.04   0.06   0.00    -0.16   0.09   0.01
  14   1    -0.07  -0.01  -0.00     0.05   0.04   0.00    -0.22  -0.04  -0.01
  15   1    -0.02  -0.01  -0.00     0.00   0.02   0.00    -0.24  -0.05  -0.01
  16   1    -0.00  -0.00  -0.00     0.00   0.00   0.00     0.11   0.06   0.01
  17   1    -0.13  -0.28  -0.26     0.17   0.31   0.29     0.03   0.03   0.03
  18   1    -0.14  -0.32   0.20     0.18   0.35  -0.23     0.03   0.03  -0.02
  19   1     0.23   0.05   0.01    -0.29  -0.06  -0.01     0.02  -0.01   0.00
                     40                     41                     42
                        a                      a                      a 
 Frequencies --  1588.8447              1611.7229              3001.8993
 Red. masses --    11.3270                11.5599                 1.9293
 Frc consts  --     0.0000                 0.0000                 0.0000
 IR Inten    --    28.3014                60.0453                35.1763
 Raman Activ --     0.0000                 0.0000                 0.0000
 Depolar     --     0.0000                 0.0000                 0.0000
 Atom AN      X      Y      Z        X      Y      Z        X      Y      Z
   1   6    -0.02   0.03   0.00     0.05  -0.00   0.00     0.00   0.00  -0.00
   2   6     0.00  -0.52  -0.04    -0.29   0.01  -0.00    -0.00   0.00  -0.00
   3   6    -0.16   0.37   0.03     0.36  -0.18  -0.01     0.00   0.00  -0.00
   4   6    -0.16  -0.26  -0.02    -0.46  -0.08  -0.01    -0.00  -0.00   0.00
   5   6     0.14   0.47   0.04     0.31   0.04   0.01    -0.00  -0.00   0.01
   6   6     0.11  -0.31  -0.02    -0.38   0.15   0.01     0.00   0.00  -0.00
   7   6     0.08   0.21   0.02     0.47   0.07   0.01    -0.00  -0.00  -0.00
   8   8    -0.02   0.01   0.00     0.04  -0.00   0.00    -0.00   0.00   0.00
   9   6    -0.02  -0.02  -0.00    -0.05   0.01   0.00    -0.00  -0.02   0.29
  10   1     0.08  -0.05  -0.00     0.00   0.00  -0.00     0.00   0.00  -0.00
  11   1    -0.04   0.05  -0.03     0.01  -0.01   0.01    -0.00   0.00   0.00
  12   1    -0.04   0.05   0.04     0.01  -0.01  -0.01     0.00  -0.00   0.00
  13   1     0.11  -0.03  -0.00    -0.05   0.07   0.01     0.00   0.00  -0.00
  14   1     0.08  -0.03  -0.00     0.10   0.04   0.00     0.00  -0.00   0.00
  15   1    -0.03   0.03   0.00    -0.11  -0.05  -0.01    -0.00  -0.00   0.00
  16   1     0.06   0.03   0.00    -0.05  -0.03  -0.00     0.00  -0.00   0.00
  17   1    -0.05  -0.02  -0.04    -0.03  -0.02  -0.03     0.30   0.33  -0.50
  18   1    -0.05  -0.03   0.03    -0.03  -0.03   0.02    -0.29  -0.25  -0.56
  19   1     0.09   0.01   0.00     0.03   0.01   0.00    -0.00  -0.00   0.04
                     43                     44                     45
                        a                      a                      a 
 Frequencies --  3007.0312              3019.7193              3020.5617
 Red. masses --     1.9378                 1.5481                 1.5397
 Frc consts  --     0.0000                 0.0000                 0.0000
 IR Inten    --    38.3854                72.5683                36.3433
 Raman Activ --     0.0000                 0.0000                 0.0000
 Depolar     --     0.0000                 0.0000                 0.0000
 Atom AN      X      Y      Z        X      Y      Z        X      Y      Z
   1   6     0.01   0.02  -0.29     0.05  -0.18  -0.01    -0.03   0.11   0.01
   2   6     0.00   0.00  -0.01     0.00  -0.01  -0.00    -0.00   0.00   0.00
   3   6    -0.00   0.00  -0.00     0.00   0.00   0.00     0.00  -0.00  -0.00
   4   6     0.00  -0.00   0.00    -0.00  -0.00  -0.00    -0.00  -0.00  -0.00
   5   6    -0.00   0.00   0.00     0.00   0.00   0.00     0.01   0.00   0.00
   6   6     0.00  -0.00   0.00     0.00   0.00   0.00     0.00   0.00   0.00
   7   6    -0.00   0.00   0.00    -0.00   0.01   0.00     0.00  -0.01  -0.00
   8   8     0.00   0.00   0.00    -0.00   0.00   0.00    -0.00   0.00  -0.00
   9   6     0.00   0.00  -0.00     0.08   0.08   0.01     0.12   0.14   0.01
  10   1     0.00   0.01  -0.04     0.06   0.05   0.01    -0.04  -0.04  -0.00
  11   1    -0.16   0.35   0.58    -0.13   0.25   0.50     0.08  -0.15  -0.31
  12   1     0.14  -0.42   0.49    -0.12   0.35  -0.47     0.07  -0.21   0.29
  13   1     0.00   0.00  -0.00    -0.00  -0.00  -0.00    -0.00  -0.00  -0.00
  14   1    -0.00   0.00   0.00    -0.00   0.00   0.00     0.00  -0.01  -0.00
  15   1     0.00  -0.00  -0.00     0.01  -0.03  -0.00    -0.01   0.03   0.00
  16   1     0.00  -0.00  -0.00     0.00  -0.00  -0.00     0.00  -0.01  -0.00
  17   1    -0.00  -0.00   0.00    -0.15  -0.16   0.29    -0.25  -0.27   0.47
  18   1     0.00   0.00   0.00    -0.14  -0.11  -0.31    -0.23  -0.18  -0.51
  19   1    -0.00   0.00  -0.00     0.01  -0.01  -0.00     0.02  -0.03  -0.00
                     46                     47                     48
                        a                      a                      a 
 Frequencies --  3046.0049              3048.4455              3059.8717
 Red. masses --     1.6794                 1.6366                 1.8212
 Frc consts  --     0.0000                 0.0000                 0.0000
 IR Inten    --    53.8579                43.0379               118.9622
 Raman Activ --     0.0000                 0.0000                 0.0000
 Depolar     --     0.0000                 0.0000                 0.0000
 Atom AN      X      Y      Z        X      Y      Z        X      Y      Z
   1   6     0.02   0.02   0.00     0.15   0.18   0.02    -0.00  -0.01  -0.00
   2   6     0.00   0.00   0.00     0.01   0.01   0.00     0.01  -0.00  -0.00
   3   6    -0.00  -0.00  -0.00    -0.01  -0.01  -0.00    -0.02  -0.02  -0.00
   4   6    -0.01   0.01   0.00     0.00  -0.00  -0.00     0.00  -0.01  -0.00
   5   6     0.00  -0.01  -0.00    -0.00   0.00   0.00     0.00   0.00   0.00
   6   6    -0.00   0.00   0.00    -0.00  -0.00  -0.00    -0.01  -0.01  -0.00
   7   6     0.00  -0.01  -0.00     0.00  -0.01  -0.00     0.08  -0.26  -0.02
   8   8     0.00   0.00   0.00     0.00   0.00   0.00     0.00   0.00   0.00
   9   6     0.05  -0.24  -0.02    -0.01   0.02   0.00    -0.00   0.01   0.00
  10   1    -0.06  -0.08  -0.01    -0.52  -0.79  -0.08     0.02   0.03   0.00
  11   1     0.00   0.01   0.00    -0.00   0.07   0.07    -0.01   0.01   0.02
  12   1     0.00   0.01  -0.00     0.00   0.08  -0.06    -0.01   0.01  -0.02
  13   1     0.00   0.00   0.00     0.03   0.04   0.00     0.07   0.08   0.01
  14   1     0.02  -0.05  -0.00    -0.00   0.01   0.00    -0.01   0.02   0.00
  15   1    -0.01   0.03   0.00    -0.01   0.02   0.00    -0.29   0.91   0.07
  16   1     0.00  -0.00  -0.00    -0.00   0.00   0.00     0.00   0.00   0.00
  17   1    -0.01  -0.05   0.03     0.00   0.01  -0.01     0.00   0.00  -0.01
  18   1    -0.01  -0.05  -0.03     0.00   0.01   0.01     0.00   0.00   0.01
  19   1    -0.14   0.94   0.08     0.01  -0.10  -0.01     0.01  -0.03  -0.00
                     49                     50                     51
                        a                      a                      a 
 Frequencies --  3068.3742              3082.2301              3466.0742
 Red. masses --     1.7735                 1.8760                 1.8654
 Frc consts  --     0.0000                 0.0000                 0.0000
 IR Inten    --    61.8966               137.9218               126.0310
 Raman Activ --     0.0000                 0.0000                 0.0000
 Depolar     --     0.0000                 0.0000                 0.0000
 Atom AN      X      Y      Z        X      Y      Z        X      Y      Z
   1   6     0.00   0.01   0.00     0.01   0.00   0.00    -0.00  -0.00  -0.00
   2   6     0.01   0.00   0.00     0.01  -0.00  -0.00    -0.00  -0.00  -0.00
   3   6     0.11   0.12   0.01     0.15   0.16   0.02    -0.00   0.00   0.00
   4   6     0.06  -0.20  -0.01    -0.05   0.16   0.01     0.00  -0.00  -0.00
   5   6     0.01  -0.01  -0.00    -0.01   0.00  -0.00     0.00   0.00   0.00
   6   6    -0.00   0.00   0.00    -0.00  -0.00  -0.00    -0.00  -0.01  -0.00
   7   6     0.00  -0.01  -0.00     0.01  -0.03  -0.00     0.00   0.00   0.00
   8   8    -0.00  -0.00  -0.00     0.00   0.00   0.00     0.11  -0.21  -0.02
   9   6     0.00  -0.01  -0.00    -0.00   0.01   0.00     0.00   0.00   0.00
  10   1    -0.02  -0.02  -0.00    -0.02  -0.03  -0.00     0.00   0.00   0.00
  11   1     0.00   0.00  -0.00    -0.00   0.01   0.01     0.00   0.00  -0.00
  12   1     0.00   0.00   0.00    -0.00   0.01  -0.01     0.00   0.00   0.00
  13   1    -0.39  -0.43  -0.04    -0.50  -0.56  -0.05     0.00   0.00   0.00
  14   1    -0.22   0.73   0.05     0.17  -0.55  -0.04    -0.00   0.00   0.00
  15   1    -0.01   0.05   0.00    -0.03   0.09   0.01    -0.00  -0.00  -0.00
  16   1     0.00  -0.00  -0.00    -0.00   0.00   0.00    -0.41   0.88   0.06
  17   1     0.00  -0.00  -0.00     0.00   0.00  -0.00    -0.00  -0.00   0.00
  18   1     0.00  -0.00   0.00     0.00   0.00   0.01    -0.00  -0.00  -0.01
  19   1    -0.01   0.04   0.00     0.01  -0.03  -0.00    -0.00   0.00   0.00
