19
 energy: -26.300753712320 gnorm: 0.022556884574 xtb: 6.7.1 (edcfbbe)
C           -3.09403554977069        0.37058604177946       -0.00364577724246
C           -1.63128883512412        0.02530837129127       -0.01086934068797
C           -1.19315549659337       -1.29607083771018       -0.10429708192228
C            0.17091375899634       -1.58949658003521       -0.10761120119871
C            1.14013638190200       -0.59251571730262       -0.01872618992924
C            0.68547944042075        0.73179041847146        0.07483920553603
C           -0.67139422949604        1.03855392800181        0.07864062317240
O            1.64951813024888        1.71468706979468        0.16359904148155
C            2.60871689986192       -0.89770450279218       -0.01527838739093
H           -3.71031115779831       -0.52660870543457       -0.09993482053055
H           -3.37430396451673        0.87923491740174        0.92532920259777
H           -3.34357250972065        1.04782540301483       -0.82763706047491
H           -1.91922717917627       -2.10056661341248       -0.17559094947588
H            0.49603555836954       -2.62410071387111       -0.18133260835660
H           -0.98211545737362        2.07897392812828        0.15256843587819
H            1.21484540519850        2.57710080912655        0.22025476283859
H            3.13026542248081       -0.36884251855202       -0.81987727949127
H            3.07885463004093       -0.58658086798938        0.92413522132798
H            2.77657716259313       -1.96912592223596       -0.14289318103304
19
 energy: -26.301737016411 gnorm: 0.010061172462 xtb: 6.7.1 (edcfbbe)
C           -3.08043669960682        0.36830317348534       -0.00386888957202
C           -1.62152934432002        0.02413387379657       -0.01098853152496
C           -1.18643704662303       -1.29037877476747       -0.10401105186524
C            0.16811986734587       -1.58638628485232       -0.10692625498991
C            1.13130070034489       -0.59368219329518       -0.01776475051893
C            0.68695152053236        0.73076306409994        0.07572045541471
C           -0.66607345209909        1.03201852284212        0.07838611938499
O            1.64261295361714        1.71230299569729        0.16361935329897
C            2.59527679657549       -0.90017914060398       -0.01596269784016
H           -3.69139498666717       -0.52692313704624       -0.09994569480228
H           -3.35095140042326        0.87316304602981        0.92452860545059
H           -3.32059707355581        1.04169640630339       -0.82755248298271
H           -1.90909258611980       -2.09113783380286       -0.17477681994583
H            0.48790071749085       -2.61749556986153       -0.18064350586802
H           -0.98140412984364        2.06533425412165        0.15147806943684
H            1.21198031613570        2.57738091450697        0.22017918275163
H            3.09941142549953       -0.36070348094536       -0.81890475975890
H            3.05035855294695       -0.57813139562961        0.92207290587695
H            2.76594227931286       -1.96763053240419       -0.14296663684704
19
 energy: -26.301845524040 gnorm: 0.003846957430 xtb: 6.7.1 (edcfbbe)
C           -3.07592130237228        0.36882446748939       -0.00401250205992
C           -1.61837877177944        0.02225801011337       -0.01096259731561
C           -1.18601438549308       -1.29089643913958       -0.10381192594630
C            0.16619542174969       -1.58803005413872       -0.10677379494977
C            1.12638064322185       -0.59548620565185       -0.01759080570195
C            0.68892604245719        0.73057715607511        0.07607089417888
C           -0.66385341142445        1.02842076860441        0.07839022934646
O            1.64020860384110        1.70954936589944        0.16367682357384
C            2.59115362499661       -0.89882183665556       -0.01609266922127
H           -3.68513897077112       -0.52542362444415       -0.10000721784683
H           -3.34098571820187        0.87267889149978        0.92419428680437
H           -3.31054885937409        1.04110225090610       -0.82762447143350
H           -1.90820531782685       -2.09020649004317       -0.17483315482431
H            0.48454340674485       -2.61767537061211       -0.18041588560889
H           -0.98286689663958        2.05898548242015        0.15107360931334
H            1.21452596127164        2.57744214053892        0.22053278502138
H            3.08735952244582       -0.35523580208279       -0.81887254738301
H            3.04014870600747       -0.57187375215687        0.92110041565733
H            2.76441011168954       -1.96374105094754       -0.14236885650555
19
 energy: -26.301858797228 gnorm: 0.001435951850 xtb: 6.7.1 (edcfbbe)
C           -3.07573020797954        0.36969274985065       -0.00409561061927
C           -1.61823894200337        0.02104784409731       -0.01106335586231
C           -1.18695489829721       -1.29246626438737       -0.10390738502571
C            0.16570086500113       -1.58971090591535       -0.10673168371948
C            1.12490080657130       -0.59652950496311       -0.01750812789717
C            0.68976341451232        0.73058801957602        0.07631981160969
C           -0.66361282950211        1.02718766578941        0.07846383271212
O            1.64012134797168        1.70772093713267        0.16379757448146
C            2.59112967538849       -0.89760039045131       -0.01615042558897
H           -3.68576350375877       -0.52383848743375       -0.10010100441680
H           -3.33927154773323        0.87384037313414        0.92414009848839
H           -3.30859005584721        1.04220492003597       -0.82774391697083
H           -1.90947387705015       -2.09162512771335       -0.17492652845203
H            0.48439346388727       -2.61913583164590       -0.18030761347272
H           -0.98442962151808        2.05734879343045        0.15107890807915
H            1.21759087165080        2.57724167744618        0.22087167113071
H            3.08498279894599       -0.35296671333442       -0.81938008012261
H            3.03877743274186       -0.56865970539494        0.92074412976617
H            2.76664321756187       -1.96189214157897       -0.14182767902110
19
 energy: -26.301861869799 gnorm: 0.000909809690 xtb: 6.7.1 (edcfbbe)
C           -3.07618221923947        0.37065112902533       -0.00427668040745
C           -1.61860940601214        0.01957967287294       -0.01108115674531
C           -1.18816742785071       -1.29444418540541       -0.10391893908075
C            0.16544958696373       -1.59142338152836       -0.10668232762183
C            1.12378915428381       -0.59757241475854       -0.01747451968401
C            0.69014433203359        0.73058401960726        0.07660637276238
C           -0.66389571022203        1.02611050417913        0.07865757976005
O            1.64055973947979        1.70540006919480        0.16408286758685
C            2.59164083011142       -0.89609252859319       -0.01628780635069
H           -3.68822148433634       -0.52175873176889       -0.10030605460630
H           -3.33893456832782        0.87554414886263        0.92397366471552
H           -3.30773620783603        1.04374194986967       -0.82805006592941
H           -1.91102749802497       -2.09369172945014       -0.17503660319495
H            0.48497959779320       -2.62082581907298       -0.18020122711149
H           -0.98647685956574        2.05617161579217        0.15132998127212
H            1.22198908067430        2.57682922542027        0.22155231979934
H            3.08374913392278       -0.35135393518188       -0.82062801898852
H            3.03888291491329       -0.56483254084906        0.92010544389044
H            2.77000542178233       -1.96016916054140       -0.14069221496730
19
 energy: -26.301862570754 gnorm: 0.000149982800 xtb: 6.7.1 (edcfbbe)
C           -3.07610802314737        0.37036691129417       -0.00431642006312
C           -1.61862043526424        0.01981976735873       -0.01105728069374
C           -1.18788925026615       -1.29400693369601       -0.10390638364534
C            0.16556086985965       -1.59092113143546       -0.10667783209674
C            1.12412241098219       -0.59731868901148       -0.01746239448862
C            0.68977380443023        0.73056085643112        0.07665008355014
C           -0.66400010637260        1.02639723484660        0.07872703253806
O            1.64060933731295        1.70572769557783        0.16419448383172
C            2.59147512517869       -0.89633650403729       -0.01634774846676
H           -3.68801004809347       -0.52215181900253       -0.10035388260216
H           -3.33928144602813        0.87521746021040        0.92389116340488
H           -3.30802365491179        1.04336694330069       -0.82811772679217
H           -1.91057556931914       -2.09330450924428       -0.17498546792117
H            0.48497918936395       -2.62036549735804       -0.18023455309375
H           -0.98613060246023        2.05649224125919        0.15143949077285
H            1.22155617004015        2.57686513123891        0.22170191731005
H            3.08401552046472       -0.35231905287140       -0.82097030630612
H            3.03920788470178       -0.56501597310294        0.91982681900207
H            2.76927723407180       -1.96062622408387       -0.14032837914139
19
 energy: -26.301862694497 gnorm: 0.000050130271 xtb: 6.7.1 (edcfbbe)
C           -3.07606157015907        0.37033605385265       -0.00439875288706
C           -1.61862572188685        0.01978367869910       -0.01101814034343
C           -1.18788052754519       -1.29398320558665       -0.10389300547813
C            0.16555997602430       -1.59089474350980       -0.10668111282676
C            1.12412180682957       -0.59734214279426       -0.01743206776814
C            0.68966650594993        0.73053362776379        0.07677392324543
C           -0.66401909470106        1.02640156394555        0.07885463835555
O            1.64063779133265        1.70561391822990        0.16440610655349
C            2.59138797246071       -0.89628952658027       -0.01643589847254
H           -3.68796910254250       -0.52216668014575       -0.10043014877210
H           -3.33929258596413        0.87524505612981        0.92374809119892
H           -3.30789063241248        1.04328009725984       -0.82825867557541
H           -1.91051135137653       -2.09329684154845       -0.17502635852059
H            0.48493072039883       -2.62034101034335       -0.18029183616214
H           -0.98615661280752        2.05645372796549        0.15162495375478
H            1.22180997526689        2.57684122275666        0.22204681389873
H            3.08368317580014       -0.35297697437403       -0.82168221711094
H            3.03937343706774       -0.56407007643360        0.91928688574380
H            2.76917424880756       -1.96067983761230       -0.13952058373477
19
 energy: -26.301862942405 gnorm: 0.000203100715 xtb: 6.7.1 (edcfbbe)
C           -3.07604772019759        0.37031874617829       -0.00461333613880
C           -1.61866835773444        0.01970452825648       -0.01092084283764
C           -1.18790669442764       -1.29396446980543       -0.10394621750114
C            0.16555517238089       -1.59089848308661       -0.10675172078871
C            1.12410774952936       -0.59743054938664       -0.01731224813443
C            0.68949613396456        0.73045475154382        0.07720424369380
C           -0.66405684511288        1.02638358316959        0.07927556193093
O            1.64072611706788        1.70534071615244        0.16501202529486
C            2.59130214926031       -0.89617205223621       -0.01666623157780
H           -3.68799997688459       -0.52215706708373       -0.10055738890428
H           -3.33944774625294        0.87548878931202        0.92333543257263
H           -3.30764961483204        1.04305299333495       -0.82870287018178
H           -1.91045960011065       -2.09331764931609       -0.17519704142123
H            0.48483174283113       -2.62035779537732       -0.18054279141837
H           -0.98626290820622        2.05636629120883        0.15222765077738
H            1.22236442862757        2.57675309816419        0.22296296176247
H            3.08287996755503       -0.35497594106844       -0.82379778128805
H            3.04002378269232       -0.56128490702051        0.91774031315816
H            2.76915063039293       -1.96085667526528       -0.13707710389932
19
 energy: -26.301863167712 gnorm: 0.000247221975 xtb: 6.7.1 (edcfbbe)
C           -3.07605749172250        0.37033601826917       -0.00478122241278
C           -1.61869035743788        0.01966596675164       -0.01081892825690
C           -1.18793479446862       -1.29396893469100       -0.10402831531157
C            0.16554657292333       -1.59092824196355       -0.10684988750522
C            1.12408537116010       -0.59748853956866       -0.01722800563246
C            0.68944526092562        0.73040224992123        0.07755121723963
C           -0.66406683796160        1.02635579526585        0.07965747345699
O            1.64076335456185        1.70517612467537        0.16559319612931
C            2.59129837211739       -0.89609906647838       -0.01684939045600
H           -3.68802616144849       -0.52214833436240       -0.10053242617603
H           -3.33957776107817        0.87583087582235        0.92295066084130
H           -3.30750478014258        1.04279686549057       -0.82913866219819
H           -1.91046763652300       -2.09332654037578       -0.17548561568332
H            0.48477329976297       -2.62038971997039       -0.18084119193412
H           -0.98632126156046        2.05630483549926        0.15282835167779
H            1.22259397839781        2.57665721811398        0.22379589226105
H            3.08222171528122       -0.35696521105995       -0.82578115302285
H            3.04069017331944       -0.55869414547921        0.91632272107946
H            2.76916739443659       -1.96106930818575       -0.13469209899741
19
 energy: -26.301863423106 gnorm: 0.000183136014 xtb: 6.7.1 (edcfbbe)
C           -3.07606894695370        0.37036452644201       -0.00490554113694
C           -1.61868455086151        0.01966931233330       -0.01075243653847
C           -1.18794403295147       -1.29396726098148       -0.10422825403918
C            0.16554201495830       -1.59094571989855       -0.10704977246432
C            1.12406468090141       -0.59750962267063       -0.01714438816178
C            0.68948711436069        0.73036587912480        0.07794886976804
C           -0.66405677648087        1.02631247392587        0.08006368488002
O            1.64075584638185        1.70512718752187        0.16617246599260
C            2.59133097458200       -0.89608326503047       -0.01699362700028
H           -3.68803349554962       -0.52216552576522       -0.10027899775029
H           -3.33964504305397        0.87632687739650        0.92255355592156
H           -3.30744181831903        1.04241741113370       -0.82962122425872
H           -1.91049800066970       -2.09330182761776       -0.17585472044348
H            0.48476349770841       -2.62039576686533       -0.18122014265809
H           -0.98632465595985        2.05625445245635        0.15345576576547
H            1.22252465346226        2.57657197080148        0.22453190611445
H            3.08165493717476       -0.35904849865665       -0.82769558937096
H            3.04134525365473       -0.55620855553820        0.91496032758614
H            2.76916675815832       -1.96133614043726       -0.13226926710710
19
 energy: -26.301863756800 gnorm: 0.000068412254 xtb: 6.7.1 (edcfbbe)
C           -3.07607570986543        0.37039607912139       -0.00499839571339
C           -1.61866303979970        0.01970170120800       -0.01069126995811
C           -1.18793490318922       -1.29395890051248       -0.10456839435202
C            0.16553967284940       -1.59093996489514       -0.10734214974888
C            1.12406072942090       -0.59749034313822       -0.01710857628586
C            0.68958219189857        0.73034753462007        0.07829425279658
C           -0.66404116378763        1.02626036027415        0.08050643028660
O            1.64070726161826        1.70516069152335        0.16700770101389
C            2.59138449660990       -0.89611519025354       -0.01712626541402
H           -3.68803057483859       -0.52223392487907       -0.09953411061440
H           -3.33958417266308        0.87721548963987        0.92200996644763
H           -3.30752356795014        1.04168839644775       -0.83032555987912
H           -1.91053475624155       -2.09322508804830       -0.17664050413047
H            0.48481206418937       -2.62034862123627       -0.18189040436729
H           -0.98627182477494        2.05620596862931        0.15432360690722
H            1.22220452617409        2.57647022901744        0.22561847244412
H            3.08098555119106       -0.36210383985568       -0.83028050698464
H            3.04222875858515       -0.55279857723086        0.91315496975448
H            2.76909287111661       -1.96178409275742       -0.12873664710364
19
 energy: -26.301864088254 gnorm: 0.000084188356 xtb: 6.7.1 (edcfbbe)
C           -3.07608362961208        0.37042093067056       -0.00504657100956
C           -1.61864098910639        0.01975130796860       -0.01079966693337
C           -1.18791235741548       -1.29391838461008       -0.10531538374394
C            0.16554358479056       -1.59089135395792       -0.10800782038685
C            1.12406774174691       -0.59745282054699       -0.01710643120227
C            0.68967117901804        0.73031356995725        0.07890606794977
C           -0.66403362829495        1.02620041279072        0.08106732014141
O            1.64063972090532        1.70520723984399        0.16802116296041
C            2.59143646218383       -0.89616293862079       -0.01725161655019
H           -3.68804257856111       -0.52234362470089       -0.09832628212718
H           -3.33934506557642        0.87840848485210        0.92139289370351
H           -3.30778301462574        1.04067284014277       -0.83116028921661
H           -1.91056468544796       -2.09312730962145       -0.17761346668461
H            0.48489077674426       -2.62027270326739       -0.18264905727523
H           -0.98620745525910        2.05615972523431        0.15525040432986
H            1.22182437436739        2.57635502101306        0.22699749883089
H            3.08024992801651       -0.36598284898394       -0.83341144812512
H            3.04324864344035       -0.54854834459687        0.91094816807811
H            2.76897940322907       -1.96234129589271       -0.12422286764035
19
 energy: -26.301864351490 gnorm: 0.000151864787 xtb: 6.7.1 (edcfbbe)
C           -3.07608884741211        0.37043463117255       -0.00507171655378
C           -1.61862789794851        0.01977629866673       -0.01081368082582
C           -1.18789312756695       -1.29388402154882       -0.10586668937376
C            0.16554893244341       -1.59085269544759       -0.10850080787819
C            1.12407404730545       -0.59743064962155       -0.01710525876071
C            0.68972497519140        0.73029119191281        0.07926347587322
C           -0.66403121033763        1.02615274784118        0.08150567057620
O            1.64059257289264        1.70520683508481        0.16898883939928
C            2.59146393749813       -0.89619547641694       -0.01731651847709
H           -3.68806508099979       -0.52247150836552       -0.09691080242342
H           -3.33902938392994        0.87974257401918        0.92072784795044
H           -3.30809358042927        1.03950943540145       -0.83207072913728
H           -1.91057151459382       -2.09302039259573       -0.17878217219891
H            0.48495430277640       -2.62017446787923       -0.18374442731268
H           -0.98617658955198        2.05609640750451        0.15620682067982
H            1.22158763955346        2.57623689519532        0.22847607032225
H            3.07948410801948       -0.36986742716492       -0.83646897566805
H            3.04421426031269       -0.54424300016323        0.90877733992470
H            2.76887086731996       -1.96285946992067       -0.11962167101755
19
 energy: -26.301864555390 gnorm: 0.000146562319 xtb: 6.7.1 (edcfbbe)
C           -3.07608286826690        0.37043227414568       -0.00506810363063
C           -1.61862638568863        0.01977802496956       -0.01087735912936
C           -1.18788237051876       -1.29383723479605       -0.10650565486115
C            0.16555403051791       -1.59080556995580       -0.10911156943264
C            1.12407525639604       -0.59742763568296       -0.01717413249009
C            0.68971501004319        0.73025840743634        0.07962408758465
C           -0.66403892540817        1.02611830644741        0.08190084290054
O            1.64057868551351        1.70513208833599        0.16987063473884
C            2.59145602631674       -0.89618729930470       -0.01738280417916
H           -3.68808482032504       -0.52259405761134       -0.09553510409020
H           -3.33871463974710        0.88099451568696        0.92011988684891
H           -3.30836488809884        1.03838399977901       -0.83290330303829
H           -1.91055451084822       -2.09294311222365       -0.17978038222644
H            0.48496878314301       -2.62010615243159       -0.18458713506801
H           -0.98618368792356        2.05602804360089        0.15702565866121
H            1.22156936688850        2.57612260648843        0.22990347848768
H            3.07876860527344       -0.37334448500688       -0.83919803629716
H            3.04500635722324       -0.54029490929108        0.90679207393562
H            2.76877938605267       -1.96325990291190       -0.11544046361562
19
 energy: -26.301864724475 gnorm: 0.000092309575 xtb: 6.7.1 (edcfbbe)
C           -3.07607950762413        0.37042537648126       -0.00510405320883
C           -1.61863732916777        0.01976156641443       -0.01094868073131
C           -1.18788175940223       -1.29378954569076       -0.10709541143237
C            0.16555997016484       -1.59076911461783       -0.10963014316750
C            1.12407055589968       -0.59745038821816       -0.01718180591112
C            0.68966055239538        0.73020878691918        0.08007429369595
C           -0.66405595464236        1.02608586862469        0.08235890443630
O            1.64059241606628        1.70499290608276        0.17074951067641
C            2.59143473493844       -0.89614908674196       -0.01747992662284
H           -3.68812385816514       -0.52271953253363       -0.09409270365554
H           -3.33838548356046        0.88234452426361        0.91941675367588
H           -3.30864300368863        1.03716811286253       -0.83384160212833
H           -1.91052560529399       -2.09287858800814       -0.18077212554979
H            0.48495503779790       -2.62004524728677       -0.18552601334458
H           -0.98622506077683        2.05594966838834        0.15787434928574
H            1.22170891710329        2.57599729163159        0.23138124175168
H            3.07798955209110       -0.37682449331780       -0.84198996933221
H            3.04580744963183       -0.53624835017676        0.90471490098882
H            2.76871678677581       -1.96361184740224       -0.11123490432771
19
 energy: -26.301864843471 gnorm: 0.000030390672 xtb: 6.7.1 (edcfbbe)
C           -3.07607071334484        0.37041834114564       -0.00516957743331
C           -1.61865182710564        0.01973002502320       -0.01092983453066
C           -1.18788379539289       -1.29373958403763       -0.10767596348334
C            0.16556753274163       -1.59072721649983       -0.11025262103163
C            1.12406407774363       -0.59747983052851       -0.01724676940159
C            0.68958945703094        0.73015654765396        0.08048354317487
C           -0.66407464488962        1.02605199759817        0.08284916208055
O            1.64061488472598        1.70481959776403        0.17173352298717
C            2.59140214936824       -0.89609523212379       -0.01760908373683
H           -3.68815888124801       -0.52285164145977       -0.09255484292993
H           -3.33807107429564        0.88385560090274        0.91858313847263
H           -3.30888620267067        1.03580478444006       -0.83493535053469
H           -1.91048860587732       -2.09281755344342       -0.18176194842968
H            0.48492166653884       -2.61999530176428       -0.18639292532839
H           -0.98627909415353        2.05585558932780        0.15883919232449
H            1.22190782295725        2.57585311649850        0.23305788205225
H            3.07710309306314       -0.38050512520298       -0.84498355270175
H            3.04667482651608       -0.53193390089707        0.90245425201703
H            2.76865773883547       -1.96395230672247       -0.10681560846850
19
 energy: -26.301864893860 gnorm: 0.000052098982 xtb: 6.7.1 (edcfbbe)
C           -3.07606748840454        0.37041711269902       -0.00525725663644
C           -1.61866276441382        0.01971266510976       -0.01100772212991
C           -1.18788666406608       -1.29369852617733       -0.10818713547096
C            0.16557227982063       -1.59070506366168       -0.11061702012749
C            1.12405571741104       -0.59750786741892       -0.01719847724923
C            0.68953656868423        0.73010596664817        0.08097257072097
C           -0.66409048398028        1.02601802131998        0.08332597978959
O            1.64062774908857        1.70467748420612        0.17266229599993
C            2.59138385149490       -0.89604648391289       -0.01778325358509
H           -3.68819660328452       -0.52296359604790       -0.09119061622463
H           -3.33781875812234        0.88524758436231        0.91778229940938
H           -3.30908671986009        1.03455900139665       -0.83596486321996
H           -1.91046321020780       -2.09276485708759       -0.18262581951010
H            0.48489983897509       -2.61994949311744       -0.18719085613701
H           -0.98632456566148        2.05577516578140        0.15969951589912
H            1.22204654357798        2.57572356847481        0.23458143660402
H            3.07627242926100       -0.38383383736309       -0.84774800647030
H            3.04752644344321       -0.52807935696744        0.90030956944745
H            2.76861424678732       -1.96423958056960       -0.10289002601065
