
                                 *****************
                                 * O   R   C   A *
                                 *****************

                                            #,                                       
                                            ###                                      
                                            ####                                     
                                            #####                                    
                                            ######                                   
                                           ########,                                 
                                     ,,################,,,,,                         
                               ,,#################################,,                 
                          ,,##########################################,,             
                       ,#########################################, ''#####,          
                    ,#############################################,,   '####,        
                  ,##################################################,,,,####,       
                ,###########''''           ''''###############################       
              ,#####''   ,,,,##########,,,,          '''####'''          '####       
            ,##' ,,,,###########################,,,                        '##       
           ' ,,###''''                  '''############,,,                           
         ,,##''                                '''############,,,,        ,,,,,,###''
      ,#''                                            '''#######################'''  
     '                                                          ''''####''''         
             ,#######,   #######,   ,#######,      ##                                
            ,#'     '#,  ##    ##  ,#'     '#,    #''#        ,####,   ,####,        
            ##       ##  ##   ,#'  ##            #'  '#       #'       #'  '#        
            ##       ##  #######   ##           ,######,      #####,   #    #        
            '#,     ,#'  ##    ##  '#,     ,#' ,#      #,     #,   #   #,  ,#        
             '#######'   ##     ##  '#######'  #'      '#     '####' # '####'        



                #########################################################
                #                        -***-                          #
                #          Department of theory and spectroscopy        #
                #                                                       #
                #                      Frank Neese                      #
                #                                                       #
                #     Directorship, Architecture, Infrastructure        #
                #                    SHARK, DRIVERS                     #
                #        Core code/Algorithms in most modules           #
                #                                                       #
                #        Max Planck Institute fuer Kohlenforschung      #
                #                Kaiser Wilhelm Platz 1                 #
                #                 D-45470 Muelheim/Ruhr                 #
                #                      Germany                          #
                #                                                       #
                #                  All rights reserved                  #
                #                        -***-                          #
                #########################################################


                         Program Version 6.0.0  -   RELEASE  -


 With contributions from (in alphabetic order):
   Daniel Aravena         : Magnetic Suceptibility
   Michael Atanasov       : Ab Initio Ligand Field Theory (pilot matlab implementation)
   Alexander A. Auer      : GIAO ZORA, VPT2 properties, NMR spectrum
   Ute Becker             : All parallelization in ORCA, NUMFREQ, NUMCALC
   Giovanni Bistoni       : ED, misc. LED, open-shell LED, HFLD
   Martin Brehm           : Molecular dynamics
   Dmytro Bykov           : pre 5.0 version of the SCF Hessian
   Marcos Casanova-Páez   : Triplet and SCS-CIS(D). UHF-(DLPNO)-IP/EA/STEOM-CCSD. UHF-CVS-IP/STEOM-CCSD
   Vijay G. Chilkuri      : MRCI spin determinant printing, contributions to CSF-ICE
   Pauline Colinet        : FMM embedding
   Dipayan Datta          : RHF DLPNO-CCSD density
   Achintya Kumar Dutta   : EOM-CC, STEOM-CC
   Nicolas Foglia         : Exact transition moments, OPA infrastructure, MCD improvements
   Dmitry Ganyushin       : Spin-Orbit,Spin-Spin,Magnetic field MRCI
   Miquel Garcia          : C-PCM and meta-GGA Hessian, CCSD/C-PCM, Gaussian charge scheme
   Tiago L. C. Gouveia    : GS-ROHF, GS-ROCIS
   Yang Guo               : DLPNO-NEVPT2, F12-NEVPT2, CIM, IAO-localization
   Andreas Hansen         : Spin unrestricted coupled pair/coupled cluster methods
   Ingolf Harden          : AUTO-CI MPn and infrastructure 
   Benjamin Helmich-Paris : MC-RPA, TRAH-(SCF,CASSCF), AVAS, COSX integrals, SCF dyn. polar.
   Lee Huntington         : MR-EOM, pCC
   Robert Izsak           : Overlap fitted RIJCOSX, COSX-SCS-MP3, EOM
   Riya Kayal             : Wick's Theorem for AUTO-CI, AUTO-CI UHF-CCSDT
   Emily Kempfer          : AUTO-CI, RHF CISDT and CCSDT
   Christian Kollmar      : KDIIS, OOCD, Brueckner-CCSD(T), CCSD density, CASPT2, CASPT2-K, improved NEVPT2
   Axel Koslowski         : Symmetry handling
   Simone Kossmann        : Meta GGA functionals, TD-DFT gradient, OOMP2, (MP2 Hessian; deprecated post 5.0)
   Lucas Lang             : DCDCAS
   Marvin Lechner         : AUTO-CI (C++ implementation), FIC-MRCC
   Spencer Leger          : CASSCF response
   Dagmar Lenk            : GEPOL surface, SMD, ORCA-2-JSON
   Dimitrios Liakos       : Extrapolation schemes; Compound Job, initial MDCI parallelization
   Dimitrios Manganas     : Further ROCIS development; embedding schemes. LFT, Crystal Embedding
   Dimitrios Pantazis     : SARC Basis sets
   Anastasios Papadopoulos: AUTO-CI, single reference methods and gradients
   Taras Petrenko         : pre 6.0 DFT Hessian and TD-DFT gradient, (ASA, deprecated), ECA, 1-Electron XAS/XES, NRVS
   Peter Pinski           : DLPNO-MP2, DLPNO-MP2 Gradient
   Christoph Reimann      : Effective Core Potentials
   Marius Retegan         : Local ZFS, SOC
   Christoph Riplinger    : Optimizer, TS searches, QM/MM, DLPNO-CCSD(T), (RO)-DLPNO pert. Triples
   Michael Roemelt        : Original ROCIS implementation
   Masaaki Saitow         : Open-shell DLPNO-CCSD energy and density
   Barbara Sandhoefer     : DKH picture change effects
   Kantharuban Sivalingam : CASSCF convergence/infrastructure, NEVPT2 and variants, FIC-MRCI
   Bernardo de Souza      : ESD, SOC TD-DFT
   Georgi Stoychev        : AutoAux, RI-MP2 NMR, DLPNO-MP2 response, X2C
   Van Anh Tran           : RI-MP2 g-tensors
   Willem Van den Heuvel  : Paramagnetic NMR
   Zikuan Wang            : NOTCH, Electric field optimization 
   Frank Wennmohs         : Technical directorship and infrastructure
   Hang Xu                : AUTO-CI-Response properties 


 We gratefully acknowledge several colleagues who have allowed us to
 interface, adapt or use parts of their codes:
   Stefan Grimme, W. Hujo, H. Kruse, P. Pracht,  : VdW corrections, initial TS optimization,
                  C. Bannwarth, S. Ehlert,         DFT functionals, gCP, sTDA/sTD-DF
                  L. Wittmann, M. Mueller
   Ed Valeev, F. Pavosevic, A. Kumar             : LibInt (2-el integral package), F12 methods
   Garnet Chan, S. Sharma, J. Yang, R. Olivares  : DMRG
   Ulf Ekstrom                                   : XCFun DFT Library
   Mihaly Kallay                                 : mrcc  (arbitrary order and MRCC methods)
   Frank Weinhold                                : gennbo (NPA and NBO analysis)
   Simon Mueller                                 : openCOSMO-RS
   Christopher J. Cramer and Donald G. Truhlar   : smd solvation model
   Lars Goerigk                                  : TD-DFT with DH, B97 family of functionals
   V. Asgeirsson, H. Jonsson                     : NEB implementation
   FAccTs GmbH                                   : IRC, NEB, NEB-TS, DLPNO-Multilevel, CI-OPT
                                                   MM, QMMM, 2- and 3-layer-ONIOM, Crystal-QMMM,
                                                   LR-CPCM, SF, NACMEs, symmetry and pop. for TD-DFT,
                                                   nearIR, NL-DFT gradient (VV10), updates on ESD,
                                                   ML-optimized integration grids, MBIS, APM,
                                                   GOAT, DOCKER, SOLVATOR, interface openCOSMO-RS
   S Lehtola, MJT Oliveira, MAL Marques          : LibXC Library
   Liviu Ungur et al                             : ANISO software


 Your calculation uses the libint2 library for the computation of 2-el integrals
 For citations please refer to: http://libint.valeyev.net

 Your ORCA version has been built with support for libXC version: 6.2.2
 For citations please refer to: https://libxc.gitlab.io

 This ORCA versions uses:
   CBLAS   interface :  Fast vector & matrix operations
   LAPACKE interface :  Fast linear algebra routines
   SCALAPACK package :  Parallel linear algebra routines
   Shared memory     :  Shared parallel matrices
   BLAS/LAPACK       :  OpenBLAS 0.3.27  USE64BITINT DYNAMIC_ARCH NO_AFFINITY SkylakeX SINGLE_THREADED
        Core in use  :  SkylakeX
   Copyright (c) 2011-2014, The OpenBLAS Project


Your calculation utilizes the geometrical counterpoise correction gCP
Please cite in your paper:
H.Kruse, S. Grimme J.Chem.Phys., 136, (2012), 154101 
   

Your calculation utilizes the atom-pairwise dispersion correction
based on EEQ partial charges (D4)


================================================================================

----- Orbital basis set information -----
Your calculation utilizes the basis: def2-SV(P)
   F. Weigend and R. Ahlrichs, Phys. Chem. Chem. Phys. 7, 3297 (2005).

----- AuxJ basis set information -----
Your calculation utilizes the auxiliary basis: def2/J
   F. Weigend, Phys. Chem. Chem. Phys. 8, 1057 (2006).

================================================================================
                                        WARNINGS
                       Please study these warnings very carefully!
================================================================================


================================================================================
                                       INPUT FILE
================================================================================
NAME = sp.inp
|  1> ! pbe def2-sv(p) def2/J RI DEFGRID1 loosescf d4 GCP(DFT/SV(P)) printgap
|  2> %output
|  3>     printlevel normal
|  4> end
|  5> * xyz 0 1
|  6> C -0.3372886487 -1.2080883549 4.56051e-05
|  7> C 1.0409586624 -1.2067077315 -3.53749e-05
|  8> C 1.7425208907 -0.0008577238 -3.02025e-05
|  9> C 1.039508711 1.206913973 1.3852e-06
| 10> C -0.3360916275 1.210431578 5.75304e-05
| 11> C -1.0375910199 0.0003752975 7.35522e-05
| 12> C -2.4445237875 -0.0006157693 2.20323e-05
| 13> N -3.5944646148 -0.0035436443 -9.14665e-05
| 14> O 3.0880242966 0.0552452711 -1.69882e-05
| 15> H -0.8824256053 -2.1395420329 0.0001809658
| 16> H 1.5760561214 -2.1442527639 1.02733e-05
| 17> H 1.5991339103 2.12824982 -0.0001707836
| 18> H -0.8805046383 2.1420768988 3.999e-06
| 19> H 3.4825711107 -0.8315096613 -8.67926e-05
| 20> *
| 21> 
| 22>                          ****END OF INPUT****
================================================================================

                       ****************************
                       * Single Point Calculation *
                       ****************************

---------------------------------
CARTESIAN COORDINATES (ANGSTROEM)
---------------------------------
  C     -0.337289   -1.208088    0.000046
  C      1.040959   -1.206708   -0.000035
  C      1.742521   -0.000858   -0.000030
  C      1.039509    1.206914    0.000001
  C     -0.336092    1.210432    0.000058
  C     -1.037591    0.000375    0.000074
  C     -2.444524   -0.000616    0.000022
  N     -3.594465   -0.003544   -0.000091
  O      3.088024    0.055245   -0.000017
  H     -0.882426   -2.139542    0.000181
  H      1.576056   -2.144253    0.000010
  H      1.599134    2.128250   -0.000171
  H     -0.880505    2.142077    0.000004
  H      3.482571   -0.831510   -0.000087

----------------------------
CARTESIAN COORDINATES (A.U.)
----------------------------
  NO LB      ZA    FRAG     MASS         X           Y           Z
   0 C     6.0000    0    12.011   -0.637383   -2.282956    0.000086
   1 C     6.0000    0    12.011    1.967127   -2.280347   -0.000067
   2 C     6.0000    0    12.011    3.292887   -0.001621   -0.000057
   3 C     6.0000    0    12.011    1.964387    2.280737    0.000003
   4 C     6.0000    0    12.011   -0.635121    2.287384    0.000109
   5 C     6.0000    0    12.011   -1.960763    0.000709    0.000139
   6 C     6.0000    0    12.011   -4.619480   -0.001164    0.000042
   7 N     7.0000    0    14.007   -6.792554   -0.006697   -0.000173
   8 O     8.0000    0    15.999    5.835520    0.104398   -0.000032
   9 H     1.0000    0     1.008   -1.667543   -4.043148    0.000342
  10 H     1.0000    0     1.008    2.978314   -4.052050    0.000019
  11 H     1.0000    0     1.008    3.021925    4.021809   -0.000323
  12 H     1.0000    0     1.008   -1.663913    4.047939    0.000008
  13 H     1.0000    0     1.008    6.581106   -1.571326   -0.000164

--------------------------------
INTERNAL COORDINATES (ANGSTROEM)
--------------------------------
 C      0   0   0     0.000000000000     0.00000000     0.00000000
 C      1   0   0     1.378248004981     0.00000000     0.00000000
 C      2   1   0     1.395085589229   120.24819277     0.00000000
 C      3   2   1     1.397475794923   119.60664095     0.00000000
 C      4   3   2     1.375604837146   120.34907387     0.00000000
 C      1   2   3     1.396713217186   120.03481518     0.00000000
 C      6   1   2     1.406933117605   120.05184954   179.99368700
 N      7   6   1     1.149944560240   179.89441916   358.07190328
 O      3   2   1     1.346672551699   122.57845771   179.99544763
 H      1   2   3     1.079249866358   120.39586859   180.00856549
 H      2   1   3     1.079499875169   119.65787539   179.99308597
 H      4   3   2     1.077979654864   118.52267942   180.01062731
 H      5   4   3     1.079049828767   120.44667067   180.00480318
 H      9   3   2     0.970567619244   111.59821533     0.00000000

---------------------------
INTERNAL COORDINATES (A.U.)
---------------------------
 C      0   0   0     0.000000000000     0.00000000     0.00000000
 C      1   0   0     2.604511274037     0.00000000     0.00000000
 C      2   1   0     2.636329697023   120.24819277     0.00000000
 C      3   2   1     2.640846531188   119.60664095     0.00000000
 C      4   3   2     2.599516410703   120.34907387     0.00000000
 C      1   2   3     2.639405468109   120.03481518     0.00000000
 C      6   1   2     2.658718281018   120.05184954   179.99368700
 N      7   6   1     2.173080288046   179.89441916   358.07190328
 O      3   2   1     2.544842314780   122.57845771   179.99544763
 H      1   2   3     2.039486677487   120.39586859   180.00856549
 H      2   1   3     2.039959125672   119.65787539   179.99308597
 H      4   3   2     2.037086325632   118.52267942   180.01062731
 H      5   4   3     2.039108661225   120.44667067   180.00480318
 H      9   3   2     1.834106994823   111.59821533     0.00000000

---------------------
BASIS SET INFORMATION
---------------------
There are 4 groups of distinct atoms

 Group   1 Type C   : 7s4p1d contracted to 3s2p1d pattern {511/31/1}
 Group   2 Type N   : 7s4p1d contracted to 3s2p1d pattern {511/31/1}
 Group   3 Type O   : 7s4p1d contracted to 3s2p1d pattern {511/31/1}
 Group   4 Type H   : 4s contracted to 2s pattern {31}

Atom   0C    basis set group =>   1
Atom   1C    basis set group =>   1
Atom   2C    basis set group =>   1
Atom   3C    basis set group =>   1
Atom   4C    basis set group =>   1
Atom   5C    basis set group =>   1
Atom   6C    basis set group =>   1
Atom   7N    basis set group =>   2
Atom   8O    basis set group =>   3
Atom   9H    basis set group =>   4
Atom  10H    basis set group =>   4
Atom  11H    basis set group =>   4
Atom  12H    basis set group =>   4
Atom  13H    basis set group =>   4
---------------------------------
AUXILIARY/J BASIS SET INFORMATION
---------------------------------
There are 4 groups of distinct atoms

 Group   1 Type C   : 12s5p4d2f1g contracted to 6s4p3d1f1g pattern {711111/2111/211/2/1}
 Group   2 Type N   : 12s5p4d2f1g contracted to 6s4p3d1f1g pattern {711111/2111/211/2/1}
 Group   3 Type O   : 12s5p4d2f1g contracted to 6s4p3d1f1g pattern {711111/2111/211/2/1}
 Group   4 Type H   : 5s2p1d contracted to 3s1p1d pattern {311/2/1}

Atom   0C    basis set group =>   1
Atom   1C    basis set group =>   1
Atom   2C    basis set group =>   1
Atom   3C    basis set group =>   1
Atom   4C    basis set group =>   1
Atom   5C    basis set group =>   1
Atom   6C    basis set group =>   1
Atom   7N    basis set group =>   2
Atom   8O    basis set group =>   3
Atom   9H    basis set group =>   4
Atom  10H    basis set group =>   4
Atom  11H    basis set group =>   4
Atom  12H    basis set group =>   4
Atom  13H    basis set group =>   4
------------------------------------------------------------------------------
                             ORCA STARTUP CALCULATIONS
                           -- RI-GTO INTEGRALS CHOSEN --
------------------------------------------------------------------------------
------------------------------------------------------------------------------
                   ___                                                        
                  /   \      - P O W E R E D   B Y -                         
                 /     \                                                     
                 |  |  |   _    _      __       _____    __    __             
                 |  |  |  | |  | |    /  \     |  _  \  |  |  /  |          
                  \  \/   | |  | |   /    \    | | | |  |  | /  /          
                 / \  \   | |__| |  /  /\  \   | |_| |  |  |/  /          
                |  |  |   |  __  | /  /__\  \  |    /   |      \           
                |  |  |   | |  | | |   __   |  |    \   |  |\   \          
                \     /   | |  | | |  |  |  |  | |\  \  |  | \   \       
                 \___/    |_|  |_| |__|  |__|  |_| \__\ |__|  \__/        
                                                                              
                      - O R C A' S   B I G   F R I E N D -                    
                                      &                                       
                       - I N T E G R A L  F E E D E R -                       
                                                                              
 v1 FN, 2020, v2 2021, v3 2022-2024                                           
------------------------------------------------------------------------------


----------------------
SHARK INTEGRAL PACKAGE
----------------------

Number of atoms                             ...     14
Number of basis functions                   ...    136
Number of shells                            ...     64
Maximum angular momentum                    ...      2
Integral batch strategy                     ... SHARK/LIBINT Hybrid
RI-J (if used) integral strategy            ... SPLIT-RIJ (Revised 2003 algorithm where possible)
Printlevel                                  ...      1
Contraction scheme used                     ... SEGMENTED contraction
Prescreening option                         ... SCHWARTZ
   Thresh                                   ... 1.000e-09
   Tcut                                     ... 1.000e-10
   Tpresel                                  ... 1.000e-10 
Coulomb Range Separation                    ... NOT USED
Exchange Range Separation                   ... NOT USED
Multipole approximations                    ... NOT USED
Finite Nucleus Model                        ... NOT USED
CABS basis                                  ... NOT available
Auxiliary Coulomb fitting basis             ... AVAILABLE
   # of basis functions in Aux-J            ...    496
   # of shells in Aux-J                     ...    160
   Maximum angular momentum in Aux-J        ...      4
Auxiliary J/K fitting basis                 ... NOT available
Auxiliary Correlation fitting basis         ... NOT available
Auxiliary 'external' fitting basis          ... NOT available

Checking pre-screening integrals            ... done (  0.0 sec) Dimension = 64
Check shell pair data                       ... done (  0.0 sec)
Shell pair information
Shell pair cut-off parameter TPreSel        ...   1.0e-10
Total number of shell pairs                 ...      2080
Shell pairs after pre-screening             ...      1912
Total number of primitive shell pairs       ...      8388
Primitive shell pairs kept                  ...      5504
          la=0 lb=0:    636 shell pairs
          la=1 lb=0:    629 shell pairs
          la=1 lb=1:    164 shell pairs
          la=2 lb=0:    293 shell pairs
          la=2 lb=1:    150 shell pairs
          la=2 lb=2:     40 shell pairs

Calculating one electron integrals          ... done (  0.0 sec)
Calculating RI/J V-Matrix + Cholesky decomp.... done (  0.1 sec)
Calculating Nuclear repulsion               ... done (  0.0 sec) ENN=    377.876733833037 Eh

Diagonalization of the overlap matrix:
Smallest eigenvalue                        ... 2.554e-04
Time for diagonalization                   ...    0.002 sec
Threshold for overlap eigenvalues          ... 1.000e-07
Number of eigenvalues below threshold      ... 0
Time for construction of square roots      ...    0.012 sec
Total time needed                          ...    0.020 sec

-------------------
DFT GRID GENERATION
-------------------

General Integration Accuracy     IntAcc      ... 4.159
Radial Grid Type                 RadialGrid  ... OptM3 with GC (2021)
Angular Grid (max. ang.)         AngularGrid ... 3 (Lebedev-194)
Angular grid pruning method      GridPruning ... 4 (adaptive)
Weight generation scheme         WeightScheme... mBecke (2022)
Basis function cutoff            BFCut       ... 1.0000e-10
Integration weight cutoff        WCut        ... 1.0000e-14
Partially contracted basis set               ... off
Rotationally invariant grid construction     ... off
Angular grids for H and He will be reduced by one unit

Total number of grid points                  ...    36580
Total number of batches                      ...      575
Average number of points per batch           ...       63
Average number of grid points per atom       ...     2613
Initializing property integral containers    ... done (  0.0 sec)

SHARK setup successfully completed in   0.6 seconds

Maximum memory used throughout the entire STARTUP-calculation: 18.3 MB
-------------------------------------------------------------------------------
                                 ORCA GUESS
                   Start orbitals & Density for SCF / CASSCF
-------------------------------------------------------------------------------

------------
SCF SETTINGS
------------
Hamiltonian:
 Density Functional     Method          .... DFT(GTOs)
 Exchange Functional    Exchange        .... PBE
   PBE kappa parameter   XKappa         ....  0.804000
   PBE mue parameter    XMuePBE         ....  0.219520
 Correlation Functional Correlation     .... PBE
   PBE beta parameter  CBetaPBE         ....  0.066725
 LDA part of GGA corr.  LDAOpt          .... PW91-LDA
 Gradients option       PostSCFGGA      .... off
   NL short-range parameter             ....  6.400000
 RI-approximation to the Coulomb term is turned on
   Number of AuxJ basis functions       .... 496


General Settings:
 Integral files         IntName         .... sp
 Hartree-Fock type      HFTyp           .... RHF
 Total Charge           Charge          ....    0
 Multiplicity           Mult            ....    1
 Number of Electrons    NEL             ....   62
 Basis Dimension        Dim             ....  136
 Nuclear Repulsion      ENuc            ....    377.8767338330 Eh

Convergence Acceleration:
 AO-DIIS                CNVDIIS         .... on
   Start iteration      DIISMaxIt       ....    12
   Startup error        DIISStart       ....  0.200000
   # of expansion vecs  DIISMaxEq       ....     5
   Bias factor          DIISBfac        ....   1.050
   Max. coefficient     DIISMaxC        ....  10.000
 MO-DIIS                CNVKDIIS        .... off
 Trust-Rad. Augm. Hess. CNVTRAH         .... auto
   Auto Start mean grad. ratio tolernc. ....  1.125000
   Auto Start start iteration           ....    50
   Auto Start num. interpolation iter.  ....    10
   Max. Number of Micro iterations      ....    24
   Max. Number of Macro iterations      .... Maxiter - #DIIS iter
   Number of Davidson start vectors     ....     2
   Converg. threshold    (grad. norm)   ....   1.000e-04
   Grad. Scal. Fac. for Micro threshold ....   0.100
   Minimum threshold for Micro iter.    ....   1.000e-02
   NR start threshold (gradient norm)   ....   1.000e-04
   Initial trust radius                 ....   0.400
   Minimum AH scaling param. (alpha)    ....   1.000
   Maximum AH scaling param. (alpha)    .... 1000.000
   Quad. conv. algorithm                .... NR
   White noise on init. David. guess    .... on
   Maximum white noise                  ....   0.010
   Pseudo random numbers                .... off
   Inactive MOs                         .... canonical
   Orbital update algorithm             .... Taylor
   Preconditioner                       .... Diag
   Full preconditioner red. dimension   ....   250
 SOSCF                  CNVSOSCF        .... on
   Start iteration      SOSCFMaxIt      ....   150
   Startup grad/error   SOSCFStart      ....  0.003300
   Hessian update       SOSCFHessUp     .... L-BFGS
 Level Shifting         CNVShift        .... on
   Level shift para.    LevelShift      ....    0.2500
   Turn off err/grad.   ShiftErr        ....    0.0010
 Zerner damping         CNVZerner       .... off
 Static damping         CNVDamp         .... on
   Fraction old density DampFac         ....    0.7000
   Max. Damping (<1)    DampMax         ....    0.9800
   Min. Damping (>=0)   DampMin         ....    0.0000
   Turn off err/grad.   DampErr         ....    0.1000

SCF Procedure:
 Maximum # iterations   MaxIter         ....   125
 SCF integral mode      SCFMode         .... Direct
   Integral package                     .... SHARK and LIBINT hybrid scheme
 Reset frequency        DirectResetFreq ....    20
 Integral Threshold     Thresh          ....  1.000e-09 Eh
 Primitive CutOff       TCut            ....  1.000e-10 Eh

Convergence Tolerance:
 Convergence Check Mode ConvCheckMode   .... Total+1el-Energy
 Convergence forced     ConvForced      .... 0
 Energy Change          TolE            ....  1.000e-05 Eh
 1-El. energy change                    ....  1.000e-02 Eh
 Orbital Gradient       TolG            ....  1.000e-04
 Orbital Rotation angle TolX            ....  1.000e-04
 DIIS Error             TolErr          ....  5.000e-04

------------------------------
INITIAL GUESS: MODEL POTENTIAL
------------------------------
Loading Hartree-Fock densities                     ... done
Calculating cut-offs                               ... done
Initializing the effective Hamiltonian             ... done
Setting up the integral package (SHARK)            ... done
Starting the Coulomb interaction                   ... done (   0.1 sec)
Making the grid                                    ... done (   0.2 sec)
Mapping shells                                     ... done
Starting the XC term evaluation                    ... done (   0.1 sec)
  promolecular density results
     # of electrons  =     62.000128280
     EX              =    -51.935073837
     EC              =     -2.056795927
     EX+EC           =    -53.991869764
Transforming the Hamiltonian                       ... done (   0.0 sec)
Diagonalizing the Hamiltonian                      ... done (   0.0 sec)
Back transforming the eigenvectors                 ... done (   0.0 sec)
Now organizing SCF variables                       ... done
                      ------------------
                      INITIAL GUESS DONE (   0.4 sec)
                      ------------------
             **** ENERGY FILE WAS UPDATED (sp.en.tmp) ****
Finished Guess after   0.6 sec
Maximum memory used throughout the entire GUESS-calculation: 14.4 MB

-------------------------------------------------------------------------------------------
                                      ORCA LEAN-SCF
                              memory conserving SCF solver
-------------------------------------------------------------------------------------------

----------------------------------------D-I-I-S--------------------------------------------
Iteration    Energy (Eh)           Delta-E    RMSDP     MaxDP     DIISErr   Damp  Time(sec)
-------------------------------------------------------------------------------------------
               ***  Starting incremental Fock matrix formation  ***
    1    -398.7368284838868817     0.00e+00  4.42e-03  8.76e-02  2.29e-01  0.700   0.7
    2    -398.8293514285167589    -9.25e-02  2.93e-03  4.73e-02  7.95e-02  0.700   0.7
                               ***Turning on AO-DIIS***
    3    -398.8588176054290102    -2.95e-02  1.30e-03  2.37e-02  3.76e-02  0.700   0.7
    4    -398.8787795836842065    -2.00e-02  1.86e-03  3.06e-02  2.32e-02  0.000   0.7
    5    -398.9228118799338176    -4.40e-02  5.45e-04  1.04e-02  8.19e-03  0.000   0.7
                              *** Initializing SOSCF ***
---------------------------------------S-O-S-C-F--------------------------------------
Iteration    Energy (Eh)           Delta-E    RMSDP     MaxDP     MaxGrad    Time(sec)
--------------------------------------------------------------------------------------
    6    -398.9233479533070863    -5.36e-04  1.67e-04  2.43e-03  1.47e-03     0.7
               *** Restarting incremental Fock matrix formation ***
    7    -398.9233750693586558    -2.71e-05  1.40e-04  2.90e-03  3.76e-04     0.7
    8    -398.9233652903723737     9.78e-06  6.91e-05  1.26e-03  1.05e-03     0.6
                 **** Energy Check signals convergence ****

               *****************************************************
               *                     SUCCESS                       *
               *           SCF CONVERGED AFTER   8 CYCLES          *
               *****************************************************

             **** ENERGY FILE WAS UPDATED (sp.en.tmp) ****

----------------
TOTAL SCF ENERGY
----------------

Total Energy       :       -398.92336529037237 Eh          -10855.25664 eV

Components:
Nuclear Repulsion  :        377.87673383303712 Eh           10282.54868 eV
Electronic Energy  :       -776.80009912340938 Eh          -21137.80532 eV
One Electron Energy:      -1288.46887527179683 Eh          -35061.02056 eV
Two Electron Energy:        511.66877614838739 Eh           13923.21524 eV

Virial components:
Potential Energy   :       -794.68985050465858 Eh          -21624.61021 eV
Kinetic Energy     :        395.76648521428626 Eh           10769.35357 eV
Virial Ratio       :          2.00797662306948

DFT components:
N(Alpha)           :       31.000185755016 electrons
N(Beta)            :       31.000185755016 electrons
N(Total)           :       62.000371510031 electrons
E(X)               :      -52.727689552176 Eh       
E(C)               :       -2.075595238598 Eh       
E(XC)              :      -54.803284790774 Eh       

---------------
SCF CONVERGENCE
---------------

  Last Energy change         ...   -9.7790e-06  Tolerance :   1.0000e-05
  Last MAX-Density change    ...    1.2554e-03  Tolerance :   1.0000e-03
  Last RMS-Density change    ...    6.9144e-05  Tolerance :   1.0000e-04
  Last DIIS Error            ...    1.4680e-03  Tolerance :   5.0000e-04
  Last Orbital Gradient      ...    1.0509e-03  Tolerance :   1.0000e-04
  Last Orbital Rotation      ...    1.4376e-03  Tolerance :   1.0000e-04


----------------
ORBITAL ENERGIES
----------------

  NO   OCC          E(Eh)            E(eV) 
   0   2.0000     -18.811225      -511.8794 
   1   2.0000     -13.975295      -380.2871 
   2   2.0000      -9.979728      -271.5622 
   3   2.0000      -9.937933      -270.4249 
   4   2.0000      -9.925880      -270.0969 
   5   2.0000      -9.924741      -270.0659 
   6   2.0000      -9.922141      -269.9952 
   7   2.0000      -9.916358      -269.8378 
   8   2.0000      -9.911782      -269.7133 
   9   2.0000      -0.993823       -27.0433 
  10   2.0000      -0.817306       -22.2400 
  11   2.0000      -0.794581       -21.6216 
  12   2.0000      -0.705919       -19.2090 
  13   2.0000      -0.701515       -19.0892 
  14   2.0000      -0.605499       -16.4765 
  15   2.0000      -0.578988       -15.7551 
  16   2.0000      -0.523218       -14.2375 
  17   2.0000      -0.512306       -13.9405 
  18   2.0000      -0.453694       -12.3456 
  19   2.0000      -0.417762       -11.3679 
  20   2.0000      -0.404353       -11.0030 
  21   2.0000      -0.394102       -10.7241 
  22   2.0000      -0.381656       -10.3854 
  23   2.0000      -0.358237        -9.7481 
  24   2.0000      -0.350233        -9.5303 
  25   2.0000      -0.321887        -8.7590 
  26   2.0000      -0.293035        -7.9739 
  27   2.0000      -0.292635        -7.9630 
  28   2.0000      -0.290898        -7.9157 
  29   2.0000      -0.257531        -7.0078 
  30   2.0000      -0.217590        -5.9209 
  31   0.0000      -0.069490        -1.8909 
  32   0.0000      -0.060063        -1.6344 
  33   0.0000       0.001921         0.0523 
  34   0.0000       0.010492         0.2855 
  35   0.0000       0.032642         0.8882 
  36   0.0000       0.049124         1.3367 
  37   0.0000       0.067947         1.8489 
  38   0.0000       0.092827         2.5259 
  39   0.0000       0.123361         3.3568 
  40   0.0000       0.125942         3.4271 
  41   0.0000       0.155271         4.2252 
*Only the first 10 virtual orbitals were printed.

                    ********************************
                    * MULLIKEN POPULATION ANALYSIS *
                    ********************************

-----------------------
MULLIKEN ATOMIC CHARGES
-----------------------
   0 C :   -0.059307
   1 C :   -0.155524
   2 C :    0.246924
   3 C :   -0.113580
   4 C :   -0.052334
   5 C :   -0.042839
   6 C :   -0.129594
   7 N :    0.057385
   8 O :   -0.313034
   9 H :    0.065060
  10 H :    0.043259
  11 H :    0.061160
  12 H :    0.066701
  13 H :    0.325722
Sum of atomic charges:   -0.0000000

--------------------------------
MULLIKEN REDUCED ORBITAL CHARGES
--------------------------------
  0 C s       :     3.268584  s :     3.268584
      pz      :     0.964198  p :     2.755283
      px      :     0.917836
      py      :     0.873249
      dz2     :     0.003210  d :     0.035440
      dxz     :     0.006578
      dyz     :     0.003275
      dx2y2   :     0.009778
      dxy     :     0.012600

  1 C s       :     3.250778  s :     3.250778
      pz      :     1.072449  p :     2.872385
      px      :     0.939354
      py      :     0.860582
      dz2     :     0.003287  d :     0.032360
      dxz     :     0.005155
      dyz     :     0.002879
      dx2y2   :     0.008097
      dxy     :     0.012942

  2 C s       :     2.899044  s :     2.899044
      pz      :     0.955474  p :     2.779505
      px      :     0.808128
      py      :     1.015902
      dz2     :     0.005022  d :     0.074528
      dxz     :     0.017754
      dyz     :     0.006896
      dx2y2   :     0.024307
      dxy     :     0.020549

  3 C s       :     3.283292  s :     3.283292
      pz      :     1.034216  p :     2.798298
      px      :     0.878557
      py      :     0.885525
      dz2     :     0.003201  d :     0.031990
      dxz     :     0.005081
      dyz     :     0.002907
      dx2y2   :     0.007887
      dxy     :     0.012914

  4 C s       :     3.269068  s :     3.269068
      pz      :     0.964593  p :     2.747839
      px      :     0.914263
      py      :     0.868982
      dz2     :     0.003195  d :     0.035428
      dxz     :     0.006450
      dyz     :     0.003268
      dx2y2   :     0.009709
      dxy     :     0.012807

  5 C s       :     2.972231  s :     2.972231
      pz      :     1.065997  p :     3.027748
      px      :     1.021392
      py      :     0.940359
      dz2     :     0.002973  d :     0.042860
      dxz     :     0.005720
      dyz     :     0.006586
      dx2y2   :     0.014873
      dxy     :     0.012708

  6 C s       :     3.094676  s :     3.094676
      pz      :     0.971770  p :     2.989823
      px      :     1.044836
      py      :     0.973217
      dz2     :     0.003110  d :     0.045095
      dxz     :     0.018289
      dyz     :     0.000058
      dx2y2   :     0.008565
      dxy     :     0.015072

  7 N s       :     3.536589  s :     3.536589
      pz      :     1.062812  p :     3.374977
      px      :     1.282096
      py      :     1.030069
      dz2     :     0.002920  d :     0.031049
      dxz     :     0.009579
      dyz     :     0.000000
      dx2y2   :     0.008725
      dxy     :     0.009825

  8 O s       :     3.737418  s :     3.737418
      pz      :     1.804830  p :     4.559045
      px      :     1.303965
      py      :     1.450250
      dz2     :     0.002775  d :     0.016571
      dxz     :     0.002410
      dyz     :     0.000776
      dx2y2   :     0.006347
      dxy     :     0.004263

  9 H s       :     0.934940  s :     0.934940

 10 H s       :     0.956741  s :     0.956741

 11 H s       :     0.938840  s :     0.938840

 12 H s       :     0.933299  s :     0.933299

 13 H s       :     0.674278  s :     0.674278


------------------------
MULLIKEN OVERLAP CHARGES
------------------------
B(  0-C ,  1-C ) :   0.1926 B(  0-C ,  2-C ) :   0.4491 B(  0-C ,  3-C ) :  -0.3521 
B(  0-C ,  4-C ) :   0.3104 B(  0-C ,  5-C ) :   0.3514 B(  0-C ,  6-C ) :  -0.2394 
B(  0-C ,  9-H ) :   0.8827 B(  0-C , 10-H ) :  -0.1360 B(  1-C ,  2-C ) :   0.0573 
B(  1-C ,  3-C ) :   0.1844 B(  1-C ,  4-C ) :  -0.3874 B(  1-C ,  5-C ) :   0.3726 
B(  1-C ,  8-O ) :  -0.1808 B(  1-C ,  9-H ) :  -0.1570 B(  1-C , 10-H ) :   0.8438 
B(  2-C ,  3-C ) :   0.1515 B(  2-C ,  4-C ) :   0.4593 B(  2-C ,  5-C ) :  -0.4795 
B(  2-C ,  8-O ) :   0.8843 B(  2-C , 10-H ) :  -0.1872 B(  2-C , 11-H ) :  -0.1509 
B(  2-C , 13-H ) :  -0.0701 B(  3-C ,  4-C ) :   0.2470 B(  3-C ,  5-C ) :   0.4096 
B(  3-C ,  8-O ) :  -0.1661 B(  3-C , 11-H ) :   0.8521 B(  3-C , 12-H ) :  -0.1788 
B(  4-C ,  5-C ) :   0.2670 B(  4-C ,  6-C ) :  -0.2243 B(  4-C , 11-H ) :  -0.1784 
B(  4-C , 12-H ) :   0.9091 B(  5-C ,  6-C ) :   0.5175 B(  5-C ,  7-N ) :  -0.1043 
B(  5-C ,  9-H ) :  -0.1410 B(  5-C , 12-H ) :  -0.1449 B(  6-C ,  7-N ) :   1.8386 
B(  6-C ,  9-H ) :  -0.0520 B(  6-C , 12-H ) :  -0.0537 B(  8-O , 13-H ) :   0.5398 



                     *******************************
                     * LOEWDIN POPULATION ANALYSIS *
                     *******************************

----------------------
LOEWDIN ATOMIC CHARGES
----------------------
   0 C :   -0.079767
   1 C :   -0.168151
   2 C :    0.032607
   3 C :   -0.138571
   4 C :   -0.078866
   5 C :   -0.098569
   6 C :   -0.042095
   7 N :   -0.064205
   8 O :   -0.212031
   9 H :    0.139026
  10 H :    0.127724
  11 H :    0.138421
  12 H :    0.139869
  13 H :    0.304609

-------------------------------
LOEWDIN REDUCED ORBITAL CHARGES
-------------------------------
  0 C s       :     2.890584  s :     2.890584
      pz      :     0.961338  p :     3.096638
      px      :     1.072299
      py      :     1.063001
      dz2     :     0.007141  d :     0.092544
      dxz     :     0.014137
      dyz     :     0.006312
      dx2y2   :     0.029721
      dxy     :     0.035234

  1 C s       :     2.892247  s :     2.892247
      pz      :     1.053495  p :     3.187628
      px      :     1.084916
      py      :     1.049216
      dz2     :     0.007640  d :     0.088275
      dxz     :     0.010985
      dyz     :     0.005250
      dx2y2   :     0.027223
      dxy     :     0.037177

  2 C s       :     2.838378  s :     2.838378
      pz      :     0.945062  p :     2.952471
      px      :     0.892488
      py      :     1.114922
      dz2     :     0.011605  d :     0.176544
      dxz     :     0.035555
      dyz     :     0.014160
      dx2y2   :     0.061682
      dxy     :     0.053542

  3 C s       :     2.893217  s :     2.893217
      pz      :     1.023525  p :     3.158878
      px      :     1.078100
      py      :     1.057252
      dz2     :     0.007383  d :     0.086476
      dxz     :     0.010696
      dyz     :     0.005264
      dx2y2   :     0.026485
      dxy     :     0.036648

  4 C s       :     2.890631  s :     2.890631
      pz      :     0.959260  p :     3.095917
      px      :     1.075453
      py      :     1.061204
      dz2     :     0.007071  d :     0.092318
      dxz     :     0.013677
      dyz     :     0.006299
      dx2y2   :     0.029366
      dxy     :     0.035905

  5 C s       :     2.831661  s :     2.831661
      pz      :     1.036223  p :     3.149556
      px      :     1.027916
      py      :     1.085416
      dz2     :     0.008166  d :     0.117353
      dxz     :     0.012042
      dyz     :     0.013788
      dx2y2   :     0.045422
      dxy     :     0.037935

  6 C s       :     2.900746  s :     2.900746
      pz      :     0.946767  p :     3.027554
      px      :     1.156138
      py      :     0.924648
      dz2     :     0.010457  d :     0.113795
      dxz     :     0.039069
      dyz     :     0.000061
      dx2y2   :     0.030882
      dxy     :     0.033325

  7 N s       :     3.420689  s :     3.420689
      pz      :     1.072085  p :     3.589815
      px      :     1.474607
      py      :     1.043123
      dz2     :     0.006438  d :     0.053700
      dxz     :     0.013861
      dyz     :     0.000000
      dx2y2   :     0.019288
      dxy     :     0.014113

  8 O s       :     3.501366  s :     3.501366
      pz      :     1.796586  p :     4.681330
      px      :     1.372929
      py      :     1.511815
      dz2     :     0.004450  d :     0.029336
      dxz     :     0.003744
      dyz     :     0.000758
      dx2y2   :     0.012294
      dxy     :     0.008090

  9 H s       :     0.860974  s :     0.860974

 10 H s       :     0.872276  s :     0.872276

 11 H s       :     0.861579  s :     0.861579

 12 H s       :     0.860131  s :     0.860131

 13 H s       :     0.695391  s :     0.695391


---------------------------------
LOEWDIN BOND ORDERS (THRESH 0.050000)
---------------------------------
B(  0-C ,  1-C ) :   1.5313 B(  0-C ,  2-C ) :   0.0916 B(  0-C ,  3-C ) :   0.1058 
B(  0-C ,  4-C ) :   0.0781 B(  0-C ,  5-C ) :   1.3820 B(  0-C ,  6-C ) :   0.0909 
B(  0-C ,  7-N ) :   0.0621 B(  0-C ,  9-H ) :   0.8811 B(  1-C ,  2-C ) :   1.3980 
B(  1-C ,  3-C ) :   0.0860 B(  1-C ,  4-C ) :   0.1017 B(  1-C ,  5-C ) :   0.0894 
B(  1-C ,  8-O ) :   0.1148 B(  1-C , 10-H ) :   0.8771 B(  2-C ,  3-C ) :   1.3792 
B(  2-C ,  4-C ) :   0.0910 B(  2-C ,  5-C ) :   0.0875 B(  2-C ,  8-O ) :   1.3707 
B(  3-C ,  4-C ) :   1.5522 B(  3-C ,  5-C ) :   0.0893 B(  3-C ,  8-O ) :   0.1048 
B(  3-C , 11-H ) :   0.8786 B(  4-C ,  5-C ) :   1.3676 B(  4-C ,  6-C ) :   0.0900 
B(  4-C ,  7-N ) :   0.0595 B(  4-C , 12-H ) :   0.8815 B(  5-C ,  6-C ) :   1.1607 
B(  5-C ,  7-N ) :   0.1224 B(  6-C ,  7-N ) :   3.1252 B(  8-O , 13-H ) :   0.8667 


------------------------------------------
LOEWDIN REDUCED ORBITAL POPULATIONS PER MO
-------------------------------------------
THRESHOLD FOR PRINTING IS 0.1%%
                      0         1         2         3         4         5   
                 -18.81122 -13.97529  -9.97973  -9.93793  -9.92588  -9.92474
                   2.00000   2.00000   2.00000   2.00000   2.00000   2.00000
                  --------  --------  --------  --------  --------  --------
 0 C  s               0.0       0.0       0.0       0.0      99.5       0.0
 0 C  py              0.0       0.0       0.0       0.1       0.0       0.0
 1 C  px              0.0       0.0       0.0       0.0       0.2       0.0
 1 C  py              0.0       0.0       0.1       0.0       0.0       0.0
 2 C  s               0.0       0.0      99.5       0.0       0.0       0.0
 3 C  px              0.0       0.0       0.0       0.0       0.0       0.2
 3 C  py              0.0       0.0       0.1       0.0       0.0       0.0
 4 C  s               0.0       0.0       0.0       0.0       0.0      99.5
 4 C  py              0.0       0.0       0.0       0.1       0.0       0.0
 5 C  s               0.0       0.0       0.0      99.5       0.0       0.0
 5 C  py              0.0       0.0       0.0       0.0       0.1       0.1
 6 C  px              0.0       0.1       0.0       0.1       0.0       0.0
 6 C  dx2y2           0.0       0.1       0.0       0.0       0.0       0.0
 7 N  s               0.0      99.7       0.0       0.0       0.0       0.0
 8 O  s              99.9       0.0       0.0       0.0       0.0       0.0
 8 O  px              0.0       0.0       0.2       0.0       0.0       0.0

                      6         7         8         9        10        11   
                  -9.92214  -9.91636  -9.91178  -0.99382  -0.81731  -0.79458
                   2.00000   2.00000   2.00000   2.00000   2.00000   2.00000
                  --------  --------  --------  --------  --------  --------
 0 C  s               0.0       0.0       0.0       0.1       6.0       7.1
 0 C  px              0.0       0.2       0.0       0.1       0.0       0.7
 0 C  py              0.0       0.0       0.0       0.0       1.5       1.0
 1 C  s               0.0      99.5       0.0       0.9       3.0       7.2
 1 C  px              0.0       0.0       0.0       0.7       0.7       0.7
 1 C  py              0.0       0.0       0.0       0.8       0.4       1.0
 2 C  s               0.0       0.0       0.0      11.2       1.6       4.8
 2 C  px              0.0       0.0       0.0       9.7       1.7       4.0
 2 C  py              0.0       0.1       0.1       0.0       0.0       0.0
 2 C  dz2             0.0       0.0       0.0       0.4       0.0       0.0
 2 C  dx2y2           0.0       0.0       0.0       0.8       0.0       0.1
 3 C  s               0.0       0.0      99.5       0.8       2.9       7.0
 3 C  px              0.0       0.0       0.0       0.6       0.6       0.6
 3 C  py              0.0       0.0       0.0       0.7       0.4       1.1
 4 C  s               0.0       0.0       0.0       0.1       5.8       6.8
 4 C  px              0.0       0.0       0.2       0.1       0.0       0.7
 4 C  py              0.0       0.0       0.0       0.0       1.6       1.0
 5 C  s               0.0       0.0       0.0       0.0      12.8       4.6
 5 C  px              0.1       0.0       0.0       0.0       0.3       4.9
 5 C  dz2             0.0       0.0       0.0       0.0       0.1       0.1
 6 C  s              99.3       0.0       0.0       0.0      23.6       6.4
 6 C  px              0.0       0.0       0.0       0.0       2.6      12.4
 6 C  dz2             0.0       0.0       0.0       0.0       0.3       0.1
 6 C  dx2y2           0.0       0.0       0.0       0.0       0.9       0.3
 7 N  s               0.0       0.0       0.0       0.0      23.1      17.1
 7 N  px              0.3       0.0       0.0       0.0       6.3       4.1
 7 N  dx2y2           0.1       0.0       0.0       0.0       0.2       0.2
 8 O  s               0.0       0.0       0.0      58.0       0.4       1.1
 8 O  px              0.0       0.0       0.0       1.6       0.1       0.5
 8 O  py              0.0       0.0       0.0       2.0       0.1       0.2
 9 H  s               0.0       0.0       0.0       0.0       0.9       0.8
10 H  s               0.0       0.1       0.0       0.2       0.3       0.9
11 H  s               0.0       0.0       0.1       0.2       0.3       0.8
12 H  s               0.0       0.0       0.0       0.0       0.8       0.8
13 H  s               0.0       0.0       0.0      11.0       0.1       0.4

                     12        13        14        15        16        17   
                  -0.70592  -0.70151  -0.60550  -0.57899  -0.52322  -0.51231
                   2.00000   2.00000   2.00000   2.00000   2.00000   2.00000
                  --------  --------  --------  --------  --------  --------
 0 C  s               4.4      11.2       0.0      11.7       1.4       0.4
 0 C  px              4.2       3.9       4.8       1.7       0.7       0.4
 0 C  py              1.1       0.8       0.5       0.8       9.2       3.8
 0 C  dx2y2           0.1       0.2       0.0       0.0       0.0       0.2
 0 C  dxy             0.1       0.0       0.0       0.0       0.0       0.0
 1 C  s               2.2      18.6       2.4       4.1       1.4       1.6
 1 C  px              2.5       0.9       0.4      13.3       0.4       2.6
 1 C  py              1.8       0.2       1.1       0.8      12.7       2.1
 1 C  dz2             0.0       0.2       0.0       0.0       0.0       0.0
 1 C  dx2y2           0.1       0.1       0.0       0.2       0.2       0.1
 2 C  s              11.6       0.4       5.6       2.1       0.6       0.2
 2 C  px              2.7       0.3       2.0       0.1      11.9       2.3
 2 C  py              0.8      10.1       3.7      13.3       0.0       0.0
 2 C  dx2y2           0.1       0.0       0.0       0.0       0.1       0.6
 2 C  dxy             0.0       0.2       0.0       0.1       0.1       0.1
 3 C  s              10.4       9.5       0.1       5.3       0.2       7.0
 3 C  px              1.4       2.4      10.9       0.6       0.2       1.5
 3 C  py              1.3       0.6       1.6       1.0       6.7       3.9
 3 C  dz2             0.1       0.1       0.0       0.0       0.0       0.0
 3 C  dx2y2           0.0       0.1       0.1       0.0       0.2       0.1
 4 C  s               0.2      15.4       7.4       1.2       4.3       1.5
 4 C  px              7.1       0.5       1.0       7.1       1.9       2.1
 4 C  py              1.6       0.1       1.0       0.2       7.2       4.7
 4 C  dz2             0.0       0.1       0.0       0.0       0.0       0.0
 4 C  dx2y2           0.1       0.1       0.0       0.0       0.0       0.4
 4 C  dxy             0.1       0.0       0.0       0.0       0.0       0.0
 5 C  s              15.6       1.0       2.8       0.7       0.6       0.1
 5 C  px              0.6       0.1       6.1       3.1       0.4      22.9
 5 C  py              0.4       8.9       2.5      11.5       1.7       1.2
 5 C  dz2             0.1       0.0       0.0       0.0       0.0       0.0
 5 C  dx2y2           0.0       0.0       0.1       0.1       0.1       0.4
 5 C  dxy             0.0       0.2       0.0       0.1       0.0       0.0
 6 C  s               1.1       0.1       2.1       1.1       0.0       5.1
 6 C  px             11.6       0.8       6.2       2.5       0.0       8.6
 6 C  py              0.0       0.2       0.1       0.9       0.2       0.2
 7 N  s               2.3       0.1       0.8       0.3       0.0       1.3
 7 N  px              0.4       0.0       0.2       0.1       0.0       0.7
 8 O  s               2.2       0.3       0.5       1.2       0.1       0.3
 8 O  px              4.1       0.0      16.2       1.5      11.4       6.0
 8 O  py              1.3       0.2       7.9       1.0       6.2       3.6
 8 O  dx2y2           0.1       0.0       0.3       0.0       0.1       0.1
 9 H  s               1.1       2.3       0.0       5.7       3.0       0.5
10 H  s               0.3       4.2       1.3       2.4       4.1       3.6
11 H  s               2.0       2.1       0.0       3.1       0.6       7.0
12 H  s               0.1       3.3       2.3       1.0       7.0       0.0
13 H  s               2.1       0.0       7.4       0.1       5.0       3.0

                     18        19        20        21        22        23   
                  -0.45369  -0.41776  -0.40435  -0.39410  -0.38166  -0.35824
                   2.00000   2.00000   2.00000   2.00000   2.00000   2.00000
                  --------  --------  --------  --------  --------  --------
 0 C  s               0.3       1.1       0.2       0.0       0.4       0.2
 0 C  pz              0.0       0.0       0.0       5.8       0.0       0.0
 0 C  px             16.1       0.3       6.9       0.0       4.5       6.3
 0 C  py              0.8      10.1      14.0       0.0       0.3       3.4
 0 C  dx2y2           0.2       0.0       0.3       0.0       0.4       0.0
 0 C  dxy             0.0       0.7       0.0       0.0       0.0       0.1
 1 C  s               0.8       0.8       0.8       0.0       0.5       0.4
 1 C  pz              0.0       0.0       0.0      10.9       0.0       0.0
 1 C  px              9.5       3.0       5.1       0.0       3.0       7.7
 1 C  py              3.1      11.0       8.2       0.0       0.1       1.0
 1 C  dyz             0.0       0.0       0.0       0.1       0.0       0.0
 1 C  dx2y2           0.0       0.0       0.2       0.0       0.0       0.4
 1 C  dxy             0.1       0.7       0.0       0.0       0.0       0.3
 2 C  s               0.4       3.0       0.1       0.0       0.5       0.2
 2 C  pz              0.0       0.0       0.0      29.2       0.0       0.0
 2 C  px              1.6       3.7       0.1       0.0       0.1       3.5
 2 C  py             12.1       0.1       2.1       0.0       0.2       1.0
 2 C  dx2y2           0.0       0.0       0.0       0.0       0.8       0.4
 2 C  dxy             0.0       0.0       0.7       0.0       0.1       0.2
 3 C  s               0.0       0.8       0.2       0.0       0.2       0.4
 3 C  pz              0.0       0.0       0.0      10.1       0.0       0.0
 3 C  px              7.7       0.2       3.2       0.0      21.9       0.9
 3 C  py              3.0       6.7      13.8       0.0       1.3       2.5
 3 C  dyz             0.0       0.0       0.0       0.1       0.0       0.0
 3 C  dx2y2           0.1       0.1       0.1       0.0       0.3       0.0
 3 C  dxy             0.0       0.5       0.0       0.0       0.1       0.2
 4 C  s               0.5       0.6       0.4       0.0       0.1       0.2
 4 C  pz              0.0       0.0       0.0       5.6       0.0       0.0
 4 C  px              5.1       4.1       2.2       0.0      17.9       2.3
 4 C  py              4.7       9.7       9.4       0.0       0.9       5.0
 4 C  dx2y2           0.0       0.0       0.1       0.0       0.4       0.2
 4 C  dxy             0.0       0.5       0.0       0.0       0.0       0.4
 5 C  s               0.0       2.7       0.0       0.0       0.7       0.0
 5 C  pz              0.0       0.0       0.0       6.6       0.0       0.0
 5 C  px              0.5       3.8       0.0       0.0       5.8       0.8
 5 C  py             11.9       0.4       2.1       0.0       1.7       5.1
 5 C  dx2y2           0.1       0.1       0.0       0.0       1.1       0.3
 5 C  dxy             0.0       0.0       0.5       0.0       0.0       0.0
 6 C  s               0.4       0.1       0.0       0.0       3.0       0.7
 6 C  pz              0.0       0.0       0.0       1.8       0.0       0.0
 6 C  px              0.4       0.1       0.0       0.0       2.5       0.5
 6 C  py              2.9       0.2       0.1       0.0       1.0       2.7
 7 N  s               0.1       0.1       0.0       0.0       1.0       0.3
 7 N  pz              0.0       0.0       0.0       0.5       0.0       0.0
 7 N  px              0.1       0.1       0.0       0.0       1.2       0.4
 7 N  py              0.4       0.0       0.0       0.0       0.3       1.1
 8 O  s               1.7       0.0       0.1       0.0       3.4       2.6
 8 O  pz              0.0       0.0       0.0      28.9       0.0       0.0
 8 O  px              7.1       0.6       0.0       0.0       0.2      13.0
 8 O  py              5.3       0.4       0.4       0.0      10.3      19.7
 8 O  dxz             0.0       0.0       0.0       0.1       0.0       0.0
 8 O  dxy             0.1       0.0       0.0       0.0       0.0       0.0
 9 H  s               1.3       7.7      10.5       0.0       2.5       0.3
10 H  s               0.4      11.2       5.3       0.0       0.3       6.1
11 H  s               0.0       4.5       8.0       0.0       7.7       1.1
12 H  s               0.8       9.9       4.6       0.0       0.9       7.0
13 H  s               0.1       0.2       0.1       0.0       2.2       0.7

                     24        25        26        27        28        29   
                  -0.35023  -0.32189  -0.29304  -0.29263  -0.29090  -0.25753
                   2.00000   2.00000   2.00000   2.00000   2.00000   2.00000
                  --------  --------  --------  --------  --------  --------
 0 C  s               0.0       0.1       0.0       0.0       0.4       0.0
 0 C  pz              8.2       0.0       7.4       0.0       0.0      22.9
 0 C  px              0.0       1.7       0.0       0.3       0.9       0.0
 0 C  py              0.0       4.2       0.0       0.1       1.6       0.0
 0 C  dxz             0.0       0.0       0.1       0.0       0.0       0.2
 0 C  dyz             0.1       0.0       0.0       0.0       0.0       0.0
 0 C  dxy             0.0       0.6       0.0       0.0       0.1       0.0
 1 C  s               0.0       0.3       0.0       0.0       0.1       0.0
 1 C  pz              0.1       0.0       7.2       0.0       0.0      24.5
 1 C  px              0.0       3.1       0.0       0.3       0.2       0.0
 1 C  py              0.0       7.8       0.0       0.0       0.4       0.0
 1 C  dxz             0.1       0.0       0.1       0.0       0.0       0.2
 1 C  dxy             0.0       0.4       0.0       0.0       0.1       0.0
 2 C  pz              4.9       0.0       0.2       0.0       0.0       0.0
 2 C  px              0.0       0.8       0.0       0.0       0.0       0.0
 2 C  py              0.0      11.7       0.0       0.0       0.4       0.0
 2 C  dxz             0.3       0.0       0.6       0.0       0.0       0.0
 2 C  dyz             0.0       0.0       0.0       0.0       0.0       0.7
 2 C  dxy             0.0       1.1       0.0       0.0       0.0       0.0
 3 C  s               0.0       0.1       0.0       0.0       0.1       0.0
 3 C  pz              0.1       0.0       5.7       0.0       0.0      24.3
 3 C  px              0.0       0.6       0.0       0.2       0.3       0.0
 3 C  py              0.0       7.4       0.0       0.0       0.5       0.0
 3 C  dxz             0.1       0.0       0.1       0.0       0.0       0.2
 3 C  dxy             0.0       0.6       0.0       0.0       0.1       0.0
 4 C  s               0.0       0.0       0.0       0.0       0.4       0.0
 4 C  pz              7.9       0.0       6.2       0.0       0.0      26.0
 4 C  px              0.0       0.1       0.0       0.1       1.1       0.0
 4 C  py              0.0       4.2       0.0       0.0       1.8       0.0
 4 C  dxz             0.0       0.0       0.0       0.0       0.0       0.2
 4 C  dyz             0.1       0.0       0.0       0.0       0.0       0.0
 4 C  dxy             0.0       0.5       0.0       0.0       0.1       0.0
 5 C  s               0.0       0.0       0.0       0.3       0.0       0.0
 5 C  pz             24.6       0.0       0.6       0.0       0.0       0.0
 5 C  px              0.0       0.0       0.0       1.9       0.0       0.0
 5 C  py              0.0       3.5       0.0       0.0       3.1       0.0
 5 C  dxz             0.0       0.0       0.5       0.0       0.0       0.0
 5 C  dyz             0.0       0.0       0.0       0.0       0.0       0.7
 5 C  dxy             0.0       0.0       0.0       0.0       0.8       0.0
 6 C  s               0.0       0.0       0.0       1.9       0.0       0.0
 6 C  pz             21.3       0.0      23.1       0.0       0.0       0.0
 6 C  px              0.0       0.0       0.0       9.2       0.1       0.0
 6 C  py              0.0       2.8       0.0       0.2      34.7       0.0
 6 C  dxz             0.0       0.0       0.7       0.0       0.0       0.0
 6 C  dxy             0.0       0.0       0.0       0.0       1.5       0.0
 7 N  s               0.0       0.1       0.0      24.6       0.1       0.0
 7 N  pz             10.2       0.0      28.7       0.0       0.0       0.1
 7 N  px              0.0       0.1       0.0      59.3       0.4       0.0
 7 N  py              0.0       2.1       0.0       0.3      47.7       0.0
 7 N  dz2             0.0       0.0       0.0       0.2       0.0       0.0
 7 N  dxz             0.3       0.0       0.4       0.0       0.0       0.0
 7 N  dx2y2           0.0       0.0       0.0       0.5       0.0       0.0
 7 N  dxy             0.0       0.0       0.0       0.0       0.6       0.0
 8 O  s               0.0       3.2       0.0       0.0       0.0       0.0
 8 O  pz             21.3       0.0      18.6       0.0       0.0       0.0
 8 O  px              0.0       5.9       0.0       0.0       0.0       0.0
 8 O  py              0.0      17.1       0.0       0.0       0.0       0.0
 9 H  s               0.0       5.9       0.0       0.0       0.4       0.0
10 H  s               0.0       2.3       0.0       0.1       0.7       0.0
11 H  s               0.0       4.6       0.0       0.0       0.9       0.0
12 H  s               0.0       4.1       0.0       0.1       0.3       0.0
13 H  s               0.0       2.3       0.0       0.0       0.0       0.0

                     30        31        32        33        34        35   
                  -0.21759  -0.06949  -0.06006   0.00192   0.01049   0.03264
                   2.00000   0.00000   0.00000   0.00000   0.00000   0.00000
                  --------  --------  --------  --------  --------  --------
 0 C  s               0.0       0.0       0.0       0.4       1.6       4.2
 0 C  pz              3.8      14.1      21.5       0.0       0.0       0.0
 0 C  px              0.0       0.0       0.0       0.1       1.7       0.7
 0 C  py              0.0       0.0       0.0       0.3       0.3       2.7
 0 C  dz2             0.0       0.0       0.0       0.1       0.1       0.1
 0 C  dxz             0.4       0.2       0.7       0.0       0.0       0.0
 0 C  dyz             0.1       0.4       0.0       0.0       0.0       0.0
 0 C  dx2y2           0.0       0.0       0.0       0.1       0.1       0.2
 0 C  dxy             0.0       0.0       0.0       0.3       0.0       0.6
 1 C  s               0.0       0.0       0.0       1.8       0.0       2.7
 1 C  pz             10.0       0.9      24.0       0.0       0.0       0.0
 1 C  px              0.0       0.0       0.0       1.1       0.7       0.8
 1 C  py              0.0       0.0       0.0       2.5       0.2       2.2
 1 C  dxz             0.2       0.8       0.6       0.0       0.0       0.0
 1 C  dyz             0.1       0.4       0.0       0.0       0.0       0.0
 1 C  dx2y2           0.0       0.0       0.0       0.3       0.0       0.6
 1 C  dxy             0.0       0.0       0.0       0.1       0.0       0.6
 2 C  s               0.0       0.0       0.0       0.0       0.0       0.8
 2 C  pz             12.9      22.0       0.2       0.0       0.0       0.0
 2 C  px              0.0       0.0       0.0       0.6       0.1       2.4
 2 C  py              0.0       0.0       0.0       0.2       0.0       0.0
 2 C  dz2             0.0       0.0       0.0       0.0       0.0       0.1
 2 C  dxz             0.8       0.0       0.0       0.0       0.0       0.0
 2 C  dyz             0.0       0.0       1.6       0.0       0.0       0.0
 2 C  dx2y2           0.0       0.0       0.0       0.0       0.0       1.9
 2 C  dxy             0.0       0.0       0.0       0.5       0.2       0.0
 3 C  s               0.0       0.0       0.0       0.1       0.8       1.9
 3 C  pz             11.0       2.4      22.8       0.0       0.0       0.0
 3 C  px              0.0       0.0       0.0       0.4       0.1       0.5
 3 C  py              0.0       0.0       0.0       0.2       0.0       1.3
 3 C  dxz             0.1       0.6       0.8       0.0       0.0       0.0
 3 C  dyz             0.1       0.4       0.0       0.0       0.0       0.0
 3 C  dx2y2           0.0       0.0       0.0       0.1       0.1       0.5
 3 C  dxy             0.0       0.0       0.0       0.1       0.0       0.6
 4 C  s               0.0       0.0       0.0       0.1       2.1       3.6
 4 C  pz              2.3       9.9      25.3       0.0       0.0       0.0
 4 C  px              0.0       0.0       0.0       0.5       0.8       0.5
 4 C  py              0.0       0.0       0.0       0.2       0.3       1.9
 4 C  dz2             0.0       0.0       0.0       0.0       0.1       0.1
 4 C  dxz             0.4       0.3       0.6       0.0       0.0       0.0
 4 C  dyz             0.2       0.4       0.0       0.0       0.0       0.0
 4 C  dx2y2           0.0       0.0       0.0       0.0       0.2       0.2
 4 C  dxy             0.0       0.0       0.0       0.0       0.0       0.5
 5 C  s               0.0       0.0       0.0       0.1       0.0       0.5
 5 C  pz             20.0      17.2       0.0       0.0       0.0       0.0
 5 C  px              0.0       0.0       0.0       0.0       0.0       0.9
 5 C  py              0.0       0.0       0.0       0.3       0.8       0.0
 5 C  dxz             0.1       0.7       0.0       0.0       0.0       0.0
 5 C  dyz             0.0       0.0       1.6       0.0       0.0       0.0
 5 C  dx2y2           0.0       0.0       0.0       0.1       0.0       1.2
 5 C  dxy             0.0       0.0       0.0       0.5       2.8       0.0
 6 C  s               0.0       0.0       0.0       0.0       0.0       2.0
 6 C  pz              1.1       6.1       0.0       0.0       0.0       0.0
 6 C  px              0.0       0.0       0.0       0.1       0.0       1.1
 6 C  py              0.0       0.0       0.0       4.6      34.0       0.0
 6 C  dz2             0.0       0.0       0.0       0.0       0.0       0.2
 6 C  dxz             1.3       2.1       0.0       0.0       0.0       0.0
 6 C  dx2y2           0.0       0.0       0.0       0.0       0.0       0.7
 6 C  dxy             0.0       0.0       0.0       0.5       2.7       0.0
 7 N  s               0.0       0.0       0.0       0.0       0.0       0.5
 7 N  pz             14.1      14.8       0.0       0.0       0.0       0.0
 7 N  px              0.0       0.0       0.0       0.0       0.0       0.3
 7 N  py              0.0       0.0       0.0       5.0      35.9       0.0
 7 N  dxz             0.0       0.1       0.0       0.0       0.0       0.0
 7 N  dxy             0.0       0.0       0.0       0.1       0.9       0.0
 8 O  s               0.0       0.0       0.0       7.2       1.3       1.6
 8 O  pz             21.0       5.9       0.0       0.0       0.0       0.0
 8 O  px              0.0       0.0       0.0       1.3       0.2       1.0
 8 O  py              0.0       0.0       0.0       8.5       1.0       0.6
 8 O  dxz             0.0       0.2       0.0       0.0       0.0       0.0
 8 O  dxy             0.0       0.0       0.0       0.1       0.0       0.0
 9 H  s               0.0       0.0       0.0       0.3       0.7      17.5
10 H  s               0.0       0.0       0.0       9.1       0.5      13.7
11 H  s               0.0       0.0       0.0       0.2       0.5       9.5
12 H  s               0.0       0.0       0.0       0.1       0.6      13.7
13 H  s               0.0       0.0       0.0      52.0       8.0       2.5

                     36        37        38        39        40        41   
                   0.04912   0.06795   0.09283   0.12336   0.12594   0.15527
                   0.00000   0.00000   0.00000   0.00000   0.00000   0.00000
                  --------  --------  --------  --------  --------  --------
 0 C  s               0.0       1.1       1.9       1.6       0.0       3.2
 0 C  pz              2.2       0.0       0.0       0.0      10.1       0.0
 0 C  px              0.0       0.5       1.5       0.2       0.0       4.2
 0 C  py              0.0       3.9       2.3       3.7       0.0       1.4
 0 C  dz2             0.0       0.0       0.0       0.0       0.0       0.5
 0 C  dxz             0.5       0.0       0.0       0.0       0.0       0.0
 0 C  dyz             0.1       0.0       0.0       0.0       1.2       0.0
 0 C  dx2y2           0.0       0.0       0.0       0.0       0.0       0.9
 0 C  dxy             0.0       0.3       0.0       0.0       0.0       1.2
 1 C  s               0.0       0.9       2.9       1.8       0.0       0.7
 1 C  pz             12.1       0.0       0.0       0.0       6.4       0.0
 1 C  px              0.0       0.7       2.0       0.3       0.0       0.1
 1 C  py              0.0       3.9       2.3       2.2       0.0       0.8
 1 C  dz2             0.0       0.0       0.2       0.1       0.0       0.1
 1 C  dxz             0.0       0.0       0.0       0.0       0.2       0.0
 1 C  dyz             0.7       0.0       0.0       0.0       0.2       0.0
 1 C  dx2y2           0.0       0.1       0.4       0.0       0.0       0.1
 1 C  dxy             0.0       0.3       0.1       0.2       0.0       0.7
 2 C  s               0.0       0.1       0.6       0.1       0.0       4.2
 2 C  pz             19.5       0.0       0.0       0.0       7.4       0.0
 2 C  px              0.0       0.3       2.7       0.2       0.0       0.4
 2 C  py              0.0       0.9       0.1       0.9       0.0       0.0
 2 C  dz2             0.0       0.0       0.0       0.0       0.0       0.7
 2 C  dx2y2           0.0       0.0       1.5       0.0       0.0       0.1
 2 C  dxy             0.0       0.2       0.0       0.0       0.0       0.0
 3 C  s               0.0       2.1       2.3       4.1       0.0       0.6
 3 C  pz             12.8       0.0       0.0       0.0       6.8       0.0
 3 C  px              0.0       1.7       1.6       0.9       0.0       0.1
 3 C  py              0.0       5.0       2.3       3.5       0.0       0.8
 3 C  dz2             0.0       0.0       0.1       0.2       0.0       0.1
 3 C  dxz             0.0       0.0       0.0       0.0       0.2       0.0
 3 C  dyz             0.7       0.0       0.0       0.0       0.2       0.0
 3 C  dx2y2           0.0       0.0       0.4       0.1       0.0       0.1
 3 C  dxy             0.0       0.5       0.0       0.2       0.0       0.6
 4 C  s               0.0       1.6       1.1       2.6       0.0       3.2
 4 C  pz              2.4       0.0       0.0       0.0      10.4       0.0
 4 C  px              0.0       1.9       1.0       0.1       0.0       4.0
 4 C  py              0.0       5.7       0.8       4.4       0.0       1.3
 4 C  dz2             0.0       0.0       0.0       0.1       0.0       0.5
 4 C  dxz             0.5       0.0       0.0       0.0       0.0       0.0
 4 C  dyz             0.1       0.0       0.0       0.0       1.2       0.0
 4 C  dx2y2           0.0       0.1       0.0       0.1       0.0       0.9
 4 C  dxy             0.0       0.6       0.0       0.0       0.0       1.1
 5 C  s               0.0       0.0       0.8       0.0       0.0      16.6
 5 C  pz              1.7       0.0       0.0       0.0      26.2       0.0
 5 C  px              0.0       0.0       3.6       0.0       0.0       2.8
 5 C  py              0.0       1.1       0.0       1.1       0.0       0.0
 5 C  dz2             0.0       0.0       0.0       0.0       0.0       1.1
 5 C  dxz             1.2       0.0       0.0       0.0       0.1       0.0
 5 C  dx2y2           0.0       0.1       0.5       0.0       0.0       0.4
 5 C  dxy             0.0       0.3       0.0       0.3       0.0       0.0
 6 C  s               0.0       0.1       5.6       0.0       0.0      17.8
 6 C  pz             23.0       0.0       0.0       0.0      17.7       0.0
 6 C  px              0.0       0.1       1.7       0.0       0.0       3.5
 6 C  py              0.0       0.4       0.0       3.2       0.0       0.0
 6 C  dz2             0.0       0.0       0.4       0.0       0.0       1.2
 6 C  dxz             0.9       0.0       0.0       0.0       0.0       0.0
 6 C  dx2y2           0.0       0.0       1.4       0.0       0.0       5.7
 7 N  s               0.0       0.0       1.4       0.0       0.0       4.1
 7 N  pz             18.1       0.0       0.0       0.0      10.1       0.0
 7 N  px              0.0       0.0       0.5       0.0       0.0       1.3
 7 N  py              0.0       0.1       0.0       0.6       0.0       0.0
 7 N  dxz             0.8       0.0       0.0       0.0       0.8       0.0
 7 N  dxy             0.0       0.0       0.0       0.1       0.0       0.0
 8 O  s               0.0       0.9       0.7       0.6       0.0       0.5
 8 O  pz              2.6       0.0       0.0       0.0       0.7       0.0
 8 O  px              0.0       0.1       0.5       0.0       0.0       1.0
 8 O  py              0.0       0.3       0.3       0.2       0.0       0.0
 8 O  dxz             0.2       0.0       0.0       0.0       0.1       0.0
 8 O  dx2y2           0.0       0.0       0.0       0.0       0.0       0.2
 9 H  s               0.0      11.2      15.6      14.5       0.0       4.8
10 H  s               0.0      11.6      15.4      10.8       0.0       0.6
11 H  s               0.0      18.6      14.9      22.6       0.0       0.6
12 H  s               0.0      19.9       7.5      17.7       0.0       5.0
13 H  s               0.0       2.8       1.1       0.5       0.0       0.1

                     42        43        44        45        46        47   
                   0.17612   0.21556   0.23642   0.24873   0.25282   0.29544
                   0.00000   0.00000   0.00000   0.00000   0.00000   0.00000
                  --------  --------  --------  --------  --------  --------
 0 C  s               0.4       6.2       0.1      10.7       0.9       7.1
 0 C  px              1.1       2.8       0.1       0.7       6.9       4.6
 0 C  py              0.6       1.1       1.0       3.9       4.0       0.3
 0 C  dz2             0.5       0.4       0.2       2.7       0.0       2.4
 0 C  dx2y2           0.4       1.8       1.8       0.0       2.3       2.1
 0 C  dxy             0.7       0.3       0.0       2.2       2.0       0.0
 1 C  s               6.8       1.4       0.9       1.0       6.3       7.4
 1 C  px              0.2       2.9       1.3       6.2       2.4       4.9
 1 C  py              0.1       0.5       0.4       5.3       2.2       1.9
 1 C  dz2             0.0       0.9       0.7       0.6       0.9       2.2
 1 C  dx2y2           0.5       2.7       1.1       2.8       0.0       3.0
 1 C  dxy             1.7       0.0       0.1       2.5       0.9       0.0
 2 C  s              10.6       1.4      10.2       6.2       9.5       0.0
 2 C  px             11.6       4.6       2.4       1.0       1.2       0.2
 2 C  py              0.8       0.8       1.5       4.7       2.8       2.4
 2 C  dz2             4.7       0.4       0.4       1.4       2.5       0.0
 2 C  dx2y2           1.5       1.9       0.3       1.1       0.0       0.1
 2 C  dxy             0.6       0.3       0.4       0.5       0.1       4.5
 3 C  s               4.0       0.4       6.6       2.1       0.1       6.6
 3 C  px              0.1       4.2       2.5       2.1       3.1       5.9
 3 C  py              0.5       2.5       4.2       1.0       1.6       2.0
 3 C  dz2             0.2       0.1       2.7       0.2       0.0       1.6
 3 C  dx2y2           0.5       2.5       1.1       1.5       0.4       4.5
 3 C  dxy             0.5       0.9       2.4       0.6       0.9       0.0
 4 C  s               1.1       4.2       2.2       0.1       9.2       7.5
 4 C  px              0.3       1.1       2.9       6.4       0.5       4.9
 4 C  py              0.5       0.3       4.3       1.9       3.5       0.7
 4 C  dz2             0.6       0.2       0.8       0.1       1.8       2.5
 4 C  dx2y2           0.1       0.9       3.8       1.1       0.5       1.9
 4 C  dxy             0.1       1.5       1.7       1.2       0.7       0.0
 5 C  s               6.1       9.7       1.4       4.8      12.8       0.1
 5 C  px              1.0       4.4      11.0       1.8       0.7       0.0
 5 C  py              0.2       0.4       1.4       7.1       5.4       2.4
 5 C  dz2             0.8       3.3       0.1       1.0       3.4       0.0
 5 C  dx2y2           0.0       3.3       1.7       0.3       0.4       0.0
 5 C  dxy             0.0       0.0       0.1       0.5       0.4       2.0
 6 C  s               2.6       9.2       8.8       1.2       0.3       0.0
 6 C  px              1.5       4.1       0.6       0.0       0.0       0.0
 6 C  py              0.1       0.1       0.5       2.2       1.7       2.1
 6 C  dz2             0.3       0.2       1.8       0.0       0.3       0.0
 6 C  dx2y2           0.3       1.0       2.4       0.5       0.2       0.0
 6 C  dxy             0.0       0.0       0.0       0.2       0.2       0.3
 7 N  s               1.0       0.7       2.4       0.2       0.0       0.0
 7 N  px              0.1       0.7       1.0       0.1       0.0       0.0
 7 N  py              0.0       0.0       0.0       0.3       0.2       1.0
 7 N  dx2y2           0.0       0.1       0.1       0.0       0.0       0.0
 7 N  dxy             0.0       0.0       0.0       0.0       0.0       0.3
 8 O  s               3.0       0.4       0.1       0.1       0.7       0.4
 8 O  px             11.9       2.6       0.0       0.4       1.5       0.0
 8 O  py              0.7       0.1       0.0       0.6       0.7       2.6
 8 O  dx2y2           0.6       0.0       0.2       0.1       0.2       0.0
 8 O  dxy             0.2       0.1       0.1       0.2       0.0       0.7
 9 H  s               1.8       3.1       3.9       0.4       0.3       1.2
10 H  s               8.2       0.4       2.1       0.4       0.4       1.3
11 H  s               3.9       0.0       0.4       2.0       1.0       0.4
12 H  s               0.8       5.5       1.4       0.9       0.7       1.4
13 H  s               3.7       1.0       0.3       2.9       0.9       2.5

                     48        49        50        51        52        53   
                   0.31263   0.36164   0.37861   0.38620   0.40277   0.42618
                   0.00000   0.00000   0.00000   0.00000   0.00000   0.00000
                  --------  --------  --------  --------  --------  --------
 0 C  s               3.4      10.9       5.6       0.1       0.0       2.0
 0 C  pz              0.0       0.0       0.0       0.0      19.8       0.0
 0 C  px              3.6       0.9       0.1       8.8       0.0       4.6
 0 C  py              0.6       0.5       0.6       2.7       0.0       4.3
 0 C  dz2             0.0       1.9       3.0       0.0       0.0       1.4
 0 C  dx2y2           1.6       0.0       0.0       1.4       0.0       0.0
 0 C  dxy             0.3       1.0       0.4       0.0       0.0       1.1
[...]
 3 C  dz2             0.2       0.0       0.0       0.8       0.0       0.0
 3 C  dyz             0.0       0.0       0.7       0.0       0.0       0.0
 3 C  dx2y2           0.6       1.6       0.0       0.2       0.0       2.7
 3 C  dxy            13.0       0.1       0.0       1.6       0.0       0.4
 4 C  s               0.3       0.4       0.0       0.2       0.0       0.4
 4 C  px              0.8       0.1       0.0       0.1       0.0       0.0
 4 C  py              0.8       0.1       0.0       0.0       0.0       0.2
 4 C  dz2             0.5       0.3       0.0       0.3       0.0       0.0
 4 C  dyz             0.0       0.0       0.0       0.0       0.5       0.0
 4 C  dx2y2           1.8       0.6       0.0       0.1       0.0       0.8
 4 C  dxy            15.2       0.7       0.0       0.2       0.0       0.0
 5 C  s               0.0       1.2       0.0       2.6       0.0       0.0
 5 C  pz              0.0       0.0       0.0       0.0       0.2       0.0
 5 C  px              0.0       0.1       0.0       1.4       0.0       0.0
 5 C  py              5.0       0.0       0.0       0.0       0.0       0.1
 5 C  dz2             0.0       1.0       0.0       2.4       0.0       0.0
 5 C  dxz             0.0       0.0       0.0       0.0       8.9       0.0
 5 C  dx2y2           0.0       0.1       0.0       4.1       0.0       0.7
 5 C  dxy             3.4       0.0       0.0       0.0       0.0       8.4
 6 C  s               0.0       0.1       0.0       1.0       0.0       0.0
 6 C  pz              0.0       0.0       0.0       0.0       1.1       0.0
 6 C  px              0.0       0.3       0.0       4.5       0.0       0.2
 6 C  py              0.4       0.0       0.0       0.0       0.0       0.2
 6 C  dz2             0.0       1.0       0.0       3.9       0.0       0.0
 6 C  dxz             0.0       0.0       0.1       0.0      35.6       0.0
 6 C  dx2y2           0.0       2.5       0.0      12.3       0.0       0.1
 6 C  dxy             2.7       0.2       0.0       0.1       0.0      11.1
 7 N  s               0.0       1.1       0.0       6.8       0.0       0.1
 7 N  pz              0.0       0.0       0.0       0.0       1.6       0.0
 7 N  px              0.0       0.8       0.0       4.2       0.0       0.1
 7 N  py              0.2       0.0       0.0       0.0       0.0       0.5
 7 N  dz2             0.0       0.8       0.0       7.2       0.0       0.2
 7 N  dxz             0.0       0.0       0.1       0.0      51.1       0.0
 7 N  dx2y2           0.0       2.9       0.0      21.3       0.0       0.5
 7 N  dxy             8.6       0.8       0.0       0.2       0.0      12.8
 8 O  s               0.0       1.4       0.0       1.0       0.0       0.0
 8 O  pz              0.0       0.0       1.0       0.0       0.0       0.0
 8 O  px              0.0       0.1       0.0       0.2       0.0       0.0
 8 O  py              0.1       2.9       0.0       0.3       0.0       0.1
 8 O  dz2             1.5      47.7       0.0      10.0       0.0       0.2
 8 O  dxz             0.0       0.0      77.2       0.0       0.1       0.0
 8 O  dyz             0.0       0.0       0.4       0.0       0.0       0.0
 8 O  dx2y2           0.9      16.5       0.0       0.1       0.0       0.4
 8 O  dxy             6.2       1.6       0.0       0.0       0.0      33.0
 9 H  s               0.3       0.0       0.0       0.0       0.0       0.0
10 H  s               0.3       0.0       0.0       0.1       0.0       0.0
11 H  s               0.4       0.0       0.0       0.0       0.0       0.0
12 H  s               0.3       0.1       0.0       0.0       0.0       0.0
13 H  s               0.0       6.0       0.0       0.5       0.0       0.8

                    132       133       134       135   
                   3.16378   3.19305   3.38206   3.50102
                   0.00000   0.00000   0.00000   0.00000
                  --------  --------  --------  --------
 0 C  s               0.7       0.1       0.2       0.2
 0 C  px              0.3       0.7       0.1       0.1
 0 C  py              0.0       0.6       0.0       0.0
 0 C  dz2             0.5       0.1       0.1       0.0
 0 C  dx2y2           6.2       2.4       0.2       1.0
 0 C  dxy             3.6       1.3       1.1       3.3
 1 C  s               1.0       0.1       0.3       0.2
 1 C  px              0.4       0.6       0.0       0.0
 1 C  py              0.0       0.5       0.0       0.1
 1 C  dz2             0.7       0.1       0.0       0.0
 1 C  dx2y2           2.1       2.5       1.3       0.8
 1 C  dxy             2.8       1.0       2.2       3.0
 2 C  s               3.5       0.7       0.8       0.1
 2 C  px              1.1       0.2       2.2       0.8
 2 C  py              0.0       0.2       0.0       0.0
 2 C  dz2             2.2       0.5       0.4       0.0
 2 C  dx2y2           0.2       0.1      12.0       6.2
 2 C  dxy             0.2      10.1       0.1       0.0
 3 C  s               0.4       0.4       0.3       0.2
 3 C  px              0.0       1.0       0.0       0.0
 3 C  py              0.1       0.3       0.0       0.0
 3 C  dz2             0.4       0.2       0.1       0.1
 3 C  dx2y2           0.1       5.6       1.0       0.8
 3 C  dxy             3.3       0.2       2.4       3.1
 4 C  s               1.0       0.3       0.2       0.2
 4 C  px              0.1       1.0       0.1       0.1
 4 C  py              0.3       0.4       0.0       0.0
 4 C  dz2             0.5       0.1       0.1       0.0
 4 C  dx2y2           0.3       7.4       0.2       1.0
 4 C  dxy             5.3       0.2       1.1       3.4
 5 C  s               0.4       0.1       1.4       0.5
 5 C  px              0.1       0.0       0.6       2.0
 5 C  py              0.1       0.3       0.0       0.0
 5 C  dz2             0.2       0.0       0.6       0.2
 5 C  dx2y2           8.9       1.2       0.0      10.9
 5 C  dxy             4.1      14.1       0.0       0.0
 6 C  s               0.7       0.1       4.9       8.6
 6 C  px              2.2       0.3       2.8       2.0
 6 C  dz2             0.1       0.0       2.6       4.9
 6 C  dx2y2           0.0       0.0       6.7      16.5
 6 C  dxy             4.1      13.2       0.0       0.0
 7 N  s               0.8       0.1       2.7       4.1
 7 N  px              0.6       0.1       2.9       4.6
 7 N  py              0.2       0.5       0.0       0.0
 7 N  dz2             2.0       0.3       3.1       2.5
 7 N  dx2y2           4.9       0.7       8.9       8.0
 7 N  dxy             3.8      10.9       0.0       0.0
 8 O  s               2.0       0.6       1.9       0.6
 8 O  px              1.5       0.3       2.3       0.7
 8 O  py              0.0       0.2       0.2       0.0
 8 O  dz2             8.1       2.0       4.5       1.0
 8 O  dx2y2          15.9       3.2      26.2       7.2
 8 O  dxy             0.8      12.6       0.6       0.2
 9 H  s               0.3       0.0       0.1       0.2
10 H  s               0.2       0.0       0.1       0.2
11 H  s               0.1       0.1       0.1       0.2
12 H  s               0.2       0.1       0.1       0.2
13 H  s               0.1       0.2       0.3       0.1


                      *****************************
                      * MAYER POPULATION ANALYSIS *
                      *****************************

  NA   - Mulliken gross atomic population
  ZA   - Total nuclear charge
  QA   - Mulliken gross atomic charge
  VA   - Mayer's total valence
  BVA  - Mayer's bonded valence
  FA   - Mayer's free valence

  ATOM       NA         ZA         QA         VA         BVA        FA
  0 C      6.0593     6.0000    -0.0593     3.8486     3.8486    -0.0000
  1 C      6.1555     6.0000    -0.1555     3.7678     3.7678     0.0000
  2 C      5.7531     6.0000     0.2469     3.9819     3.9819    -0.0000
  3 C      6.1136     6.0000    -0.1136     3.8067     3.8067    -0.0000
  4 C      6.0523     6.0000    -0.0523     3.8133     3.8133     0.0000
  5 C      6.0428     6.0000    -0.0428     3.9506     3.9506    -0.0000
  6 C      6.1296     6.0000    -0.1296     4.0857     4.0857    -0.0000
  7 N      6.9426     7.0000     0.0574     3.1496     3.1496    -0.0000
  8 O      8.3130     8.0000    -0.3130     2.1883     2.1883    -0.0000
  9 H      0.9349     1.0000     0.0651     0.9571     0.9571    -0.0000
 10 H      0.9567     1.0000     0.0433     0.9639     0.9639    -0.0000
 11 H      0.9388     1.0000     0.0612     0.9665     0.9665    -0.0000
 12 H      0.9333     1.0000     0.0667     0.9573     0.9573     0.0000
 13 H      0.6743     1.0000     0.3257     0.8708     0.8708    -0.0000

  Mayer bond orders larger than 0.100000
B(  0-C ,  1-C ) :   1.3675 B(  0-C ,  5-C ) :   1.3525 B(  0-C ,  9-H ) :   0.9620 
B(  1-C ,  2-C ) :   1.2876 B(  1-C , 10-H ) :   0.9575 B(  2-C ,  3-C ) :   1.3320 
B(  2-C ,  8-O ) :   1.2195 B(  3-C ,  4-C ) :   1.3760 B(  3-C , 11-H ) :   0.9635 
B(  4-C ,  5-C ) :   1.3295 B(  4-C , 12-H ) :   0.9666 B(  5-C ,  6-C ) :   1.1160 
B(  6-C ,  7-N ) :   2.9870 B(  8-O , 13-H ) :   0.8362 

-------
TIMINGS
-------

Total SCF time: 0 days 0 hours 0 min 5 sec 

Total time                  ....       5.636 sec
Sum of individual times     ....       5.255 sec  ( 93.2%)

SCF preparation             ....       0.156 sec  (  2.8%)
Fock matrix formation       ....       4.452 sec  ( 79.0%)
  Startup                   ....       0.042 sec  (  0.9% of F)
  Split-RI-J                ....       1.506 sec  ( 33.8% of F)
  XC integration            ....       2.531 sec  ( 56.8% of F)
    XC Preparation          ....       0.000 sec  (  0.0% of XC)
    Basis function eval.    ....       0.762 sec  ( 30.1% of XC)
    Density eval.           ....       0.393 sec  ( 15.5% of XC)
    XC-Functional eval.     ....       0.202 sec  (  8.0% of XC)
    XC-Potential eval.      ....       0.598 sec  ( 23.6% of XC)
Diagonalization             ....       0.000 sec  (  0.0%)
Density matrix formation    ....       0.145 sec  (  2.6%)
Total Energy calculation    ....       0.023 sec  (  0.4%)
Population analysis         ....       0.068 sec  (  1.2%)
Orbital Transformation      ....       0.043 sec  (  0.8%)
Orbital Orthonormalization  ....       0.000 sec  (  0.0%)
DIIS solution               ....       0.308 sec  (  5.5%)
  MO trafo                  ....       0.000 sec  (  0.0 % of DIIS)
  Orb grad                  ....       0.000 sec  (  0.0 % of DIIS)
  Energy W gradient         ....       0.000 sec  (  0.0 % of DIIS)
  DIIS error                ....       0.003 sec  (  1.0 % of DIIS)
  DIIS work                 ....       0.274 sec  ( 88.7 % of DIIS)
  Form Q                    ....       0.000 sec  (  0.0 % of DIIS)
  Form QpQm                 ....       0.000 sec  (  0.0 % of DIIS)
  Exp/Cayley                ....       0.000 sec  (  0.0 % of DIIS)
  Orb update                ....       0.000 sec  (  0.0 % of DIIS)
  Wake-sleep                ....       0.012 sec  (  3.8 % of DIIS)
SOSCF solution              ....       0.060 sec  (  1.1%)
  MO trafo                  ....       0.034 sec  ( 56.0 % of SOSCF)
  Orb grad                  ....       0.001 sec  (  1.6 % of SOSCF)
  Rot update                ....       0.011 sec  ( 19.1 % of SOSCF)
  Step                      ....       0.014 sec  ( 23.2 % of SOSCF)
Finished LeanSCF after   5.7 sec

Maximum memory used throughout the entire LEANSCF-calculation: 11.8 MB


-------------------------------------------------------------------------------
                          DFT DISPERSION CORRECTION                            
                                                                               
                                DFTD4 V3.4.0                                   
-------------------------------------------------------------------------------
The PBE functional is recognized
Active option DFTDOPT                   ...         5   

-------------------------   ----------------
Dispersion correction           -0.014799429
-------------------------   ----------------

------------------   -----------------
gCP correction             0.053587989
------------------   -----------------

-------------------------   --------------------
FINAL SINGLE POINT ENERGY      -398.884576729554
-------------------------   --------------------


------------------------------------------------------------------------------
                              ORCA PROPERTY CALCULATIONS
------------------------------------------------------------------------------

GBWName                                 ... sp.gbw
Number of atoms                         ...     14
Number of basis functions               ...    136
Max core memory                         ...   1024 MB

Electric properties:
Dipole moment                           ... YES
Quadrupole moment                       ...  NO
Static polarizability (Dipole/Dipole)   ...  NO
Static polarizability (Dipole/Quad.)    ...  NO
Static polarizability (Quad./Quad.)     ...  NO
Static polarizability (Velocity)        ...  NO

Atomic electric properties:
Dipole moment                           ...  NO
Quadrupole moment                       ...  NO
Static polarizability                   ...  NO

Choice of electric origin               ... Center of mass
Position of electric origin             ...    -0.000034    -0.000001     0.000000

General magnetic properties:
Magnetizability                         ...  NO

EPR properties:
g-Tensor (aka g-matrix)                 ...  NO
Zero-Field splitting spin-orbit         ...  NO
Zero-field splitting spin-spin          ...  NO
Hyperfine couplings                     ...  NO (   0 nuclei)
Quadrupole couplings                    ...  NO (   0 nuclei)
Contact density                         ...  NO (   0 nuclei)

NMR properties:
Chemical shifts                         ...  NO (   0 nuclei)
Spin-rotation constants                 ...  NO (   0 nuclei)
Spin-spin couplings                     ...  NO (   0 nuclei,    0 pairs)

Choice of magnetic origin               ... GIAO
Position of magnetic origin             ...     0.000000     0.000000     0.000000

Properties with geometric perturbations:
SCF Hessian                             ...  NO
IR spectrum                             ...  NO
VCD spectrum                            ...  NO
X-ray spectroscopy properties:
SCF XES/XAS/RIXS spectra                ...  NO


-------------
DIPOLE MOMENT
-------------

Method             : SCF
Type of density    : Electron Density
Multiplicity       :   1
Irrep              :   0
Energy             :  -398.9233652903723737 Eh
Relativity type    : 
Basis              : AO
                                X                 Y                 Z
Electronic contribution:     -2.586925738       0.251544872       0.000066030
Nuclear contribution   :      4.618174797      -0.791937771      -0.000059239
                        -----------------------------------------
Total Dipole Moment    :      2.031249059      -0.540392899       0.000006791
                        -----------------------------------------
Magnitude (a.u.)       :      2.101903239
Magnitude (Debye)      :      5.342613448



--------------------
Rotational spectrum 
--------------------
 
Rotational constants in cm-1:             0.188778             0.033561             0.028495 
Rotational constants in MHz :          5659.420504          1006.124818           854.256202 

Dipole components along the rotational axes: 
x,y,z [a.u.] :     2.031249    -0.540392     0.000007 
x,y,z [Debye]:     5.163026    -1.373567     0.000017 

 

Dipole moment calculation done in   0.0 sec 

Maximum memory used throughout the entire PROP-calculation: 7.7 MB

--------------------------------
SUGGESTED CITATIONS FOR THIS RUN
--------------------------------

Below you find a list of papers that are relevant to this ORCA run
We neither can nor want to force you to cite these papers, but we appreciate if you do
You receive ORCA, which is the product of decades of hard work by many enthusiastic individuals, for free
The only thing we kindly ask in return is that you cite our papers,
We deeply appreciate it, if you show your appreciation for ORCA by not just citing the generic ORCA reference.

Please note that relegating all ORCA citations to the supporting information does *not* help us.
SI sections are not indexed - citations you put there will not count into any citation statistics
But we need these citations in order to attract the funding resources that allow us to do what we are doing

Therefore, if you are a happy ORCA user, please consider citing a few of the papers listed below in the main body of your paper

In addition to the list printed below, the program has created the file sp.bibtex that contains the list in bibtex format
You can import this file easily into all common literature databanks and citation aid programs


List of essential papers. We consider these as the minimum necessary citations

  1. Neese,F.
     Software update: the ORCA program system, version 5.0
     WIRES Comput. Molec. Sci., 2022 12(1)e1606
     doi.org/10.1002/wcms.1606

List of papers to cite with high priority. The work reported in these papers was absolutely
necessary for this run to complete.
Our perspective: the developers of density functionals and basis sets usually get cited in chemistry papers
Good! But without the algorithms to do something with them, the functionals or basis sets would not do anything.
Hence, in our opinion, the algorithm design and method developments papers are equally worthy of getting cited

  1. Neese,F.
     An improvement of the resolution of the identity approximation for the formation of the Coulomb matrix
     J. Comp. Chem., 2003 24(14)1740-1747
     doi.org/10.1002/jcc.10318
  2. Neese,F.
     The SHARK Integral Generation and Digestion System
     J. Comp. Chem., 2022  1-16
     doi.org/10.1002/jcc.26942
  3. Caldeweyher,E.; Bannwarth,C.; Grimme,S.
     Extension of the D3 dispersion coefficient model
     J. Chem. Phys., 2017 147 034112-XXXX
     doi.org/10.1063/1.4993215
  4. Caldeweyher,E.; Ehlert,S.; Hansen,A.; Neugebauer,H.; Spicher,S.; Bannwarth,C.; Grimme,S.
     A generally applicable atomic-charge dependent London dispersion correction
     J. Chem. Phys., 2019 150 154122-XXXX
     doi.org/10.1063/1.5090222
  5. Caldeweyher,E.; Mewes,J.; Ehlert,S.; Grimme,S.
     Extension and evaluation of the D4 London-dispersion model for periodic systems
     Phys. Chem. Chem. Phys., 2020 22(16)8499-8512
     doi.org/10.1039/D0CP00502A

List of suggested additional citations. These are papers that are important in the 'surrounding' of 
of this run, or papers that preceded the highly important papers. If you like your results we are grateful for a citation.

  1. Neese,F.
     The ORCA program system
     WIRES Comput. Molec. Sci., 2012 2(1)73-78
     doi.org/10.1002/wcms.81
  2. Neese,F.
     Software update: the ORCA program system, version 4.0
     WIRES Comput. Molec. Sci., 2018 8(1)1-6
     doi.org/10.1002/wcms.1327
  3. Neese,F.; Wennmohs,F.; Becker,U.; Riplinger,C.
     The ORCA quantum chemistry program package
     J. Chem. Phys., 2020 152 Art. No. L224108
     doi.org/10.1063/5.0004608

List of optional additional citations

  1. Neese,F.
     Approximate second-order SCF convergence for spin unrestricted wavefunctions
     Chem. Phys. Lett., 2000 325(1-3)93-98
     doi.org/10.1016/s0009-2614(00)00662-x

Timings for individual modules:

Sum of individual times          ...        7.038 sec (=   0.117 min)
Startup calculation              ...        0.588 sec (=   0.010 min)   8.4 %
SCF iterations                   ...        6.358 sec (=   0.106 min)  90.3 %
Property calculations            ...        0.092 sec (=   0.002 min)   1.3 %
                             ****ORCA TERMINATED NORMALLY****
TOTAL RUN TIME: 0 days 0 hours 0 minutes 7 seconds 632 msec
