      -----------------------------------------------------------      
     |                   =====================                   |     
     |                           x T B                           |     
     |                   =====================                   |     
     |                         S. Grimme                         |     
     |          Mulliken Center for Theoretical Chemistry        |     
     |                    University of Bonn                     |     
      -----------------------------------------------------------      

   * xtb version 6.7.1 (edcfbbe) compiled by 'albert@albert-system' on 2024-07-22

   xtb is free software: you can redistribute it and/or modify it under
   the terms of the GNU Lesser General Public License as published by
   the Free Software Foundation, either version 3 of the License, or
   (at your option) any later version.
   
   xtb is distributed in the hope that it will be useful,
   but WITHOUT ANY WARRANTY; without even the implied warranty of
   MERCHANTABILITY or FITNESS FOR A PARTICULAR PURPOSE.  See the
   GNU Lesser General Public License for more details.
   
   Cite this work as:
   * C. Bannwarth, E. Caldeweyher, S. Ehlert, A. Hansen, P. Pracht,
     J. Seibert, S. Spicher, S. Grimme, WIREs Comput. Mol. Sci., 2020, 11,
     e01493. DOI: 10.1002/wcms.1493
   
   for GFN2-xTB:
   * C. Bannwarth, S. Ehlert and S. Grimme., J. Chem. Theory Comput., 2019,
     15, 1652-1671. DOI: 10.1021/acs.jctc.8b01176
   for GFN1-xTB:
   * S. Grimme, C. Bannwarth, P. Shushkov, J. Chem. Theory Comput., 2017,
     13, 1989-2009. DOI: 10.1021/acs.jctc.7b00118
   for GFN0-xTB:
   * P. Pracht, E. Caldeweyher, S. Ehlert, S. Grimme, ChemRxiv, 2019, preprint.
     DOI: 10.26434/chemrxiv.8326202.v1
   for GFN-FF:
   * S. Spicher and S. Grimme, Angew. Chem. Int. Ed., 2020, 59, 15665-15673.
     DOI: 10.1002/anie.202004239
   
   for ALPB and GBSA implicit solvation:
   * S. Ehlert, M. Stahn, S. Spicher, S. Grimme, J. Chem. Theory Comput.,
     2021, 17, 4250-4261. DOI: 10.1021/acs.jctc.1c00471
   
   for ddCOSMO and CPCM-X implicit solvation:
   * M. Stahn, S. Ehlert, S. Grimme, J. Phys. Chem. A,
     2023, XX, XXXX-XXXX. DOI: 10.1021/acs.jpca.3c04382
   
   for DFT-D4:
   * E. Caldeweyher, C. Bannwarth and S. Grimme, J. Chem. Phys., 2017,
     147, 034112. DOI: 10.1063/1.4993215
   * E. Caldeweyher, S. Ehlert, A. Hansen, H. Neugebauer, S. Spicher,
     C. Bannwarth and S. Grimme, J. Chem. Phys., 2019, 150, 154122.
     DOI: 10.1063/1.5090222
   * E. Caldeweyher, J.-M. Mewes, S. Ehlert and S. Grimme, Phys. Chem. Chem. Phys.
     2020, 22, 8499-8512. DOI: 10.1039/D0CP00502A
   
   for sTDA-xTB:
   * S. Grimme and C. Bannwarth, J. Chem. Phys., 2016, 145, 054103.
     DOI: 10.1063/1.4959605
   
   in the mass-spec context:
   * V. Asgeirsson, C. Bauer and S. Grimme, Chem. Sci., 2017, 8, 4879.
     DOI: 10.1039/c7sc00601b
   * J. Koopman and S. Grimme, ACS Omega 2019, 4, 12, 15120-15133.
     DOI: 10.1021/acsomega.9b02011
   
   for metadynamics refer to:
   * S. Grimme, J. Chem. Theory Comput., 2019, 155, 2847-2862
     DOI: 10.1021/acs.jctc.9b00143
   
   for SPH calculations refer to:
   * S. Spicher and S. Grimme, J. Chem. Theory Comput., 2021, 17, 1701-1714
     DOI: 10.1021/acs.jctc.0c01306
   
   for ONIOM refer to:
   * C. Plett, A. Katbashev, S. Ehlert, S. Grimme, M. Bursch,
     Phys. Chem. Chem. Phys., 2023, 25, 17860-17868. DOI: 10.1039/D3CP02178E
   
   for DIPRO refer to:
   * J. Kohn, N. Gildemeister, S. Grimme, D. Fazzi, A. Hansen,
     J. Chem. Phys., 2023, just accepted.
   
   for PTB refer to:
   * S. Grimme, M. Mueller, A. Hansen, J. Chem. Phys., 2023, 158, 124111.
     DOI: 10.1063/5.0137838
   
   with help from (in alphabetical order)
   P. Atkinson, C. Bannwarth, F. Bohle, G. Brandenburg, E. Caldeweyher
   M. Checinski, S. Dohm, S. Ehlert, S. Ehrlich, I. Gerasimov, C. Hölzer
   A. Katbashev, J. Kohn, J. Koopman, C. Lavigne, S. Lehtola, F. März, M. Müller,
   F. Musil, H. Neugebauer, J. Pisarek, C. Plett, P. Pracht, F. Pultar,
   J. Seibert, P. Shushkov, S. Spicher, M. Stahn, M. Steiner, T. Strunk,
   J. Stückrath, T. Rose, and J. Unsleber
   
 * started run on 2025/04/09 at 05:20:52.573     
   ID    Z sym.   atoms
    1    6 C      1, 2, 7, 8, 10, 15, 16, 18, 19
    2    8 O      3, 6, 14, 17
    3   15 P      4, 12
    4   16 S      5, 9, 11, 13
    5    1 H      20-41

           -------------------------------------------------
          |                Calculation Setup                |
           -------------------------------------------------

          program call               : /srv/scratch/z5358697/.xtb/bin/xtb gas.coord --gfn2 --sp --chrg 0 --norestart --parallel 1
          hostname                   : k163
          coordinate file            : gas.coord
          omp threads                :                     1


           -------------------------------------------------
          |                 G F N 2 - x T B                 |
           -------------------------------------------------

        Reference                      10.1021/acs.jctc.8b01176
      * Hamiltonian:
        H0-scaling (s, p, d)           1.850000    2.230000    2.230000
        zeta-weighting                 0.500000
      * Dispersion:
        s8                             2.700000
        a1                             0.520000
        a2                             5.000000
        s9                             5.000000
      * Repulsion:
        kExp                           1.500000    1.000000
        rExp                           1.000000
      * Coulomb:
        alpha                          2.000000
        third order                    shell-resolved
        anisotropic                    true
        a3                             3.000000
        a5                             4.000000
        cn-shift                       1.200000
        cn-exp                         4.000000
        max-rad                        5.000000


          ...................................................
          :                      SETUP                      :
          :.................................................:
          :  # basis functions                 134          :
          :  # atomic orbitals                 128          :
          :  # shells                           66          :
          :  # electrons                       116          :
          :  max. iterations                   250          :
          :  Hamiltonian                  GFN2-xTB          :
          :  restarted?                      false          :
          :  GBSA solvation                  false          :
          :  PC potential                    false          :
          :  electronic temp.          300.0000000     K    :
          :  accuracy                    1.0000000          :
          :  -> integral cutoff          0.2500000E+02      :
          :  -> integral neglect         0.1000000E-07      :
          :  -> SCF convergence          0.1000000E-05 Eh   :
          :  -> wf. convergence          0.1000000E-03 e    :
          :  Broyden damping             0.4000000          :
          :  net charge                          0          :
          :  unpaired electrons                  0          :
          ...................................................

 iter      E             dE          RMSdq      gap      omega  full diag
   1    -65.3817449 -0.653817E+02  0.636E+00    4.24       0.0  T
   2    -65.5490888 -0.167344E+00  0.390E+00    3.04       1.0  T
   3    -65.5680111 -0.189224E-01  0.135E+00    2.94       1.0  T
   4    -65.5707199 -0.270875E-02  0.603E-01    2.70       1.0  T
   5    -65.5715633 -0.843382E-03  0.275E-01    2.82       1.0  T
   6    -65.5717188 -0.155471E-03  0.135E-01    2.80       1.0  T
   7    -65.5717884 -0.696944E-04  0.495E-02    2.81       1.0  T
   8    -65.5717977 -0.925404E-05  0.227E-02    2.82       1.0  T
   9    -65.5717990 -0.134486E-05  0.613E-03    2.82       2.5  T
  10    -65.5717992 -0.138241E-06  0.302E-03    2.82       5.2  T
  11    -65.5717992 -0.690805E-08  0.633E-04    2.82      24.7  T
  12    -65.5717992 -0.177026E-08  0.336E-04    2.82      46.5  T

   *** convergence criteria satisfied after 12 iterations ***

         #    Occupation            Energy/Eh            Energy/eV
      -------------------------------------------------------------
         1        2.0000           -0.7590175             -20.6539
       ...           ...                  ...                  ...
        52        2.0000           -0.4326488             -11.7730
        53        2.0000           -0.4097911             -11.1510
        54        2.0000           -0.4001732             -10.8893
        55        2.0000           -0.3761083             -10.2344
        56        2.0000           -0.3741999             -10.1825
        57        2.0000           -0.3677773             -10.0077
        58        2.0000           -0.3638542              -9.9010 (HOMO)
        59                         -0.2603486              -7.0844 (LUMO)
        60                         -0.2494845              -6.7888
        61                         -0.2083951              -5.6707
        62                         -0.1787136              -4.8630
        63                         -0.1678083              -4.5663
       ...                                ...                  ...
       128                          1.3160052              35.8103
      -------------------------------------------------------------
                  HL-Gap            0.1035055 Eh            2.8165 eV
             Fermi-level           -0.3121014 Eh           -8.4927 eV

 SCC (total)                   0 d,  0 h,  0 min,  0.069 sec
 SCC setup                      ...        0 min,  0.000 sec (  0.389%)
 Dispersion                     ...        0 min,  0.000 sec (  0.454%)
 classical contributions        ...        0 min,  0.000 sec (  0.084%)
 integral evaluation            ...        0 min,  0.021 sec ( 30.055%)
 iterations                     ...        0 min,  0.025 sec ( 36.418%)
 molecular gradient             ...        0 min,  0.022 sec ( 32.246%)
 printout                       ...        0 min,  0.000 sec (  0.323%)

         :::::::::::::::::::::::::::::::::::::::::::::::::::::
         ::                     SUMMARY                     ::
         :::::::::::::::::::::::::::::::::::::::::::::::::::::
         :: total energy             -65.010818272536 Eh    ::
         :: gradient norm              0.036206759366 Eh/a0 ::
         :: HOMO-LUMO gap              2.816528322520 eV    ::
         ::.................................................::
         :: SCC energy               -65.570636011169 Eh    ::
         :: -> isotropic ES            0.103583779260 Eh    ::
         :: -> anisotropic ES         -0.009887284494 Eh    ::
         :: -> anisotropic XC          0.031355832066 Eh    ::
         :: -> dispersion             -0.055083073587 Eh    ::
         :: repulsion energy           0.559817738633 Eh    ::
         :: add. restraining           0.000000000000 Eh    ::
         :: total charge              -0.000000000000 e     ::
         :::::::::::::::::::::::::::::::::::::::::::::::::::::

           -------------------------------------------------
          |                Property Printout                |
           -------------------------------------------------

    * Orbital Energies and Occupations

         #    Occupation            Energy/Eh            Energy/eV
      -------------------------------------------------------------
         1        2.0000           -0.7590175             -20.6539
       ...           ...                  ...                  ...
        46        2.0000           -0.4660245             -12.6812
        47        2.0000           -0.4636695             -12.6171
        48        2.0000           -0.4571915             -12.4408
        49        2.0000           -0.4565062             -12.4222
        50        2.0000           -0.4461867             -12.1414
        51        2.0000           -0.4426123             -12.0441
        52        2.0000           -0.4326488             -11.7730
        53        2.0000           -0.4097911             -11.1510
        54        2.0000           -0.4001732             -10.8893
        55        2.0000           -0.3761083             -10.2344
        56        2.0000           -0.3741999             -10.1825
        57        2.0000           -0.3677773             -10.0077
        58        2.0000           -0.3638542              -9.9010 (HOMO)
        59                         -0.2603486              -7.0844 (LUMO)
        60                         -0.2494845              -6.7888
        61                         -0.2083951              -5.6707
        62                         -0.1787136              -4.8630
        63                         -0.1678083              -4.5663
        64                         -0.1547070              -4.2098
        65                         -0.1447836              -3.9398
        66                         -0.1436370              -3.9086
        67                         -0.1227251              -3.3395
        68                         -0.1194806              -3.2512
        69                         -0.0441281              -1.2008
       ...                                ...                  ...
       128                          1.3160052              35.8103
      -------------------------------------------------------------
                  HL-Gap            0.1035055 Eh            2.8165 eV
             Fermi-level           -0.3121014 Eh           -8.4927 eV

     #   Z          covCN         q      C6AA      α(0)
     1   6 C        3.751    -0.118    22.815     6.812
     2   6 C        3.851     0.081    19.205     6.233
     3   8 O        1.653    -0.240    18.001     5.727
     4  15 P        3.848     0.371   144.786    21.615
     5  16 S        0.926    -0.383   155.817    21.113
     6   8 O        1.655    -0.255    18.246     5.766
     7   6 C        3.855     0.083    19.163     6.226
     8   6 C        3.751    -0.118    22.828     6.814
     9  16 S        2.018    -0.147   147.252    20.424
    10   6 C        3.807     0.041    19.880     6.347
    11  16 S        2.024    -0.172   148.344    20.499
    12  15 P        3.813     0.365   145.014    21.632
    13  16 S        0.926    -0.390   156.169    21.137
    14   8 O        1.655    -0.238    17.956     5.720
    15   6 C        3.841     0.081    19.200     6.233
    16   6 C        3.751    -0.116    22.779     6.807
    17   8 O        1.655    -0.228    17.801     5.696
    18   6 C        3.847     0.085    19.135     6.222
    19   6 C        3.751    -0.112    22.714     6.797
    20   1 H        0.925     0.066     2.135     2.285
    21   1 H        0.925     0.066     2.133     2.284
    22   1 H        0.925     0.059     2.207     2.323
    23   1 H        0.924     0.065     2.137     2.286
    24   1 H        0.924     0.059     2.206     2.323
    25   1 H        0.924     0.064     2.153     2.295
    26   1 H        0.924     0.063     2.160     2.298
    27   1 H        0.925     0.062     2.177     2.307
    28   1 H        0.925     0.061     2.183     2.311
    29   1 H        0.925     0.065     2.146     2.291
    30   1 H        0.924     0.094     1.840     2.121
    31   1 H        0.925     0.073     2.051     2.240
    32   1 H        0.924     0.069     2.092     2.262
    33   1 H        0.924     0.052     2.299     2.371
    34   1 H        0.925     0.057     2.238     2.339
    35   1 H        0.925     0.058     2.221     2.330
    36   1 H        0.925     0.069     2.095     2.263
    37   1 H        0.924     0.059     2.206     2.323
    38   1 H        0.924     0.070     2.087     2.259
    39   1 H        0.925     0.055     2.263     2.352
    40   1 H        0.925     0.058     2.220     2.330
    41   1 H        0.925     0.064     2.147     2.292

 Mol. C6AA /au·bohr⁶  :      26544.292385
 Mol. C8AA /au·bohr⁸  :     863374.700088
 Mol. α(0) /au        :        258.306676


Wiberg/Mayer (AO) data.
largest (>0.10) Wiberg bond orders for each atom

 ---------------------------------------------------------------------------
     #   Z sym  total        # sym  WBO       # sym  WBO       # sym  WBO
 ---------------------------------------------------------------------------
     1   6 C    3.987 --     2 C    1.022    21 H    0.983    20 H    0.979
                            22 H    0.979
     2   6 C    3.911 --     1 C    1.022    23 H    0.971    24 H    0.969
                             3 O    0.885
     3   8 O    2.408 --     4 P    1.330     2 C    0.885
     4  15 P    5.292 --     5 S    1.582     3 O    1.330     6 O    1.302
                             9 S    0.945
     5  16 S    1.908 --     4 P    1.582     9 S    0.141
     6   8 O    2.402 --     4 P    1.302     7 C    0.905
     7   6 C    3.908 --     8 C    1.022    25 H    0.970    26 H    0.969
                             6 O    0.905
     8   6 C    3.990 --     7 C    1.022    27 H    0.983    28 H    0.980
                            29 H    0.976
     9  16 S    2.266 --    10 C    0.996     4 P    0.945     5 S    0.141
    10   6 C    3.956 --     9 S    0.996    11 S    0.977    31 H    0.970
                            30 H    0.941
    11  16 S    2.272 --    10 C    0.977    12 P    0.953    13 S    0.157
    12  15 P    5.265 --    13 S    1.533    17 O    1.339    14 O    1.305
                            11 S    0.953
    13  16 S    1.901 --    12 P    1.533    11 S    0.157
    14   8 O    2.413 --    12 P    1.305    15 C    0.910
    15   6 C    3.912 --    16 C    1.020    32 H    0.969    33 H    0.968
                            14 O    0.910
    16   6 C    3.990 --    15 C    1.020    36 H    0.983    34 H    0.981
                            35 H    0.975
    17   8 O    2.437 --    12 P    1.339    18 C    0.902
    18   6 C    3.903 --    19 C    1.020    37 H    0.970    38 H    0.962
                            17 O    0.902
    19   6 C    3.990 --    18 C    1.020    39 H    0.985    40 H    0.981
                            41 H    0.977
    20   1 H    0.996 --     1 C    0.979
    21   1 H    0.996 --     1 C    0.983
    22   1 H    0.995 --     1 C    0.979
    23   1 H    0.996 --     2 C    0.971
    24   1 H    0.996 --     2 C    0.969
    25   1 H    0.996 --     7 C    0.970
    26   1 H    0.996 --     7 C    0.969
    27   1 H    0.996 --     8 C    0.983
    28   1 H    0.996 --     8 C    0.980
    29   1 H    0.996 --     8 C    0.976
    30   1 H    0.991 --    10 C    0.941
    31   1 H    0.995 --    10 C    0.970
    32   1 H    0.995 --    15 C    0.969
    33   1 H    0.997 --    15 C    0.968
    34   1 H    0.996 --    16 C    0.981
    35   1 H    0.997 --    16 C    0.975
    36   1 H    0.995 --    16 C    0.983
    37   1 H    0.996 --    18 C    0.970
    38   1 H    0.995 --    18 C    0.962
    39   1 H    0.997 --    19 C    0.985
    40   1 H    0.996 --    19 C    0.981
    41   1 H    0.996 --    19 C    0.977
 ---------------------------------------------------------------------------

Topologies differ in total number of bonds
Writing topology from bond orders to xtbtopo.mol

molecular dipole:
                 x           y           z       tot (Debye)
 q only:        1.529       0.001       1.919
   full:        1.278      -0.385       2.013       6.139
molecular quadrupole (traceless):
                xx          xy          yy          xz          yz          zz
 q only:        5.232      -3.566       3.963     -11.210       4.438      -9.195
  q+dip:       10.541      -5.679       3.686     -12.656       5.030     -14.227
   full:       10.163      -6.294       3.976     -12.897       5.925     -14.139


           -------------------------------------------------
          | TOTAL ENERGY              -65.010818272536 Eh   |
          | GRADIENT NORM               0.036206759366 Eh/α |
          | HOMO-LUMO GAP               2.816528322520 eV   |
           -------------------------------------------------

------------------------------------------------------------------------
 * finished run on 2025/04/09 at 05:20:52.703     
------------------------------------------------------------------------
 total:
 * wall-time:     0 d,  0 h,  0 min,  0.129 sec
 *  cpu-time:     0 d,  0 h,  0 min,  0.069 sec
 * ratio c/w:     0.537 speedup
 SCF:
 * wall-time:     0 d,  0 h,  0 min,  0.069 sec
 *  cpu-time:     0 d,  0 h,  0 min,  0.056 sec
 * ratio c/w:     0.815 speedup

