41
 energy: -2932.482435582622 gnorm: 0.001650882209 xtb: 6.7.1 (edcfbbe)
C            3.27752497646918        1.67548563565818        2.88823769047286
C            1.90866083132181        1.11707105291358        2.58658259720290
O            1.69331278172432        0.94947762041408        1.14249907609376
P            2.38955249799124       -0.22416186423741        0.29857599260512
S            2.69317857597711       -1.91047701951142        1.22462942371285
O            3.67626121813071        0.53729958479050       -0.29651821303546
C            4.89253322961651       -0.16213381892768       -0.73485233414445
C            4.72819545798681       -0.78841515399162       -2.09708771685145
S            1.13169496644514       -0.29693977288162       -1.41015933734201
C           -0.15292623708664       -1.46644633838059       -0.81633947587340
S           -1.33926515652157       -0.86114322220301        0.44733962515926
P           -2.66387651395047        0.29447074443191       -0.75189873783796
S           -3.10538380537326       -0.45664817765275       -2.49303731735976
O           -2.05098193183536        1.76737272104133       -0.89904780993478
C           -1.24324737156335        2.46646383099815        0.11662220430788
C           -2.01643007773439        2.80708171208467        1.36631239620268
O           -3.87030241388105        0.52381340894606        0.28787238553801
C           -5.08229454179482       -0.30923416437360        0.31495143013943
C           -4.85832156635156       -1.62046804601336        1.02563673363738
H            3.34561782400631        1.87454804276363        3.96279482948647
H            4.06787654497710        0.96650173494628        2.62342131347383
H            3.44473210819195        2.61383496061334        2.35155781382051
H            1.11361722711457        1.80639508050169        2.88058551006602
H            1.74069384948256        0.15117080557814        3.07323012925320
H            5.64810397235279        0.62595699957854       -0.74421148147112
H            5.15707344204771       -0.90064935885027        0.02798401655292
H            4.40696103287295       -0.04646087937178       -2.83421679589520
H            5.69667893801516       -1.19002327571591       -2.41276346817446
H            4.00790175060300       -1.61095645067266       -2.07962079587063
H            0.33621198102621       -2.33910242839170       -0.37249187467245
H           -0.70911143954473       -1.77782482862880       -1.70665146015044
H           -0.36789739703468        1.84985971890944        0.33353019039803
H           -0.92042500449133        3.36738628762105       -0.40940399083839
H           -1.38473484635797        3.45004442787686        1.98854321313302
H           -2.93475361809388        3.35244969992431        1.13007055949425
H           -2.26827458485809        1.91714193869662        1.94978159425163
H           -5.80499059569664        0.31543407813289        0.84373822872014
H           -5.42091053170068       -0.45260002501077       -0.71558095168940
H           -4.18467806303798       -2.27485180481755        0.46566720081822
H           -4.44979859771866       -1.45877669390447        2.02770987882301
H           -5.82311064888212       -2.12872237998861        1.12552794626765
41
 energy: -2932.482426443693 gnorm: 0.002406039593 xtb: 6.7.1 (edcfbbe)
C            3.27741041721894        1.67675125295982        2.88778418300617
C            1.90831915915675        1.11937037055912        2.58677359504568
O            1.69414800801199        0.95281804601321        1.14214138878906
P            2.39268744808152       -0.22039792940467        0.29922106752030
S            2.68872580578636       -1.91070474189942        1.22033045236462
O            3.67935470922609        0.54069438858481       -0.29669724272285
C            4.89422559217681       -0.16172639219091       -0.73496491361783
C            4.72821132757523       -0.78865450736141       -2.09660371970293
S            1.12956839286294       -0.29908714364403       -1.40325711240280
C           -0.15713768758855       -1.47019156260098       -0.81792864260128
S           -1.34037161373208       -0.86428910772674        0.44724092622359
P           -2.66294250284044        0.29381875585461       -0.75202888444015
S           -3.10609804633494       -0.45388661483323       -2.49337350046678
O           -2.05031137651800        1.76731628513023       -0.89878791220081
C           -1.24256544189182        2.46619911572774        0.11770100806309
C           -2.01516959414242        2.80635101392400        1.36750596551040
O           -3.86899438319020        0.52269093535091        0.28788769658583
C           -5.08164918767055       -0.30970605384851        0.31464969997629
C           -4.85859455118761       -1.62108534736702        1.02493307863303
H            3.34563883964278        1.87544890395446        3.96232252230635
H            4.06779644445918        0.96783146188620        2.62285540423838
H            3.44492615245374        2.61506546569638        2.35152784969558
H            1.11321497751200        1.80889367959995        2.87996604502181
H            1.74018396256385        0.15320349403505        3.07235814636583
H            5.65075644788679        0.62535520134677       -0.74450568874371
H            5.15646049497153       -0.90018454905877        0.02844195203485
H            4.40832909387260       -0.04690952661910       -2.83417400475084
H            5.69583905187319       -1.19249030346101       -2.41212596344490
H            4.00635344280508       -1.60995231497510       -2.07878464964809
H            0.33296890594492       -2.34193594924816       -0.37419606725424
H           -0.71242531401361       -1.78038896099340       -1.70879629807535
H           -0.36738573085937        1.84954652785806        0.33456657581892
H           -0.91975240524841        3.36703997929850       -0.40814085977400
H           -1.38316003250310        3.44959193076379        1.98895878609952
H           -2.93315484421649        3.35213621883823        1.13166540743151
H           -2.26672944511767        1.91666904419294        1.95090707855637
H           -5.80383807653210        0.31522581919022        0.84373829534745
H           -5.42032913202055       -0.45257368377645       -0.71567279875129
H           -4.18454451790938       -2.27541506959339        0.46565855749397
H           -4.45164731433238       -1.46018281498961        2.02751851834969
H           -5.82364236541207       -2.12903072925976        1.12298715927613
41
 energy: -2932.482441456519 gnorm: 0.000948436086 xtb: 6.7.1 (edcfbbe)
C            3.27734415309877        1.67701348796600        2.88731118801255
C            1.90826111710117        1.11961009141075        2.58656295554443
O            1.69299603099000        0.95244681473598        1.14200946639410
P            2.39063140651972       -0.22130413811707        0.29891617815112
S            2.68965662000534       -1.90978501596078        1.22245501447911
O            3.67724005244297        0.53984457537781       -0.29721227864185
C            4.89283190775459       -0.16231489447178       -0.73480338581985
C            4.72766430040742       -0.78918935687911       -2.09648955123156
S            1.13037564823850       -0.29729989578833       -1.40645496989999
C           -0.15453776271247       -1.46895447632343       -0.81770649857367
S           -1.33960980260613       -0.86439220351896        0.44621774331689
P           -2.66308061541240        0.29386797142038       -0.75188662700425
S           -3.10590686306766       -0.45389847950610       -2.49330837317313
O           -2.05025453813891        1.76742319482023       -0.89848067101178
C           -1.24232292553625        2.46605796371930        0.11817960453455
C           -2.01480310112715        2.80612190845012        1.36801902533950
O           -3.86899288362124        0.52258591302927        0.28813262322199
C           -5.08170247358499       -0.30978144369859        0.31470735357647
C           -4.85880647617294       -1.62130331374601        1.02470478598398
H            3.34584799280497        1.87578592364971        3.96182930318526
H            4.06770340705355        0.96809185400805        2.62232058186864
H            3.44480910900463        2.61529354184208        2.35102403716380
H            1.11338898890454        1.80934179745715        2.87985826154243
H            1.74011411377838        0.15364263910221        3.07244587628895
H            5.64921600288911        0.62493968541833       -0.74410031552207
H            5.15496012988954       -0.90056929384536        0.02877729856219
H            4.40835651113329       -0.04741955233717       -2.83424634054430
H            5.69541052904593       -1.19321289606473       -2.41145208434501
H            4.00565980710377       -1.61035794281828       -2.07895897679854
H            0.33547167253545       -2.34086623792995       -0.37421305630229
H           -0.71004980378067       -1.77947777663216       -1.70831319412733
H           -0.36722010811740        1.84926076373564        0.33484108092068
H           -0.91946326595944        3.36689833283479       -0.40759060918118
H           -1.38264056259572        3.44935257577462        1.98932121786667
H           -2.93273717872941        3.35204734135601        1.13236191865973
H           -2.26629475342417        1.91645986419360        1.95141029213117
H           -5.80381695384408        0.31514823612261        0.84388220937002
H           -5.42027246284183       -0.45241487434174       -0.71565440682021
H           -4.18448788539186       -2.27546193279133        0.46557646892466
H           -4.45236951712865       -1.46070019478986        2.02751797673041
H           -5.82389150860202       -2.12929917825779        1.12210001467080
41
 energy: -2932.482444266136 gnorm: 0.000641552724 xtb: 6.7.1 (edcfbbe)
C            3.27765251576335        1.67843554798255        2.88630659050425
C            1.90847176634533        1.12122043356291        2.58613412234701
O            1.69162810357958        0.95355782148066        1.14153342699530
P            2.38782783637937       -0.22095113991864        0.29800183169220
S            2.69010412230340       -1.90689400180822        1.22505614222999
O            3.67496510756928        0.53966698448999       -0.29799048183922
C            4.89107202065293       -0.16341101571236       -0.73428293594967
C            4.72659463773980       -0.79046088148481       -2.09586909237289
S            1.13034685936233       -0.29575741054493       -1.41062173135347
C           -0.15367408268562       -1.46699362059096       -0.81843196682480
S           -1.33907663349954       -0.86434993250566        0.44601885950590
P           -2.66268204441332        0.29359597445802       -0.75217027265211
S           -3.10540991791450       -0.45416077383250       -2.49427673474589
O           -2.04949250635527        1.76736752397218       -0.89765411565485
C           -1.24136727078564        2.46522712556885        0.11962006122051
C           -2.01376716882228        2.80515351346274        1.36954976947512
O           -3.86781478815758        0.52148046212500        0.28875776059777
C           -5.08118975043800       -0.31015948631666        0.31471554852483
C           -4.85939323317741       -1.62232995769424        1.02377327295111
H            3.34681191870826        1.87716564768214        3.96084000603090
H            4.06759623299638        0.96921497988391        2.62088209068648
H            3.44506554741880        2.61674597119435        2.34994288011516
H            1.11428699313978        1.81147513498426        2.87996547816539
H            1.73992269624581        0.15554051031452        3.07247879337811
H            5.64789777400809        0.62343707580739       -0.74321324145793
H            5.15214261095401       -0.90147519286068        0.02984079656214
H            4.40912984151600       -0.04850279814610       -2.83432802001395
H            5.69414319848090       -1.19598543749205       -2.40957568613671
H            4.00346215120005       -1.61061646572459       -2.07866700553640
H            0.33705875093796       -2.33891234745420       -0.37547935553408
H           -0.70878042135507       -1.77840147874921       -1.70909710947134
H           -0.36646702918130        1.84796378731400        0.33562724319893
H           -0.91830084211957        3.36624591906156       -0.40577470092697
H           -1.38122958185224        3.44815297184883        1.99082400839556
H           -2.93171479671886        3.35139322283914        1.13444623868613
H           -2.26514174188868        1.91542496775636        1.95299027644670
H           -5.80288645579140        0.31498562184268        0.84421518801134
H           -5.41960803035852       -0.45174150403493       -0.71589197355389
H           -4.18425021588561       -2.27597590662534        0.46495471544850
H           -4.45452888354700       -1.46275678638995        2.02745002407628
H           -5.82471707279767       -2.13037105592929        1.11908302781625
41
 energy: -2932.482444266136 gnorm: 0.000641552724 xtb: 6.7.1 (edcfbbe)
C            3.27765251576335        1.67843554798255        2.88630659050425
C            1.90847176634533        1.12122043356291        2.58613412234701
O            1.69162810357958        0.95355782148066        1.14153342699530
P            2.38782783637937       -0.22095113991864        0.29800183169220
S            2.69010412230340       -1.90689400180822        1.22505614222999
O            3.67496510756928        0.53966698448999       -0.29799048183922
C            4.89107202065293       -0.16341101571236       -0.73428293594967
C            4.72659463773980       -0.79046088148481       -2.09586909237289
S            1.13034685936233       -0.29575741054493       -1.41062173135347
C           -0.15367408268562       -1.46699362059096       -0.81843196682480
S           -1.33907663349954       -0.86434993250566        0.44601885950590
P           -2.66268204441332        0.29359597445802       -0.75217027265211
S           -3.10540991791450       -0.45416077383250       -2.49427673474589
O           -2.04949250635527        1.76736752397218       -0.89765411565485
C           -1.24136727078564        2.46522712556885        0.11962006122051
C           -2.01376716882228        2.80515351346274        1.36954976947512
O           -3.86781478815758        0.52148046212500        0.28875776059777
C           -5.08118975043800       -0.31015948631666        0.31471554852483
C           -4.85939323317741       -1.62232995769424        1.02377327295111
H            3.34681191870826        1.87716564768214        3.96084000603090
H            4.06759623299638        0.96921497988391        2.62088209068648
H            3.44506554741880        2.61674597119435        2.34994288011516
H            1.11428699313978        1.81147513498426        2.87996547816539
H            1.73992269624581        0.15554051031452        3.07247879337811
H            5.64789777400809        0.62343707580739       -0.74321324145793
H            5.15214261095401       -0.90147519286068        0.02984079656214
H            4.40912984151600       -0.04850279814610       -2.83432802001395
H            5.69414319848090       -1.19598543749205       -2.40957568613671
H            4.00346215120005       -1.61061646572459       -2.07866700553640
H            0.33705875093796       -2.33891234745420       -0.37547935553408
H           -0.70878042135507       -1.77840147874921       -1.70909710947134
H           -0.36646702918130        1.84796378731400        0.33562724319893
H           -0.91830084211957        3.36624591906156       -0.40577470092697
H           -1.38122958185224        3.44815297184883        1.99082400839556
H           -2.93171479671886        3.35139322283914        1.13444623868613
H           -2.26514174188868        1.91542496775636        1.95299027644670
H           -5.80288645579140        0.31498562184268        0.84421518801134
H           -5.41960803035852       -0.45174150403493       -0.71589197355389
H           -4.18425021588561       -2.27597590662534        0.46495471544850
H           -4.45452888354700       -1.46275678638995        2.02745002407628
H           -5.82471707279767       -2.13037105592929        1.11908302781625
