      -----------------------------------------------------------      
     |                   =====================                   |     
     |                           x T B                           |     
     |                   =====================                   |     
     |                         S. Grimme                         |     
     |          Mulliken Center for Theoretical Chemistry        |     
     |                    University of Bonn                     |     
      -----------------------------------------------------------      

   * xtb version 6.7.1 (edcfbbe) compiled by 'albert@albert-system' on 2024-07-22

   xtb is free software: you can redistribute it and/or modify it under
   the terms of the GNU Lesser General Public License as published by
   the Free Software Foundation, either version 3 of the License, or
   (at your option) any later version.
   
   xtb is distributed in the hope that it will be useful,
   but WITHOUT ANY WARRANTY; without even the implied warranty of
   MERCHANTABILITY or FITNESS FOR A PARTICULAR PURPOSE.  See the
   GNU Lesser General Public License for more details.
   
   Cite this work as:
   * C. Bannwarth, E. Caldeweyher, S. Ehlert, A. Hansen, P. Pracht,
     J. Seibert, S. Spicher, S. Grimme, WIREs Comput. Mol. Sci., 2020, 11,
     e01493. DOI: 10.1002/wcms.1493
   
   for GFN2-xTB:
   * C. Bannwarth, S. Ehlert and S. Grimme., J. Chem. Theory Comput., 2019,
     15, 1652-1671. DOI: 10.1021/acs.jctc.8b01176
   for GFN1-xTB:
   * S. Grimme, C. Bannwarth, P. Shushkov, J. Chem. Theory Comput., 2017,
     13, 1989-2009. DOI: 10.1021/acs.jctc.7b00118
   for GFN0-xTB:
   * P. Pracht, E. Caldeweyher, S. Ehlert, S. Grimme, ChemRxiv, 2019, preprint.
     DOI: 10.26434/chemrxiv.8326202.v1
   for GFN-FF:
   * S. Spicher and S. Grimme, Angew. Chem. Int. Ed., 2020, 59, 15665-15673.
     DOI: 10.1002/anie.202004239
   
   for ALPB and GBSA implicit solvation:
   * S. Ehlert, M. Stahn, S. Spicher, S. Grimme, J. Chem. Theory Comput.,
     2021, 17, 4250-4261. DOI: 10.1021/acs.jctc.1c00471
   
   for ddCOSMO and CPCM-X implicit solvation:
   * M. Stahn, S. Ehlert, S. Grimme, J. Phys. Chem. A,
     2023, XX, XXXX-XXXX. DOI: 10.1021/acs.jpca.3c04382
   
   for DFT-D4:
   * E. Caldeweyher, C. Bannwarth and S. Grimme, J. Chem. Phys., 2017,
     147, 034112. DOI: 10.1063/1.4993215
   * E. Caldeweyher, S. Ehlert, A. Hansen, H. Neugebauer, S. Spicher,
     C. Bannwarth and S. Grimme, J. Chem. Phys., 2019, 150, 154122.
     DOI: 10.1063/1.5090222
   * E. Caldeweyher, J.-M. Mewes, S. Ehlert and S. Grimme, Phys. Chem. Chem. Phys.
     2020, 22, 8499-8512. DOI: 10.1039/D0CP00502A
   
   for sTDA-xTB:
   * S. Grimme and C. Bannwarth, J. Chem. Phys., 2016, 145, 054103.
     DOI: 10.1063/1.4959605
   
   in the mass-spec context:
   * V. Asgeirsson, C. Bauer and S. Grimme, Chem. Sci., 2017, 8, 4879.
     DOI: 10.1039/c7sc00601b
   * J. Koopman and S. Grimme, ACS Omega 2019, 4, 12, 15120-15133.
     DOI: 10.1021/acsomega.9b02011
   
   for metadynamics refer to:
   * S. Grimme, J. Chem. Theory Comput., 2019, 155, 2847-2862
     DOI: 10.1021/acs.jctc.9b00143
   
   for SPH calculations refer to:
   * S. Spicher and S. Grimme, J. Chem. Theory Comput., 2021, 17, 1701-1714
     DOI: 10.1021/acs.jctc.0c01306
   
   for ONIOM refer to:
   * C. Plett, A. Katbashev, S. Ehlert, S. Grimme, M. Bursch,
     Phys. Chem. Chem. Phys., 2023, 25, 17860-17868. DOI: 10.1039/D3CP02178E
   
   for DIPRO refer to:
   * J. Kohn, N. Gildemeister, S. Grimme, D. Fazzi, A. Hansen,
     J. Chem. Phys., 2023, just accepted.
   
   for PTB refer to:
   * S. Grimme, M. Mueller, A. Hansen, J. Chem. Phys., 2023, 158, 124111.
     DOI: 10.1063/5.0137838
   
   with help from (in alphabetical order)
   P. Atkinson, C. Bannwarth, F. Bohle, G. Brandenburg, E. Caldeweyher
   M. Checinski, S. Dohm, S. Ehlert, S. Ehrlich, I. Gerasimov, C. Hölzer
   A. Katbashev, J. Kohn, J. Koopman, C. Lavigne, S. Lehtola, F. März, M. Müller,
   F. Musil, H. Neugebauer, J. Pisarek, C. Plett, P. Pracht, F. Pultar,
   J. Seibert, P. Shushkov, S. Spicher, M. Stahn, M. Steiner, T. Strunk,
   J. Stückrath, T. Rose, and J. Unsleber
   
 * started run on 2025/04/09 at 05:21:06.475     
   ID    Z sym.   atoms
    1    6 C      1, 2, 7, 8, 10, 15, 16, 18, 19
    2    8 O      3, 6, 14, 17
    3   15 P      4, 12
    4   16 S      5, 9, 11, 13
    5    1 H      20-41

           -------------------------------------------------
          |                Calculation Setup                |
           -------------------------------------------------

          program call               : /srv/scratch/z5358697/.xtb/bin/xtb gas.coord --gfn2 --sp --chrg 0 --norestart --parallel 1
          hostname                   : k163
          coordinate file            : gas.coord
          omp threads                :                     1


           -------------------------------------------------
          |                 G F N 2 - x T B                 |
           -------------------------------------------------

        Reference                      10.1021/acs.jctc.8b01176
      * Hamiltonian:
        H0-scaling (s, p, d)           1.850000    2.230000    2.230000
        zeta-weighting                 0.500000
      * Dispersion:
        s8                             2.700000
        a1                             0.520000
        a2                             5.000000
        s9                             5.000000
      * Repulsion:
        kExp                           1.500000    1.000000
        rExp                           1.000000
      * Coulomb:
        alpha                          2.000000
        third order                    shell-resolved
        anisotropic                    true
        a3                             3.000000
        a5                             4.000000
        cn-shift                       1.200000
        cn-exp                         4.000000
        max-rad                        5.000000


          ...................................................
          :                      SETUP                      :
          :.................................................:
          :  # basis functions                 134          :
          :  # atomic orbitals                 128          :
          :  # shells                           66          :
          :  # electrons                       116          :
          :  max. iterations                   250          :
          :  Hamiltonian                  GFN2-xTB          :
          :  restarted?                      false          :
          :  GBSA solvation                  false          :
          :  PC potential                    false          :
          :  electronic temp.          300.0000000     K    :
          :  accuracy                    1.0000000          :
          :  -> integral cutoff          0.2500000E+02      :
          :  -> integral neglect         0.1000000E-07      :
          :  -> SCF convergence          0.1000000E-05 Eh   :
          :  -> wf. convergence          0.1000000E-03 e    :
          :  Broyden damping             0.4000000          :
          :  net charge                          0          :
          :  unpaired electrons                  0          :
          ...................................................

 iter      E             dE          RMSdq      gap      omega  full diag
   1    -65.3830215 -0.653830E+02  0.624E+00    4.46       0.0  T
   2    -65.5477407 -0.164719E+00  0.384E+00    3.34       1.0  T
   3    -65.5663851 -0.186444E-01  0.138E+00    3.16       1.0  T
   4    -65.5692056 -0.282048E-02  0.577E-01    2.84       1.0  T
   5    -65.5704278 -0.122219E-02  0.281E-01    2.96       1.0  T
   6    -65.5706989 -0.271149E-03  0.137E-01    2.94       1.0  T
   7    -65.5707594 -0.605075E-04  0.489E-02    2.96       1.0  T
   8    -65.5707685 -0.910542E-05  0.221E-02    2.96       1.0  T
   9    -65.5707695 -0.963019E-06  0.565E-03    2.96       2.8  T
  10    -65.5707696 -0.741263E-07  0.305E-03    2.96       5.1  T
  11    -65.5707696 -0.110209E-07  0.730E-04    2.96      21.4  T
  12    -65.5707696 -0.132685E-08  0.372E-04    2.96      42.0  T

   *** convergence criteria satisfied after 12 iterations ***

         #    Occupation            Energy/Eh            Energy/eV
      -------------------------------------------------------------
         1        2.0000           -0.7621128             -20.7381
       ...           ...                  ...                  ...
        52        2.0000           -0.4378531             -11.9146
        53        2.0000           -0.4085359             -11.1168
        54        2.0000           -0.4011218             -10.9151
        55        2.0000           -0.3810947             -10.3701
        56        2.0000           -0.3772041             -10.2642
        57        2.0000           -0.3668081              -9.9814
        58        2.0000           -0.3641950              -9.9103 (HOMO)
        59                         -0.2553161              -6.9475 (LUMO)
        60                         -0.2398954              -6.5279
        61                         -0.2186969              -5.9510
        62                         -0.1875112              -5.1024
        63                         -0.1786726              -4.8619
       ...                                ...                  ...
       128                          1.3480167              36.6814
      -------------------------------------------------------------
                  HL-Gap            0.1088789 Eh            2.9627 eV
             Fermi-level           -0.3097556 Eh           -8.4289 eV

 SCC (total)                   0 d,  0 h,  0 min,  0.068 sec
 SCC setup                      ...        0 min,  0.000 sec (  0.386%)
 Dispersion                     ...        0 min,  0.000 sec (  0.451%)
 classical contributions        ...        0 min,  0.000 sec (  0.098%)
 integral evaluation            ...        0 min,  0.020 sec ( 29.324%)
 iterations                     ...        0 min,  0.025 sec ( 36.777%)
 molecular gradient             ...        0 min,  0.022 sec ( 32.568%)
 printout                       ...        0 min,  0.000 sec (  0.369%)

         :::::::::::::::::::::::::::::::::::::::::::::::::::::
         ::                     SUMMARY                     ::
         :::::::::::::::::::::::::::::::::::::::::::::::::::::
         :: total energy             -65.009733842583 Eh    ::
         :: gradient norm              0.031423340949 Eh/a0 ::
         :: HOMO-LUMO gap              2.962745987687 eV    ::
         ::.................................................::
         :: SCC energy               -65.569415510734 Eh    ::
         :: -> isotropic ES            0.108638056710 Eh    ::
         :: -> anisotropic ES         -0.011715575400 Eh    ::
         :: -> anisotropic XC          0.030861188470 Eh    ::
         :: -> dispersion             -0.055074836211 Eh    ::
         :: repulsion energy           0.559681668151 Eh    ::
         :: add. restraining           0.000000000000 Eh    ::
         :: total charge              -0.000000000000 e     ::
         :::::::::::::::::::::::::::::::::::::::::::::::::::::

           -------------------------------------------------
          |                Property Printout                |
           -------------------------------------------------

    * Orbital Energies and Occupations

         #    Occupation            Energy/Eh            Energy/eV
      -------------------------------------------------------------
         1        2.0000           -0.7621128             -20.7381
       ...           ...                  ...                  ...
        46        2.0000           -0.4697795             -12.7834
        47        2.0000           -0.4628608             -12.5951
        48        2.0000           -0.4611377             -12.5482
        49        2.0000           -0.4578340             -12.4583
        50        2.0000           -0.4513926             -12.2830
        51        2.0000           -0.4421511             -12.0315
        52        2.0000           -0.4378531             -11.9146
        53        2.0000           -0.4085359             -11.1168
        54        2.0000           -0.4011218             -10.9151
        55        2.0000           -0.3810947             -10.3701
        56        2.0000           -0.3772041             -10.2642
        57        2.0000           -0.3668081              -9.9814
        58        2.0000           -0.3641950              -9.9103 (HOMO)
        59                         -0.2553161              -6.9475 (LUMO)
        60                         -0.2398954              -6.5279
        61                         -0.2186969              -5.9510
        62                         -0.1875112              -5.1024
        63                         -0.1786726              -4.8619
        64                         -0.1515922              -4.1250
        65                         -0.1459775              -3.9723
        66                         -0.1416082              -3.8534
        67                         -0.1183374              -3.2201
        68                         -0.1140647              -3.1039
        69                         -0.0375617              -1.0221
       ...                                ...                  ...
       128                          1.3480167              36.6814
      -------------------------------------------------------------
                  HL-Gap            0.1088789 Eh            2.9627 eV
             Fermi-level           -0.3097556 Eh           -8.4289 eV

     #   Z          covCN         q      C6AA      α(0)
     1   6 C        3.751    -0.113    22.725     6.798
     2   6 C        3.909     0.094    18.979     6.192
     3   8 O        1.654    -0.251    18.174     5.755
     4  15 P        3.889     0.379   144.499    21.593
     5  16 S        0.927    -0.411   157.138    21.203
     6   8 O        1.655    -0.246    18.099     5.743
     7   6 C        3.850     0.088    19.097     6.216
     8   6 C        3.751    -0.115    22.757     6.803
     9  16 S        2.006    -0.119   146.036    20.339
    10   6 C        3.802     0.034    19.996     6.366
    11  16 S        2.005    -0.149   147.326    20.429
    12  15 P        3.810     0.395   143.863    21.546
    13  16 S        0.926    -0.396   156.416    21.154
    14   8 O        1.654    -0.246    18.087     5.741
    15   6 C        3.830     0.081    19.207     6.236
    16   6 C        3.751    -0.117    22.805     6.810
    17   8 O        1.655    -0.264    18.397     5.790
    18   6 C        3.855     0.083    19.173     6.228
    19   6 C        3.751    -0.117    22.799     6.809
    20   1 H        0.925     0.069     2.099     2.266
    21   1 H        0.925     0.056     2.247     2.344
    22   1 H        0.925     0.055     2.263     2.352
    23   1 H        0.924     0.055     2.263     2.352
    24   1 H        0.924     0.066     2.131     2.283
    25   1 H        0.924     0.060     2.194     2.317
    26   1 H        0.924     0.046     2.367     2.406
    27   1 H        0.925     0.062     2.171     2.304
    28   1 H        0.925     0.058     2.220     2.330
    29   1 H        0.925     0.069     2.100     2.266
    30   1 H        0.925     0.081     1.972     2.196
    31   1 H        0.924     0.089     1.888     2.149
    32   1 H        0.924     0.068     2.108     2.270
    33   1 H        0.924     0.059     2.210     2.325
    34   1 H        0.925     0.065     2.142     2.289
    35   1 H        0.925     0.060     2.197     2.318
    36   1 H        0.925     0.066     2.134     2.284
    37   1 H        0.924     0.064     2.157     2.297
    38   1 H        0.924     0.062     2.174     2.306
    39   1 H        0.925     0.056     2.241     2.341
    40   1 H        0.925     0.063     2.168     2.302
    41   1 H        0.925     0.061     2.189     2.314

 Mol. C6AA /au·bohr⁶  :      26563.035229
 Mol. C8AA /au·bohr⁸  :     863205.302046
 Mol. α(0) /au        :        258.362278


Wiberg/Mayer (AO) data.
largest (>0.10) Wiberg bond orders for each atom

 ---------------------------------------------------------------------------
     #   Z sym  total        # sym  WBO       # sym  WBO       # sym  WBO
 ---------------------------------------------------------------------------
     1   6 C    3.990 --     2 C    1.022    22 H    0.984    20 H    0.981
                            21 H    0.980
     2   6 C    3.907 --     1 C    1.022    24 H    0.967    23 H    0.966
                             3 O    0.890
     3   8 O    2.395 --     4 P    1.287     2 C    0.890
     4  15 P    5.297 --     5 S    1.570     6 O    1.300     3 O    1.287
                             9 S    1.018
     5  16 S    1.865 --     4 P    1.570
     6   8 O    2.414 --     4 P    1.300     7 C    0.904
     7   6 C    3.910 --     8 C    1.018    26 H    0.974    25 H    0.964
                             6 O    0.904
     8   6 C    3.989 --     7 C    1.018    27 H    0.985    29 H    0.983
                            28 H    0.980
     9  16 S    2.283 --     4 P    1.018    10 C    0.977
    10   6 C    3.960 --    11 S    0.994     9 S    0.977    30 H    0.969
                            31 H    0.939
    11  16 S    2.269 --    10 C    0.994    12 P    0.945    13 S    0.146
    12  15 P    5.245 --    13 S    1.549    14 O    1.318    17 O    1.279
                            11 S    0.945
    13  16 S    1.899 --    12 P    1.549    11 S    0.146
    14   8 O    2.398 --    12 P    1.318    15 C    0.890
    15   6 C    3.912 --    16 C    1.023    33 H    0.972    32 H    0.969
                            14 O    0.890
    16   6 C    3.990 --    15 C    1.023    34 H    0.982    35 H    0.979
                            36 H    0.973
    17   8 O    2.386 --    12 P    1.279    18 C    0.911
    18   6 C    3.912 --    19 C    1.021    37 H    0.970    38 H    0.969
                            17 O    0.911
    19   6 C    3.991 --    18 C    1.021    40 H    0.983    41 H    0.980
                            39 H    0.977
    20   1 H    0.995 --     1 C    0.981
    21   1 H    0.996 --     1 C    0.980
    22   1 H    0.997 --     1 C    0.984
    23   1 H    0.997 --     2 C    0.966
    24   1 H    0.996 --     2 C    0.967
    25   1 H    0.996 --     7 C    0.964
    26   1 H    0.998 --     7 C    0.974
    27   1 H    0.996 --     8 C    0.985
    28   1 H    0.995 --     8 C    0.980
    29   1 H    0.995 --     8 C    0.983
    30   1 H    0.991 --    10 C    0.969
    31   1 H    0.992 --    10 C    0.939
    32   1 H    0.995 --    15 C    0.969
    33   1 H    0.996 --    15 C    0.972
    34   1 H    0.996 --    16 C    0.982
    35   1 H    0.995 --    16 C    0.979
    36   1 H    0.996 --    16 C    0.973
    37   1 H    0.996 --    18 C    0.970
    38   1 H    0.996 --    18 C    0.969
    39   1 H    0.997 --    19 C    0.977
    40   1 H    0.996 --    19 C    0.983
    41   1 H    0.996 --    19 C    0.980
 ---------------------------------------------------------------------------

Topologies differ in total number of bonds
Writing topology from bond orders to xtbtopo.mol

molecular dipole:
                 x           y           z       tot (Debye)
 q only:       -2.425       0.042      -0.414
   full:       -2.858       0.132      -0.908       7.629
molecular quadrupole (traceless):
                xx          xy          yy          xz          yz          zz
 q only:       -4.055      -9.862      17.298     -10.156      -8.137     -13.243
  q+dip:       -5.227     -10.885      18.406      -9.355     -10.823     -13.179
   full:       -5.827     -11.539      18.821      -9.220     -11.480     -12.994


           -------------------------------------------------
          | TOTAL ENERGY              -65.009733842583 Eh   |
          | GRADIENT NORM               0.031423340949 Eh/α |
          | HOMO-LUMO GAP               2.962745987687 eV   |
           -------------------------------------------------

------------------------------------------------------------------------
 * finished run on 2025/04/09 at 05:21:06.587     
------------------------------------------------------------------------
 total:
 * wall-time:     0 d,  0 h,  0 min,  0.111 sec
 *  cpu-time:     0 d,  0 h,  0 min,  0.069 sec
 * ratio c/w:     0.624 speedup
 SCF:
 * wall-time:     0 d,  0 h,  0 min,  0.069 sec
 *  cpu-time:     0 d,  0 h,  0 min,  0.057 sec
 * ratio c/w:     0.824 speedup

