
                                 *****************
                                 * O   R   C   A *
                                 *****************

                                            #,                                       
                                            ###                                      
                                            ####                                     
                                            #####                                    
                                            ######                                   
                                           ########,                                 
                                     ,,################,,,,,                         
                               ,,#################################,,                 
                          ,,##########################################,,             
                       ,#########################################, ''#####,          
                    ,#############################################,,   '####,        
                  ,##################################################,,,,####,       
                ,###########''''           ''''###############################       
              ,#####''   ,,,,##########,,,,          '''####'''          '####       
            ,##' ,,,,###########################,,,                        '##       
           ' ,,###''''                  '''############,,,                           
         ,,##''                                '''############,,,,        ,,,,,,###''
      ,#''                                            '''#######################'''  
     '                                                          ''''####''''         
             ,#######,   #######,   ,#######,      ##                                
            ,#'     '#,  ##    ##  ,#'     '#,    #''#        ,####,   ,####,        
            ##       ##  ##   ,#'  ##            #'  '#       #'       #'  '#        
            ##       ##  #######   ##           ,######,      #####,   #    #        
            '#,     ,#'  ##    ##  '#,     ,#' ,#      #,     #,   #   #,  ,#        
             '#######'   ##     ##  '#######'  #'      '#     '####' # '####'        



                #########################################################
                #                        -***-                          #
                #          Department of theory and spectroscopy        #
                #                                                       #
                #                      Frank Neese                      #
                #                                                       #
                #     Directorship, Architecture, Infrastructure        #
                #                    SHARK, DRIVERS                     #
                #        Core code/Algorithms in most modules           #
                #                                                       #
                #        Max Planck Institute fuer Kohlenforschung      #
                #                Kaiser Wilhelm Platz 1                 #
                #                 D-45470 Muelheim/Ruhr                 #
                #                      Germany                          #
                #                                                       #
                #                  All rights reserved                  #
                #                        -***-                          #
                #########################################################


                         Program Version 6.0.0  -   RELEASE  -


 With contributions from (in alphabetic order):
   Daniel Aravena         : Magnetic Suceptibility
   Michael Atanasov       : Ab Initio Ligand Field Theory (pilot matlab implementation)
   Alexander A. Auer      : GIAO ZORA, VPT2 properties, NMR spectrum
   Ute Becker             : All parallelization in ORCA, NUMFREQ, NUMCALC
   Giovanni Bistoni       : ED, misc. LED, open-shell LED, HFLD
   Martin Brehm           : Molecular dynamics
   Dmytro Bykov           : pre 5.0 version of the SCF Hessian
   Marcos Casanova-Páez   : Triplet and SCS-CIS(D). UHF-(DLPNO)-IP/EA/STEOM-CCSD. UHF-CVS-IP/STEOM-CCSD
   Vijay G. Chilkuri      : MRCI spin determinant printing, contributions to CSF-ICE
   Pauline Colinet        : FMM embedding
   Dipayan Datta          : RHF DLPNO-CCSD density
   Achintya Kumar Dutta   : EOM-CC, STEOM-CC
   Nicolas Foglia         : Exact transition moments, OPA infrastructure, MCD improvements
   Dmitry Ganyushin       : Spin-Orbit,Spin-Spin,Magnetic field MRCI
   Miquel Garcia          : C-PCM and meta-GGA Hessian, CCSD/C-PCM, Gaussian charge scheme
   Tiago L. C. Gouveia    : GS-ROHF, GS-ROCIS
   Yang Guo               : DLPNO-NEVPT2, F12-NEVPT2, CIM, IAO-localization
   Andreas Hansen         : Spin unrestricted coupled pair/coupled cluster methods
   Ingolf Harden          : AUTO-CI MPn and infrastructure 
   Benjamin Helmich-Paris : MC-RPA, TRAH-(SCF,CASSCF), AVAS, COSX integrals, SCF dyn. polar.
   Lee Huntington         : MR-EOM, pCC
   Robert Izsak           : Overlap fitted RIJCOSX, COSX-SCS-MP3, EOM
   Riya Kayal             : Wick's Theorem for AUTO-CI, AUTO-CI UHF-CCSDT
   Emily Kempfer          : AUTO-CI, RHF CISDT and CCSDT
   Christian Kollmar      : KDIIS, OOCD, Brueckner-CCSD(T), CCSD density, CASPT2, CASPT2-K, improved NEVPT2
   Axel Koslowski         : Symmetry handling
   Simone Kossmann        : Meta GGA functionals, TD-DFT gradient, OOMP2, (MP2 Hessian; deprecated post 5.0)
   Lucas Lang             : DCDCAS
   Marvin Lechner         : AUTO-CI (C++ implementation), FIC-MRCC
   Spencer Leger          : CASSCF response
   Dagmar Lenk            : GEPOL surface, SMD, ORCA-2-JSON
   Dimitrios Liakos       : Extrapolation schemes; Compound Job, initial MDCI parallelization
   Dimitrios Manganas     : Further ROCIS development; embedding schemes. LFT, Crystal Embedding
   Dimitrios Pantazis     : SARC Basis sets
   Anastasios Papadopoulos: AUTO-CI, single reference methods and gradients
   Taras Petrenko         : pre 6.0 DFT Hessian and TD-DFT gradient, (ASA, deprecated), ECA, 1-Electron XAS/XES, NRVS
   Peter Pinski           : DLPNO-MP2, DLPNO-MP2 Gradient
   Christoph Reimann      : Effective Core Potentials
   Marius Retegan         : Local ZFS, SOC
   Christoph Riplinger    : Optimizer, TS searches, QM/MM, DLPNO-CCSD(T), (RO)-DLPNO pert. Triples
   Michael Roemelt        : Original ROCIS implementation
   Masaaki Saitow         : Open-shell DLPNO-CCSD energy and density
   Barbara Sandhoefer     : DKH picture change effects
   Kantharuban Sivalingam : CASSCF convergence/infrastructure, NEVPT2 and variants, FIC-MRCI
   Bernardo de Souza      : ESD, SOC TD-DFT
   Georgi Stoychev        : AutoAux, RI-MP2 NMR, DLPNO-MP2 response, X2C
   Van Anh Tran           : RI-MP2 g-tensors
   Willem Van den Heuvel  : Paramagnetic NMR
   Zikuan Wang            : NOTCH, Electric field optimization 
   Frank Wennmohs         : Technical directorship and infrastructure
   Hang Xu                : AUTO-CI-Response properties 


 We gratefully acknowledge several colleagues who have allowed us to
 interface, adapt or use parts of their codes:
   Stefan Grimme, W. Hujo, H. Kruse, P. Pracht,  : VdW corrections, initial TS optimization,
                  C. Bannwarth, S. Ehlert,         DFT functionals, gCP, sTDA/sTD-DF
                  L. Wittmann, M. Mueller
   Ed Valeev, F. Pavosevic, A. Kumar             : LibInt (2-el integral package), F12 methods
   Garnet Chan, S. Sharma, J. Yang, R. Olivares  : DMRG
   Ulf Ekstrom                                   : XCFun DFT Library
   Mihaly Kallay                                 : mrcc  (arbitrary order and MRCC methods)
   Frank Weinhold                                : gennbo (NPA and NBO analysis)
   Simon Mueller                                 : openCOSMO-RS
   Christopher J. Cramer and Donald G. Truhlar   : smd solvation model
   Lars Goerigk                                  : TD-DFT with DH, B97 family of functionals
   V. Asgeirsson, H. Jonsson                     : NEB implementation
   FAccTs GmbH                                   : IRC, NEB, NEB-TS, DLPNO-Multilevel, CI-OPT
                                                   MM, QMMM, 2- and 3-layer-ONIOM, Crystal-QMMM,
                                                   LR-CPCM, SF, NACMEs, symmetry and pop. for TD-DFT,
                                                   nearIR, NL-DFT gradient (VV10), updates on ESD,
                                                   ML-optimized integration grids, MBIS, APM,
                                                   GOAT, DOCKER, SOLVATOR, interface openCOSMO-RS
   S Lehtola, MJT Oliveira, MAL Marques          : LibXC Library
   Liviu Ungur et al                             : ANISO software


 Your calculation uses the libint2 library for the computation of 2-el integrals
 For citations please refer to: http://libint.valeyev.net

 Your ORCA version has been built with support for libXC version: 6.2.2
 For citations please refer to: https://libxc.gitlab.io

 This ORCA versions uses:
   CBLAS   interface :  Fast vector & matrix operations
   LAPACKE interface :  Fast linear algebra routines
   SCALAPACK package :  Parallel linear algebra routines
   Shared memory     :  Shared parallel matrices
   BLAS/LAPACK       :  OpenBLAS 0.3.27  USE64BITINT DYNAMIC_ARCH NO_AFFINITY SapphireRapids SINGLE_THREADED
        Core in use  :  SapphireRapids
   Copyright (c) 2011-2014, The OpenBLAS Project


Your calculation utilizes the geometrical counterpoise correction gCP
Please cite in your paper:
H.Kruse, S. Grimme J.Chem.Phys., 136, (2012), 154101 
   

Your calculation utilizes the atom-pairwise dispersion correction
based on EEQ partial charges (D4)


Your calculation utilizes the SMD solvation module
Please cite in your paper:
A.V. Marenich, C.J. Cramer, D.G. Truhlar J. Phys. Chem. B, 113, (2009), 6378 

================================================================================

----- Orbital basis set information -----
Your calculation utilizes the basis: def2-mTZVPP
   Stefan Grimme, Andreas Hansen, Sebastian Ehlert, and Jan-Michael Mewes 
   J. Chem. Phys. 154, 064103 (2021). DOI: 10.1063/5.0040021

----- AuxJ basis set information -----
Your calculation utilizes the auxiliary basis: def2/J
   F. Weigend, Phys. Chem. Chem. Phys. 8, 1057 (2006).

================================================================================
                                        WARNINGS
                       Please study these warnings very carefully!
================================================================================

Using LibXC functional ID 497 : Re-regularized SCAN exchange by Furness et al
[ 1]  J. W. Furness, A. D. Kaplan, J. Ning, J. P. Perdew, and J. Sun.,  J. Phys. Chem. Lett. 11, 8208-8215 (2020)
[ 2]  J. W. Furness, A. D. Kaplan, J. Ning, J. P. Perdew, and J. Sun.,  J. Phys. Chem. Lett. 11, 9248-9248 (2020)
Using LibXC functional ID 498 : Re-regularized SCAN correlation by Furness et al
[ 1]  J. W. Furness, A. D. Kaplan, J. Ning, J. P. Perdew, and J. Sun.,  J. Phys. Chem. Lett. 11, 8208-8215 (2020)
[ 2]  J. W. Furness, A. D. Kaplan, J. Ning, J. P. Perdew, and J. Sun.,  J. Phys. Chem. Lett. 11, 9248-9248 (2020)
Using LibXC functional ID 497 : Re-regularized SCAN exchange by Furness et al
[ 1]  J. W. Furness, A. D. Kaplan, J. Ning, J. P. Perdew, and J. Sun.,  J. Phys. Chem. Lett. 11, 8208-8215 (2020)
[ 2]  J. W. Furness, A. D. Kaplan, J. Ning, J. P. Perdew, and J. Sun.,  J. Phys. Chem. Lett. 11, 9248-9248 (2020)
Using LibXC functional ID 498 : Re-regularized SCAN correlation by Furness et al
[ 1]  J. W. Furness, A. D. Kaplan, J. Ning, J. P. Perdew, and J. Sun.,  J. Phys. Chem. Lett. 11, 8208-8215 (2020)
[ 2]  J. W. Furness, A. D. Kaplan, J. Ning, J. P. Perdew, and J. Sun.,  J. Phys. Chem. Lett. 11, 9248-9248 (2020)

================================================================================
                                       INPUT FILE
================================================================================
NAME = sp_solv.inp
|  1> ! r2scan-3c def2/J RI DEFGRID2 scfconv6 printgap
|  2> %output
|  3>     printlevel normal
|  4> end
|  5> %cpcm
|  6>     smd true
|  7>     smdsolvent "water"
|  8> end
|  9> * xyz 0 1
| 10> C 4.5399500175 -0.9870725214 -2.3491355437
| 11> C 3.8342091695 -1.9779563535 -1.4477310363
| 12> O 3.416977082 -1.3961308669 -0.1977150074
| 13> P 2.5052966595 -0.1039668057 -0.0401243873
| 14> S 3.3057273377 1.6600320917 -0.3086412176
| 15> O 2.031399625 -0.2418234346 1.4549463709
| 16> C 1.4420827075 -1.4502374165 1.9984169333
| 17> C 0.5430160404 -1.0553252269 3.1515386575
| 18> S 0.8322405191 -0.5535565093 -1.2915539929
| 19> C 0.1312936756 1.1082766289 -1.2510556839
| 20> S -0.5978959493 1.5269937037 0.3556978944
| 21> P -2.3351168142 0.3561452355 0.1131736099
| 22> S -3.1970700305 0.3883546455 -1.6527995065
| 23> O -3.2858694162 0.7601118856 1.3226280371
| 24> C -4.263701671 1.8094177001 1.2190195851
| 25> C -3.6201905434 3.1747188064 1.0889894972
| 26> O -1.7994057724 -1.0536432083 0.5923470048
| 27> C -2.5329263118 -2.2757947614 0.3367680702
| 28> C -1.542435974 -3.3916645774 0.0742449489
| 29> H 5.3747345418 -0.5261481256 -1.8265157339
| 30> H 4.9067938906 -1.5002504228 -3.2321717208
| 31> H 3.8519337998 -0.2003924149 -2.655481649
| 32> H 4.5009333559 -2.7863658173 -1.1426988269
| 33> H 2.9507646097 -2.3899385848 -1.9431241308
| 34> H 0.8782369312 -1.9516111872 1.2065393943
| 35> H 2.2608441647 -2.0933257554 2.3262997332
| 36> H 1.1044096482 -0.4721005943 3.8758026385
| 37> H -0.2904159099 -0.4559558515 2.7922328167
| 38> H 0.1589608567 -1.9512795957 3.6287911344
| 39> H -0.6391404358 1.151784585 -2.0215389357
| 40> H 0.924388307 1.8347199656 -1.4337975747
| 41> H -4.9023661769 1.6015290363 0.3545624915
| 42> H -4.8420359076 1.7211062925 2.139557319
| 43> H -4.3879352667 3.9407160087 1.1290726265
| 44> H -2.9065598149 3.3354284055 1.8933843804
| 45> H -3.0959196128 3.2504568151 0.1368814119
| 46> H -3.145287396 -2.4786049849 1.2176346222
| 47> H -3.1848345324 -2.1171435096 -0.5291052528
| 48> H -0.920444896 -3.5574808644 0.9490850421
| 49> H -2.0891035375 -4.3013354535 -0.152461947
| 50> H -0.9097483543 -3.1352878929 -0.7722482335
| 51> *
| 52> 
| 53>                          ****END OF INPUT****
================================================================================

                       ****************************
                       * Single Point Calculation *
                       ****************************

---------------------------------
CARTESIAN COORDINATES (ANGSTROEM)
---------------------------------
  C      4.539950   -0.987073   -2.349136
  C      3.834209   -1.977956   -1.447731
  O      3.416977   -1.396131   -0.197715
  P      2.505297   -0.103967   -0.040124
  S      3.305727    1.660032   -0.308641
  O      2.031400   -0.241823    1.454946
  C      1.442083   -1.450237    1.998417
  C      0.543016   -1.055325    3.151539
  S      0.832241   -0.553557   -1.291554
  C      0.131294    1.108277   -1.251056
  S     -0.597896    1.526994    0.355698
  P     -2.335117    0.356145    0.113174
  S     -3.197070    0.388355   -1.652800
  O     -3.285869    0.760112    1.322628
  C     -4.263702    1.809418    1.219020
  C     -3.620191    3.174719    1.088989
  O     -1.799406   -1.053643    0.592347
  C     -2.532926   -2.275795    0.336768
  C     -1.542436   -3.391665    0.074245
  H      5.374735   -0.526148   -1.826516
  H      4.906794   -1.500250   -3.232172
  H      3.851934   -0.200392   -2.655482
  H      4.500933   -2.786366   -1.142699
  H      2.950765   -2.389939   -1.943124
  H      0.878237   -1.951611    1.206539
  H      2.260844   -2.093326    2.326300
  H      1.104410   -0.472101    3.875803
  H     -0.290416   -0.455956    2.792233
  H      0.158961   -1.951280    3.628791
  H     -0.639140    1.151785   -2.021539
  H      0.924388    1.834720   -1.433798
  H     -4.902366    1.601529    0.354562
  H     -4.842036    1.721106    2.139557
  H     -4.387935    3.940716    1.129073
  H     -2.906560    3.335428    1.893384
  H     -3.095920    3.250457    0.136881
  H     -3.145287   -2.478605    1.217635
  H     -3.184835   -2.117144   -0.529105
  H     -0.920445   -3.557481    0.949085
  H     -2.089104   -4.301335   -0.152462
  H     -0.909748   -3.135288   -0.772248

----------------------------
CARTESIAN COORDINATES (A.U.)
----------------------------
  NO LB      ZA    FRAG     MASS         X           Y           Z
   0 C     6.0000    0    12.011    8.579262   -1.865297   -4.439223
   1 C     6.0000    0    12.011    7.245605   -3.737796   -2.735815
   2 O     8.0000    0    15.999    6.457151   -2.638305   -0.373627
   3 P    15.0000    0    30.974    4.734325   -0.196469   -0.075824
   4 S    16.0000    0    32.060    6.246919    3.137006   -0.583247
   5 O     8.0000    0    15.999    3.838789   -0.456980    2.749450
   6 C     6.0000    0    12.011    2.725141   -2.740552    3.776461
   7 C     6.0000    0    12.011    1.026152   -1.994276    5.955545
   8 S    16.0000    0    32.060    1.572707   -1.046070   -2.440683
   9 C     6.0000    0    12.011    0.248109    2.094339   -2.364153
  10 S    16.0000    0    32.060   -1.129860    2.885600    0.672172
  11 P    15.0000    0    30.974   -4.412731    0.673017    0.213867
  12 S    16.0000    0    32.060   -6.041587    0.733884   -3.123338
  13 O     8.0000    0    15.999   -6.209393    1.436403    2.499405
  14 C     6.0000    0    12.011   -8.057228    3.419304    2.303613
  15 C     6.0000    0    12.011   -6.841169    5.999349    2.057892
  16 O     8.0000    0    15.999   -3.400384   -1.991097    1.119374
  17 C     6.0000    0    12.011   -4.786537   -4.300629    0.636399
  18 C     6.0000    0    12.011   -2.914782   -6.409317    0.140303
  19 H     1.0000    0     1.008   10.156776   -0.994276   -3.451615
  20 H     1.0000    0     1.008    9.272497   -2.835062   -6.107919
  21 H     1.0000    0     1.008    7.279100   -0.378687   -5.018133
  22 H     1.0000    0     1.008    8.505531   -5.265468   -2.159388
  23 H     1.0000    0     1.008    5.576137   -4.516329   -3.671972
  24 H     1.0000    0     1.008    1.659627   -3.688011    2.280029
  25 H     1.0000    0     1.008    4.272376   -3.955812    4.396069
  26 H     1.0000    0     1.008    2.087032   -0.892141    7.324206
  27 H     1.0000    0     1.008   -0.548807   -0.861632    5.276555
  28 H     1.0000    0     1.008    0.300392   -3.687384    6.857421
  29 H     1.0000    0     1.008   -1.207800    2.176557   -3.820155
  30 H     1.0000    0     1.008    1.746841    3.467118   -2.709485
  31 H     1.0000    0     1.008   -9.264129    3.026451    0.670026
  32 H     1.0000    0     1.008   -9.150122    3.252420    4.043177
  33 H     1.0000    0     1.008   -8.291996    7.446874    2.133638
  34 H     1.0000    0     1.008   -5.492602    6.303046    3.577978
  35 H     1.0000    0     1.008   -5.850440    6.142473    0.258668
  36 H     1.0000    0     1.008   -5.943732   -4.683885    2.300996
  37 H     1.0000    0     1.008   -6.018465   -4.000821   -0.999864
  38 H     1.0000    0     1.008   -1.739389   -6.722665    1.793511
  39 H     1.0000    0     1.008   -3.947834   -8.128346   -0.288111
  40 H     1.0000    0     1.008   -1.719175   -5.924835   -1.459338

--------------------------------
INTERNAL COORDINATES (ANGSTROEM)
--------------------------------
 C      0   0   0     0.000000000000     0.00000000     0.00000000
 C      1   0   0     1.514084211401     0.00000000     0.00000000
 O      2   1   0     1.440535867031   112.78572316     0.00000000
 P      3   2   1     1.589240056559   125.49233219    55.00176928
 S      4   3   2     1.955628458779   119.01165389   282.56956347
 O      4   3   2     1.574426696123   101.28209761   162.67498535
 C      6   4   3     1.450144486973   123.44697635   309.01100893
 C      7   6   4     1.514584504149   108.01621034   206.78509116
 S      4   3   2     2.137129806138   102.70772908    51.53392866
 C      9   4   3     1.804066509213    95.58008599   191.10873345
 S     10   9   4     1.813476925459   112.88025117   288.46443938
 P     11  10   9     2.108942981093    95.80512963   284.74346270
 S     12  11  10     1.965365574398   117.09719867   318.37637779
 O     12  11  10     1.590565803756   105.30393792   189.65226939
 C     14  12  11     1.438031057452   122.47906730    91.51920298
 C     15  14  12     1.514946040613   112.02125943   291.89495736
 O     12  11  10     1.582433859268   100.42355207    84.61447279
 C     17  12  11     1.448111664299   121.80037317   194.07669697
 C     18  17  12     1.514976879280   108.72574780   144.57415312
 H      1   2   3     1.087404233140   110.43251627    54.54867123
 H      1   2   3     1.085209139191   109.42205430   175.01515940
 H      1   2   3     1.089072927776   110.22630385   294.92137543
 H      2   1   3     1.091371454026   111.49425315   244.04166948
 H      2   1   3     1.093443170551   110.69849361   121.31022680
 H      7   6   4     1.093785972743   108.67137164   327.76429154
 H      7   6   4     1.091531065016   107.37938811    86.14219235
 H      8   7   6     1.086219162565   109.92868135   305.01590510
 H      8   7   6     1.087636497724   110.30640306    64.85580896
 H      8   7   6     1.085358255050   109.24374641   184.90657170
 H     10   9   4     1.090461417730   107.18161596   167.90105291
 H     10   9   4     1.090923285316   109.09731194    46.87254590
 H     15  14  12     1.094712799920   108.36274137    54.13023440
 H     15  14  12     1.090714955188   103.92556639   171.08461894
 H     16  15  14     1.085260490086   109.41635882   186.46896757
 H     16  15  14     1.087266076000   110.39630808   306.95872119
 H     16  15  14     1.089543969158   110.00160704    66.90095616
 H     18  17  12     1.091807660090   107.36628248   265.57148321
 H     18  17  12     1.095395435113   108.58629623    23.66404220
 H     19  18  17     1.086145998849   110.32086642    62.15149154
 H     19  18  17     1.085238473542   108.92080873   181.98905504
 H     19  18  17     1.087461878103   109.97560477   301.56750652

---------------------------
INTERNAL COORDINATES (A.U.)
---------------------------
 C      0   0   0     0.000000000000     0.00000000     0.00000000
 C      1   0   0     2.861204503242     0.00000000     0.00000000
 O      2   1   0     2.722218274780   112.78572316     0.00000000
 P      3   2   1     3.003228467953   125.49233219    55.00176928
 S      4   3   2     3.695602206795   119.01165389   282.56956347
 O      4   3   2     2.975235273607   101.28209761   162.67498535
 C      6   4   3     2.740375934995   123.44697635   309.01100893
 C      7   6   4     2.862149919522   108.01621034   206.78509116
 S      4   3   2     4.038590046242   102.70772908    51.53392866
 C      9   4   3     3.409191629792    95.58008599   191.10873345
 S     10   9   4     3.426974739302   112.88025117   288.46443938
 P     11  10   9     3.985324666322    95.80512963   284.74346270
 S     12  11  10     3.714002688650   117.09719867   318.37637779
 O     12  11  10     3.005733767078   105.30393792   189.65226939
 C     14  12  11     2.717484870658   122.47906730    91.51920298
 C     15  14  12     2.862833124426   112.02125943   291.89495736
 O     12  11  10     2.990366619061   100.42355207    84.61447279
 C     17  12  11     2.736534456861   121.80037317   194.07669697
 C     18  17  12     2.862891401061   108.72574780   144.57415312
 H      1   2   3     2.054896197500   110.43251627    54.54867123
 H      1   2   3     2.050748071099   109.42205430   175.01515940
 H      1   2   3     2.058049573364   110.22630385   294.92137543
 H      2   1   3     2.062393158489   111.49425315   244.04166948
 H      2   1   3     2.066308135349   110.69849361   121.31022680
 H      7   6   4     2.066955937609   108.67137164   327.76429154
 H      7   6   4     2.062694779548   107.37938811    86.14219235
 H      8   7   6     2.052656738666   109.92868135   305.01590510
 H      8   7   6     2.055335113956   110.30640306    64.85580896
 H      8   7   6     2.051029859236   109.24374641   184.90657170
 H     10   9   4     2.060673439117   107.18161596   167.90105291
 H     10   9   4     2.061546242365   109.09731194    46.87254590
 H     15  14  12     2.068707387147   108.36274137    54.13023440
 H     15  14  12     2.061152555477   103.92556639   171.08461894
 H     16  15  14     2.050845110227   109.41635882   186.46896757
 H     16  15  14     2.054635118343   110.39630808   306.95872119
 H     16  15  14     2.058939712573   110.00160704    66.90095616
 H     18  17  12     2.063217468487   107.36628248   265.57148321
 H     18  17  12     2.069997380711   108.58629623    23.66404220
 H     19  18  17     2.052518479279   110.32086642    62.15149154
 H     19  18  17     2.050803504989   108.92080873   181.98905504
 H     19  18  17     2.055005130694   109.97560477   301.56750652

---------------------
BASIS SET INFORMATION
---------------------
There are 5 groups of distinct atoms

 Group   1 Type C   : 11s6p1d contracted to 5s3p1d pattern {62111/411/1}
 Group   2 Type O   : 11s6p2d contracted to 5s3p2d pattern {62111/411/11}
 Group   3 Type P   : 14s9p2d contracted to 5s4p2d pattern {73211/6111/11}
 Group   4 Type S   : 14s9p2d contracted to 5s4p2d pattern {73211/6111/11}
 Group   5 Type H   : 4s1p contracted to 2s1p pattern {31/1}

Atom   0C    basis set group =>   1
Atom   1C    basis set group =>   1
Atom   2O    basis set group =>   2
Atom   3P    basis set group =>   3
Atom   4S    basis set group =>   4
Atom   5O    basis set group =>   2
Atom   6C    basis set group =>   1
Atom   7C    basis set group =>   1
Atom   8S    basis set group =>   4
Atom   9C    basis set group =>   1
Atom  10S    basis set group =>   4
Atom  11P    basis set group =>   3
Atom  12S    basis set group =>   4
Atom  13O    basis set group =>   2
Atom  14C    basis set group =>   1
Atom  15C    basis set group =>   1
Atom  16O    basis set group =>   2
Atom  17C    basis set group =>   1
Atom  18C    basis set group =>   1
Atom  19H    basis set group =>   5
Atom  20H    basis set group =>   5
Atom  21H    basis set group =>   5
Atom  22H    basis set group =>   5
Atom  23H    basis set group =>   5
Atom  24H    basis set group =>   5
Atom  25H    basis set group =>   5
Atom  26H    basis set group =>   5
Atom  27H    basis set group =>   5
Atom  28H    basis set group =>   5
Atom  29H    basis set group =>   5
Atom  30H    basis set group =>   5
Atom  31H    basis set group =>   5
Atom  32H    basis set group =>   5
Atom  33H    basis set group =>   5
Atom  34H    basis set group =>   5
Atom  35H    basis set group =>   5
Atom  36H    basis set group =>   5
Atom  37H    basis set group =>   5
Atom  38H    basis set group =>   5
Atom  39H    basis set group =>   5
Atom  40H    basis set group =>   5
---------------------------------
AUXILIARY/J BASIS SET INFORMATION
---------------------------------
There are 5 groups of distinct atoms

 Group   1 Type C   : 12s5p4d2f1g contracted to 6s4p3d1f1g pattern {711111/2111/211/2/1}
 Group   2 Type O   : 12s5p4d2f1g contracted to 6s4p3d1f1g pattern {711111/2111/211/2/1}
 Group   3 Type P   : 14s5p5d2f1g contracted to 8s4p3d1f1g pattern {71111111/2111/311/2/1}
 Group   4 Type S   : 14s5p5d2f1g contracted to 8s4p3d1f1g pattern {71111111/2111/311/2/1}
 Group   5 Type H   : 5s2p1d contracted to 3s1p1d pattern {311/2/1}

Atom   0C    basis set group =>   1
Atom   1C    basis set group =>   1
Atom   2O    basis set group =>   2
Atom   3P    basis set group =>   3
Atom   4S    basis set group =>   4
Atom   5O    basis set group =>   2
Atom   6C    basis set group =>   1
Atom   7C    basis set group =>   1
Atom   8S    basis set group =>   4
Atom   9C    basis set group =>   1
Atom  10S    basis set group =>   4
Atom  11P    basis set group =>   3
Atom  12S    basis set group =>   4
Atom  13O    basis set group =>   2
Atom  14C    basis set group =>   1
Atom  15C    basis set group =>   1
Atom  16O    basis set group =>   2
Atom  17C    basis set group =>   1
Atom  18C    basis set group =>   1
Atom  19H    basis set group =>   5
Atom  20H    basis set group =>   5
Atom  21H    basis set group =>   5
Atom  22H    basis set group =>   5
Atom  23H    basis set group =>   5
Atom  24H    basis set group =>   5
Atom  25H    basis set group =>   5
Atom  26H    basis set group =>   5
Atom  27H    basis set group =>   5
Atom  28H    basis set group =>   5
Atom  29H    basis set group =>   5
Atom  30H    basis set group =>   5
Atom  31H    basis set group =>   5
Atom  32H    basis set group =>   5
Atom  33H    basis set group =>   5
Atom  34H    basis set group =>   5
Atom  35H    basis set group =>   5
Atom  36H    basis set group =>   5
Atom  37H    basis set group =>   5
Atom  38H    basis set group =>   5
Atom  39H    basis set group =>   5
Atom  40H    basis set group =>   5

Checking for AutoStart:
The File: sp_solv.gbw exists
Trying to determine its content:
     ... Fine, the file contains calculation information
     ... Fine, the calculation information was read
     ... Fine, the file contains a basis set
     ... Fine, the basis set was read
     ... Fine, the file contains a geometry
     ... Fine, the geometry was read
     ... Fine, the file contains a set of orbitals
     ... Fine, the orbitals can be read
     => possible old guess file was deleted
     => GBW file was renamed to GES file
     => GES file is set as startup file
     => Guess is set to MORead
     ... now leaving AutoStart

------------------------------------------------------------------------------
                             ORCA STARTUP CALCULATIONS
                           -- RI-GTO INTEGRALS CHOSEN --
------------------------------------------------------------------------------
------------------------------------------------------------------------------
                   ___                                                        
                  /   \      - P O W E R E D   B Y -                         
                 /     \                                                     
                 |  |  |   _    _      __       _____    __    __             
                 |  |  |  | |  | |    /  \     |  _  \  |  |  /  |          
                  \  \/   | |  | |   /    \    | | | |  |  | /  /          
                 / \  \   | |__| |  /  /\  \   | |_| |  |  |/  /          
                |  |  |   |  __  | /  /__\  \  |    /   |      \           
                |  |  |   | |  | | |   __   |  |    \   |  |\   \          
                \     /   | |  | | |  |  |  |  | |\  \  |  | \   \       
                 \___/    |_|  |_| |__|  |__|  |_| \__\ |__|  \__/        
                                                                              
                      - O R C A' S   B I G   F R I E N D -                    
                                      &                                       
                       - I N T E G R A L  F E E D E R -                       
                                                                              
 v1 FN, 2020, v2 2021, v3 2022-2024                                           
------------------------------------------------------------------------------


----------------------
SHARK INTEGRAL PACKAGE
----------------------

Number of atoms                             ...     41
Number of basis functions                   ...    539
Number of shells                            ...    253
Maximum angular momentum                    ...      2
Integral batch strategy                     ... SHARK/LIBINT Hybrid
RI-J (if used) integral strategy            ... SPLIT-RIJ (Revised 2003 algorithm where possible)
Printlevel                                  ...      1
Contraction scheme used                     ... SEGMENTED contraction
Prescreening option                         ... SCHWARTZ
   Thresh                                   ... 1.000e-10
   Tcut                                     ... 1.000e-11
   Tpresel                                  ... 1.000e-11 
Coulomb Range Separation                    ... NOT USED
Exchange Range Separation                   ... NOT USED
Multipole approximations                    ... NOT USED
Finite Nucleus Model                        ... NOT USED
CABS basis                                  ... NOT available
Auxiliary Coulomb fitting basis             ... AVAILABLE
   # of basis functions in Aux-J            ...   1185
   # of shells in Aux-J                     ...    407
   Maximum angular momentum in Aux-J        ...      4
Auxiliary J/K fitting basis                 ... NOT available
Auxiliary Correlation fitting basis         ... NOT available
Auxiliary 'external' fitting basis          ... NOT available

Checking pre-screening integrals            ... done (  0.0 sec) Dimension = 253
Check shell pair data                       ... done (  0.0 sec)
Shell pair information
Shell pair cut-off parameter TPreSel        ...   1.0e-11
Total number of shell pairs                 ...     32131
Shell pairs after pre-screening             ...     21585
Total number of primitive shell pairs       ...    124843
Primitive shell pairs kept                  ...     50369
          la=0 lb=0:   6129 shell pairs
          la=1 lb=0:   7843 shell pairs
          la=1 lb=1:   2566 shell pairs
          la=2 lb=0:   2862 shell pairs
          la=2 lb=1:   1836 shell pairs
          la=2 lb=2:    349 shell pairs

Calculating one electron integrals          ... done (  0.1 sec)
Calculating RI/J V-Matrix + Cholesky decomp.... done (  0.1 sec)
Calculating Nuclear repulsion               ... done (  0.0 sec) ENN=   2773.944976012928 Eh

Diagonalization of the overlap matrix:
Smallest eigenvalue                        ... 2.631e-04
Time for diagonalization                   ...    0.030 sec
Threshold for overlap eigenvalues          ... 1.000e-07
Number of eigenvalues below threshold      ... 0
Time for construction of square roots      ...    0.053 sec
Total time needed                          ...    0.121 sec

-------------------
DFT GRID GENERATION
-------------------

General Integration Accuracy     IntAcc      ... 4.388
Radial Grid Type                 RadialGrid  ... OptM3 with GC (2021)
Angular Grid (max. ang.)         AngularGrid ... 4 (Lebedev-302)
Angular grid pruning method      GridPruning ... 4 (adaptive)
Weight generation scheme         WeightScheme... mBecke (2022)
Basis function cutoff            BFCut       ... 1.0000e-10
Integration weight cutoff        WCut        ... 1.0000e-14
Partially contracted basis set               ... off
Rotationally invariant grid construction     ... off
Angular grids for H and He will be reduced by one unit
Diffuse basis detected: some atoms will have their outermost
                        angular grid increased by 1.

Total number of grid points                  ...   192511
Total number of batches                      ...     3027
Average number of points per batch           ...       63
Average number of grid points per atom       ...     4695
Initializing property integral containers    ... done (  0.0 sec)

SHARK setup successfully completed in   2.9 seconds

Maximum memory used throughout the entire STARTUP-calculation: 102.2 MB
-------------------------------------------------------------------------------
                                 ORCA GUESS
                   Start orbitals & Density for SCF / CASSCF
-------------------------------------------------------------------------------

------------
SCF SETTINGS
------------
Hamiltonian:
 Density Functional     Method          .... DFT(GTOs)
  Functional kind                       .... Exchange
  Functional name                       .... Re-regularized SCAN exchange by Furness et al
  Functional family                     .... MGGA
  Functional refs                              
    [ 0] J. W. Furness, A. D. Kaplan, J. Ning, J. P. Perdew, and J. Sun.,  J. Phys. Chem. Lett. 11, 8208-8215 (2020), doi: 10.1021/acs.jpclett.0c02405
    [ 1] J. W. Furness, A. D. Kaplan, J. Ning, J. P. Perdew, and J. Sun.,  J. Phys. Chem. Lett. 11, 9248-9248 (2020), doi: 10.1021/acs.jpclett.0c03077
  Functional external parameters        .... 6
    Parameter  0 _c1        =  6.670000e-01 : c1 parameter        
    Parameter  1 _c2        =  8.000000e-01 : c2 parameter        
    Parameter  2 _d         =  1.240000e+00 : d parameter         
    Parameter  3 _k1        =  6.500000e-02 : k1 parameter        
    Parameter  4 _eta       =  1.000000e-03 : eta parameter       
    Parameter  5 _dp2       =  3.610000e-01 : dp2 parameter       
  Functional kind                       .... Correlation
  Functional name                       .... Re-regularized SCAN correlation by Furness et al
  Functional family                     .... MGGA
  Functional refs                              
    [ 0] J. W. Furness, A. D. Kaplan, J. Ning, J. P. Perdew, and J. Sun.,  J. Phys. Chem. Lett. 11, 8208-8215 (2020), doi: 10.1021/acs.jpclett.0c02405
    [ 1] J. W. Furness, A. D. Kaplan, J. Ning, J. P. Perdew, and J. Sun.,  J. Phys. Chem. Lett. 11, 9248-9248 (2020), doi: 10.1021/acs.jpclett.0c03077
  Functional external parameters        .... 1
    Parameter  0 _eta       =  1.000000e-03 : Regularization parameter
 Gradients option       PostSCFGGA      .... off
 RI-approximation to the Coulomb term is turned on
   Number of AuxJ basis functions       .... 1185


General Settings:
 Integral files         IntName         .... sp_solv
 Hartree-Fock type      HFTyp           .... RHF
 Total Charge           Charge          ....    0
 Multiplicity           Mult            ....    1
 Number of Electrons    NEL             ....  202
 Basis Dimension        Dim             ....  539
 Nuclear Repulsion      ENuc            ....   2773.9449760129 Eh

Convergence Acceleration:
 AO-DIIS                CNVDIIS         .... on
   Start iteration      DIISMaxIt       ....    12
   Startup error        DIISStart       ....  0.200000
   # of expansion vecs  DIISMaxEq       ....     5
   Bias factor          DIISBfac        ....   1.050
   Max. coefficient     DIISMaxC        ....  10.000
 MO-DIIS                CNVKDIIS        .... off
 Trust-Rad. Augm. Hess. CNVTRAH         .... auto
   Auto Start mean grad. ratio tolernc. ....  1.125000
   Auto Start start iteration           ....     1
   Auto Start num. interpolation iter.  ....    10
   Max. Number of Micro iterations      ....    24
   Max. Number of Macro iterations      .... Maxiter - #DIIS iter
   Number of Davidson start vectors     ....     2
   Converg. threshold    (grad. norm)   ....   3.330e-04
   Grad. Scal. Fac. for Micro threshold ....   0.100
   Minimum threshold for Micro iter.    ....   1.000e-02
   NR start threshold (gradient norm)   ....   1.000e-04
   Initial trust radius                 ....   0.400
   Minimum AH scaling param. (alpha)    ....   1.000
   Maximum AH scaling param. (alpha)    .... 1000.000
   Quad. conv. algorithm                .... NR
   White noise on init. David. guess    .... on
   Maximum white noise                  ....   0.010
   Pseudo random numbers                .... off
   Inactive MOs                         .... canonical
   Orbital update algorithm             .... Taylor
   Preconditioner                       .... Diag
   Full preconditioner red. dimension   ....   250
   COSX micro iterations for RIJONX calc.... off
 SOSCF                  CNVSOSCF        .... on
   Start iteration      SOSCFMaxIt      ....   150
   Startup grad/error   SOSCFStart      ....  0.003300
   Hessian update       SOSCFHessUp     .... L-BFGS
 Level Shifting         CNVShift        .... on
   Level shift para.    LevelShift      ....    0.2500
   Turn off err/grad.   ShiftErr        ....    0.0010
 Zerner damping         CNVZerner       .... off
 Static damping         CNVDamp         .... on
   Fraction old density DampFac         ....    0.7000
   Max. Damping (<1)    DampMax         ....    0.9800
   Min. Damping (>=0)   DampMin         ....    0.0000
   Turn off err/grad.   DampErr         ....    0.1000

SCF Procedure:
 Maximum # iterations   MaxIter         ....   125
 SCF integral mode      SCFMode         .... Direct
   Integral package                     .... SHARK and LIBINT hybrid scheme
 Reset frequency        DirectResetFreq ....    20
 Integral Threshold     Thresh          ....  1.000e-10 Eh
 Primitive CutOff       TCut            ....  1.000e-11 Eh

Convergence Tolerance:
 Convergence Check Mode ConvCheckMode   .... Total+1el-Energy
 Convergence forced     ConvForced      .... 0
 Energy Change          TolE            ....  1.000e-06 Eh
 1-El. energy change                    ....  1.000e-03 Eh
 Orbital Gradient       TolG            ....  3.330e-04
 Orbital Rotation angle TolX            ....  3.330e-04
 DIIS Error             TolErr          ....  1.000e-06

---------------------
INITIAL GUESS: MOREAD
---------------------
Guess MOs are being read from file: sp_solv.ges
Input Geometry matches current geometry (good)
Atom 0: N(Shells)= 9 and 6 - projection required
Input basis set needs projection
NBasis(read)= 334
NBasis(calc)= 539
Basis set overlap was calculated
Using GuessMode=FMatrix for the initial guess
C*T matrix was formed
Effective Fockian was calculated
Effective Fockian was diagonalized
Initial density was built
                      ------------------
                      INITIAL GUESS DONE (   0.2 sec)
                      ------------------
             **** ENERGY FILE WAS UPDATED (sp_solv.en.tmp) ****
Finished Guess after   0.5 sec
Maximum memory used throughout the entire GUESS-calculation: 59.2 MB

-------------------------------------------------------------------------------------------
                                      ORCA LEAN-SCF
                              memory conserving SCF solver
-------------------------------------------------------------------------------------------

--------------------
CPCM SOLVATION MODEL
--------------------
CPCM parameters:
  Epsilon                                         ...      78.3550
  Refrac                                          ...       1.3328
  Rsolv                                           ...       1.3000
  Surface type                                    ... GAUSSIAN VDW
  Discretization scheme                           ... Constant charge density
    Threshold for H atoms                         ...       5.0000 (charges/Ang^2)
    Threshold for non-H atoms                     ...       5.0000 (charges/Ang^2)
  Epsilon function type                           ...         CPCM
Solvent:                                          ... WATER
SMD-CDS solvent descriptors:
  Soln                                            ...       1.3328
  Soln25                                          ...       1.3323
  Sola                                            ...       0.0000
  Solb                                            ...       0.0000
  Solg                                            ...       0.0000
  Solc                                            ...       0.0000
  Solh                                            ...       0.0000
Radii:
  Scheme                                          ... Element-dependent radii
  Radius for C  used is    3.4960 Bohr (=   1.8500 Ang.)
  Radius for O  used is    2.8724 Bohr (=   1.5200 Ang.)
  Radius for P  used is    4.0062 Bohr (=   2.1200 Ang.)
  Radius for S  used is    4.7054 Bohr (=   2.4900 Ang.)
  Radius for H  used is    2.2677 Bohr (=   1.2000 Ang.)
Calculating surface                               ...        done! (  0.0s)
Cavity surface points                             ...         3328
Cavity Volume                                     ...    2769.9923
Cavity Surface-area                               ...    1355.2268
Calculating surface distance matrix               ...        done! (  0.1s)
Performing Cholesky decomposition & store         ...        done! (  0.4s)
Overall time for CPCM initialization              ...                 0.5s

----------------------------------------D-I-I-S--------------------------------------------
Iteration    Energy (Eh)           Delta-E    RMSDP     MaxDP     DIISErr   Damp  Time(sec)
-------------------------------------------------------------------------------------------
               ***  Starting incremental Fock matrix formation  ***
    1    -2932.0232213905560457     0.00e+00  2.27e-03  9.50e-02  6.35e-01  0.700  12.8
    2    -2932.1672227202893737    -1.44e-01  1.86e-03  7.13e-02  4.46e-01  0.700  11.0
    3    -2932.2691092776090045    -1.02e-01  1.37e-03  5.26e-02  3.13e-01  0.700  10.6
    4    -2932.3406388742992021    -7.15e-02  9.87e-04  3.77e-02  2.19e-01  0.700  10.4
                               ***Turning on AO-DIIS***
    5    -2932.3908115971166808    -5.02e-02  7.19e-04  2.73e-02  1.53e-01  0.700  10.1
    6    -2932.4259787826417778    -3.52e-02  5.12e-04  1.94e-02  1.07e-01  0.700   9.8
    7    -2932.4506363215227793    -2.47e-02  3.62e-04  1.41e-02  7.51e-02  0.700   9.8
    8    -2932.4679142313630109    -1.73e-02  8.50e-04  3.34e-02  5.26e-02  0.000   9.7
                              *** Initializing SOSCF ***
---------------------------------------S-O-S-C-F--------------------------------------
Iteration    Energy (Eh)           Delta-E    RMSDP     MaxDP     MaxGrad    Time(sec)
--------------------------------------------------------------------------------------
    9    -2932.5082862987251247    -4.04e-02  8.35e-06  5.66e-04  2.81e-04    10.2
               *** Restarting incremental Fock matrix formation ***
   10    -2932.5082873145215672    -1.02e-06  6.75e-06  6.20e-04  5.37e-05    12.7
                  *** Gradient check signals convergence ***

               *****************************************************
               *                     SUCCESS                       *
               *           SCF CONVERGED AFTER  10 CYCLES          *
               *****************************************************


SMD CDS free energy correction energy :                 7.33414     Kcal/mol
Total Energy after SMD CDS correction =             -2932.496599612 Eh
             **** ENERGY FILE WAS UPDATED (sp_solv.en.tmp) ****

----------------
TOTAL SCF ENERGY
----------------

Total Energy       :      -2932.49659961237330 Eh          -79797.28929 eV

Components:
Nuclear Repulsion  :       2773.94497601292778 Eh           75482.88027 eV
Electronic Energy  :      -5706.42736252499708 Eh         -155279.78281 eV
One Electron Energy:      -9569.28178252671569 Eh         -260393.39545 eV
Two Electron Energy:       3862.85442000171861 Eh          105113.61264 eV
CPCM Dielectric    :         -0.02590080245236 Eh              -0.70480 eV
SMD CDS (Gcds)     :          0.01168770214805 Eh               0.31804 eV

Virial components:
Potential Energy   :      -5856.18457863345429 Eh         -159354.88383 eV
Kinetic Energy     :       2923.68797902108099 Eh           79557.59454 eV
Virial Ratio       :          2.00301284564376

DFT components:
N(Alpha)           :      100.999909668913 electrons
N(Beta)            :      100.999909668913 electrons
N(Total)           :      201.999819337827 electrons
E(X)               :     -233.540256997489 Eh       
E(C)               :       -7.120431228177 Eh       
E(XC)              :     -240.660688225665 Eh       

CPCM Solvation Model Properties:
Surface-charge          :         -0.04503263952626
Corrected charge        :         -0.00000000000000
Outlying charge corr.   :          0.00010476510583 Eh               0.00285 eV
Free-energy (cav+disp)  :          0.01168770214805 Eh               0.31804 eV

---------------
SCF CONVERGENCE
---------------

  Last Energy change         ...    1.0158e-06  Tolerance :   1.0000e-06
  Last MAX-Density change    ...    6.1970e-04  Tolerance :   1.0000e-05
  Last RMS-Density change    ...    6.7529e-06  Tolerance :   1.0000e-06
  Last DIIS Error            ...    2.8145e-04  Tolerance :   1.0000e-06
  Last Orbital Gradient      ...    5.3744e-05  Tolerance :   3.3300e-04
  Last Orbital Rotation      ...    1.6394e-04  Tolerance :   3.3300e-04


----------------
ORBITAL ENERGIES
----------------

  NO   OCC          E(Eh)            E(eV) 
   0   2.0000     -88.581297     -2410.4196 
   1   2.0000     -88.578932     -2410.3553 
   2   2.0000     -88.528925     -2408.9945 
   3   2.0000     -88.528134     -2408.9730 
   4   2.0000     -76.920366     -2093.1096 
   5   2.0000     -76.919634     -2093.0897 
   6   2.0000     -18.997136      -516.9383 
   7   2.0000     -18.996969      -516.9338 
   8   2.0000     -18.993604      -516.8422 
   9   2.0000     -18.992552      -516.8136 
  10   2.0000     -10.104585      -274.9597 
  11   2.0000     -10.093816      -274.6667 
  12   2.0000     -10.090343      -274.5722 
  13   2.0000     -10.089883      -274.5597 
  14   2.0000     -10.088700      -274.5275 
  15   2.0000     -10.019052      -272.6323 
  16   2.0000     -10.018941      -272.6292 
  17   2.0000     -10.018774      -272.6247 
  18   2.0000     -10.018480      -272.6167 
  19   2.0000      -7.875619      -214.3065 
  20   2.0000      -7.873286      -214.2430 
  21   2.0000      -7.823999      -212.9018 
  22   2.0000      -7.823348      -212.8841 
  23   2.0000      -6.598757      -179.5613 
  24   2.0000      -6.598344      -179.5501 
  25   2.0000      -5.822505      -158.4384 
  26   2.0000      -5.820045      -158.3715 
  27   2.0000      -5.819519      -158.3572 
  28   2.0000      -5.817073      -158.2906 
  29   2.0000      -5.812688      -158.1713 
  30   2.0000      -5.810579      -158.1139 
  31   2.0000      -5.771448      -157.0491 
  32   2.0000      -5.771019      -157.0374 
  33   2.0000      -5.764292      -156.8544 
  34   2.0000      -5.764120      -156.8497 
  35   2.0000      -5.763601      -156.8356 
  36   2.0000      -5.763282      -156.8269 
  37   2.0000      -4.744512      -129.1047 
  38   2.0000      -4.743927      -129.0888 
  39   2.0000      -4.743805      -129.0855 
  40   2.0000      -4.743188      -129.0687 
  41   2.0000      -4.742178      -129.0412 
  42   2.0000      -4.742108      -129.0393 
  43   2.0000      -1.054612       -28.6975 
  44   2.0000      -1.052727       -28.6462 
  45   2.0000      -1.012696       -27.5569 
  46   2.0000      -1.012005       -27.5380 
  47   2.0000      -0.806365       -21.9423 
  48   2.0000      -0.757914       -20.6239 
  49   2.0000      -0.746547       -20.3146 
  50   2.0000      -0.726125       -19.7589 
  51   2.0000      -0.723342       -19.6831 
  52   2.0000      -0.712033       -19.3754 
  53   2.0000      -0.689123       -18.7520 
  54   2.0000      -0.675524       -18.3819 
  55   2.0000      -0.629352       -17.1255 
  56   2.0000      -0.617500       -16.8030 
  57   2.0000      -0.600526       -16.3411 
  58   2.0000      -0.598946       -16.2982 
  59   2.0000      -0.589153       -16.0317 
  60   2.0000      -0.530376       -14.4323 
  61   2.0000      -0.522012       -14.2047 
  62   2.0000      -0.490666       -13.3517 
  63   2.0000      -0.490413       -13.3448 
  64   2.0000      -0.480148       -13.0655 
  65   2.0000      -0.458433       -12.4746 
  66   2.0000      -0.456112       -12.4114 
  67   2.0000      -0.446922       -12.1614 
  68   2.0000      -0.442054       -12.0289 
  69   2.0000      -0.433871       -11.8062 
  70   2.0000      -0.430295       -11.7089 
  71   2.0000      -0.413078       -11.2404 
  72   2.0000      -0.405221       -11.0266 
  73   2.0000      -0.401101       -10.9145 
  74   2.0000      -0.397155       -10.8071 
  75   2.0000      -0.390442       -10.6245 
  76   2.0000      -0.374336       -10.1862 
  77   2.0000      -0.365216        -9.9380 
  78   2.0000      -0.360976        -9.8227 
  79   2.0000      -0.359089        -9.7713 
  80   2.0000      -0.355757        -9.6806 
  81   2.0000      -0.353651        -9.6233 
  82   2.0000      -0.349495        -9.5102 
  83   2.0000      -0.348626        -9.4866 
  84   2.0000      -0.346278        -9.4227 
  85   2.0000      -0.330188        -8.9849 
  86   2.0000      -0.323464        -8.8019 
  87   2.0000      -0.311713        -8.4821 
  88   2.0000      -0.308646        -8.3987 
  89   2.0000      -0.306138        -8.3304 
  90   2.0000      -0.303649        -8.2627 
  91   2.0000      -0.290163        -7.8957 
  92   2.0000      -0.287842        -7.8326 
  93   2.0000      -0.280361        -7.6290 
  94   2.0000      -0.273730        -7.4486 
  95   2.0000      -0.252156        -6.8615 
  96   2.0000      -0.239284        -6.5112 
  97   2.0000      -0.232876        -6.3369 
  98   2.0000      -0.225902        -6.1471 
  99   2.0000      -0.223817        -6.0904 
 100   2.0000      -0.221174        -6.0185 
 101   0.0000      -0.051961        -1.4139 
 102   0.0000      -0.032696        -0.8897 
 103   0.0000      -0.009673        -0.2632 
 104   0.0000      -0.006709        -0.1826 
 105   0.0000       0.014179         0.3858 
 106   0.0000       0.025468         0.6930 
 107   0.0000       0.026264         0.7147 
 108   0.0000       0.034885         0.9493 
 109   0.0000       0.047533         1.2934 
 110   0.0000       0.066698         1.8149 
 111   0.0000       0.080286         2.1847 
*Only the first 10 virtual orbitals were printed.

                    ********************************
                    * MULLIKEN POPULATION ANALYSIS *
                    ********************************

-----------------------
MULLIKEN ATOMIC CHARGES
-----------------------
   0 C :   -0.464776
   1 C :   -0.160226
   2 O :   -0.315303
   3 P :    0.670103
   4 S :   -0.495588
   5 O :   -0.292857
   6 C :   -0.104299
   7 C :   -0.502975
   8 S :   -0.169848
   9 C :   -0.250360
  10 S :   -0.116538
  11 P :    0.719178
  12 S :   -0.538366
  13 O :   -0.338925
  14 C :   -0.146787
  15 C :   -0.493060
  16 O :   -0.283969
  17 C :   -0.116386
  18 C :   -0.507936
  19 H :    0.170460
  20 H :    0.173605
  21 H :    0.164532
  22 H :    0.177730
  23 H :    0.172036
  24 H :    0.174244
  25 H :    0.176380
  26 H :    0.167016
  27 H :    0.168443
  28 H :    0.172173
  29 H :    0.233966
  30 H :    0.234011
  31 H :    0.177700
  32 H :    0.175231
  33 H :    0.173390
  34 H :    0.170947
  35 H :    0.172893
  36 H :    0.174225
  37 H :    0.169370
  38 H :    0.170643
  39 H :    0.169462
  40 H :    0.170461
Sum of atomic charges:    0.0000000

--------------------------------
MULLIKEN REDUCED ORBITAL CHARGES
--------------------------------
  0 C s       :     3.322405  s :     3.322405
      pz      :     1.051972  p :     3.116758
      px      :     1.039811
      py      :     1.024975
      dz2     :     0.003008  d :     0.025613
      dxz     :     0.005352
      dyz     :     0.007092
      dx2y2   :     0.002335
      dxy     :     0.007826

  1 C s       :     3.298109  s :     3.298109
      pz      :     0.776234  p :     2.807490
      px      :     1.062565
      py      :     0.968691
      dz2     :     0.012652  d :     0.054628
      dxz     :     0.012997
      dyz     :     0.013631
      dx2y2   :     0.004847
      dxy     :     0.010501

  2 O s       :     3.736027  s :     3.736027
      pz      :     1.470954  p :     4.552104
      px      :     1.650123
      py      :     1.431027
      dz2     :     0.007809  d :     0.027173
      dxz     :     0.004412
      dyz     :     0.005240
      dx2y2   :     0.000483
      dxy     :     0.009229

  3 P s       :     5.163090  s :     5.163090
      pz      :     2.819838  p :     8.446734
      px      :     2.836403
      py      :     2.790492
      dz2     :     0.140402  d :     0.720073
      dxz     :     0.125099
      dyz     :     0.149832
      dx2y2   :     0.155324
      dxy     :     0.149416

  4 S s       :     5.893966  s :     5.893966
      pz      :     3.708321  p :    10.538278
      px      :     3.583421
      py      :     3.246536
      dz2     :     0.009454  d :     0.063344
      dxz     :     0.004003
      dyz     :     0.010825
      dx2y2   :     0.018370
      dxy     :     0.020691

  5 O s       :     3.732490  s :     3.732490
      pz      :     1.353145  p :     4.541212
      px      :     1.702096
      py      :     1.485971
      dz2     :     0.013205  d :     0.019155
      dxz     :     0.001528
      dyz     :    -0.005945
      dx2y2   :     0.007912
      dxy     :     0.002454

  6 C s       :     3.277513  s :     3.277513
      pz      :     0.968695  p :     2.773613
      px      :     1.002337
      py      :     0.802581
      dz2     :     0.007985  d :     0.053173
      dxz     :     0.010332
      dyz     :     0.012133
      dx2y2   :     0.008098
      dxy     :     0.014625

  7 C s       :     3.355384  s :     3.355384
      pz      :     0.986836  p :     3.121977
      px      :     1.039719
      py      :     1.095422
      dz2     :     0.003941  d :     0.025614
      dxz     :     0.007293
      dyz     :     0.005667
      dx2y2   :     0.002653
      dxy     :     0.006060

  8 S s       :     5.917674  s :     5.917674
      pz      :     3.629514  p :    10.146546
      px      :     3.284580
      py      :     3.232451
      dz2     :     0.013684  d :     0.105628
      dxz     :     0.021050
      dyz     :     0.017814
      dx2y2   :     0.026729
      dxy     :     0.026351

  9 C s       :     3.186003  s :     3.186003
      pz      :     0.953774  p :     3.028505
      px      :     1.123693
      py      :     0.951038
      dz2     :     0.008005  d :     0.035852
      dxz     :     0.008059
      dyz     :     0.005749
      dx2y2   :     0.005532
      dxy     :     0.008507

 10 S s       :     5.910955  s :     5.910955
      pz      :     3.280427  p :    10.097782
      px      :     3.196836
      py      :     3.620518
      dz2     :     0.027227  d :     0.107802
      dxz     :     0.023746
      dyz     :     0.016934
      dx2y2   :     0.013407
      dxy     :     0.026486

 11 P s       :     5.109176  s :     5.109176
      pz      :     2.811806  p :     8.449298
      px      :     2.815316
      py      :     2.822176
      dz2     :     0.156434  d :     0.722348
      dxz     :     0.151191
      dyz     :     0.169361
      dx2y2   :     0.119425
      dxy     :     0.125936

 12 S s       :     5.906328  s :     5.906328
      pz      :     3.269147  p :    10.564392
      px      :     3.581775
      py      :     3.713470
      dz2     :     0.023042  d :     0.067646
      dxz     :     0.023085
      dyz     :     0.011485
      dx2y2   :     0.005852
      dxy     :     0.004181

 13 O s       :     3.743809  s :     3.743809
      pz      :     1.594782  p :     4.565020
      px      :     1.417929
      py      :     1.552309
      dz2     :     0.004533  d :     0.030096
      dxz     :     0.013600
      dyz     :     0.003007
      dx2y2   :     0.005507
      dxy     :     0.003448

 14 C s       :     3.291481  s :     3.291481
      pz      :     1.145064  p :     2.800872
      px      :     0.849707
      py      :     0.806101
      dz2     :     0.008149  d :     0.054434
      dxz     :     0.011715
      dyz     :     0.006062
      dx2y2   :     0.012442
      dxy     :     0.016065

 15 C s       :     3.336194  s :     3.336194
      pz      :     1.088417  p :     3.131204
      px      :     1.084054
      py      :     0.958733
      dz2     :     0.005297  d :     0.025662
      dxz     :     0.006935
      dyz     :     0.002553
      dx2y2   :     0.003708
      dxy     :     0.007169

 16 O s       :     3.721437  s :     3.721437
      pz      :     1.753857  p :     4.545042
      px      :     1.657609
      py      :     1.133575
      dz2     :    -0.002915  d :     0.017490
      dxz     :     0.011260
      dyz     :    -0.000918
      dx2y2   :    -0.005404
      dxy     :     0.015467

 17 C s       :     3.280066  s :     3.280066
      pz      :     1.104356  p :     2.782853
      px      :     0.945032
      py      :     0.733466
      dz2     :     0.007159  d :     0.053467
      dxz     :     0.011946
      dyz     :     0.008337
      dx2y2   :     0.010676
      dxy     :     0.015350

 18 C s       :     3.355076  s :     3.355076
      pz      :     1.095419  p :     3.127222
      px      :     1.023746
      py      :     1.008058
      dz2     :     0.004344  d :     0.025638
      dxz     :     0.008107
      dyz     :     0.002631
      dx2y2   :     0.002674
      dxy     :     0.007883

 19 H s       :     0.811303  s :     0.811303
      pz      :     0.005191  p :     0.018237
      px      :     0.008013
      py      :     0.005033

 20 H s       :     0.807860  s :     0.807860
      pz      :     0.008843  p :     0.018535
      px      :     0.004592
      py      :     0.005100

 21 H s       :     0.816828  s :     0.816828
      pz      :     0.004230  p :     0.018640
      px      :     0.006496
      py      :     0.007914

 22 H s       :     0.804745  s :     0.804745
      pz      :     0.002864  p :     0.017525
      px      :     0.006588
      py      :     0.008073

 23 H s       :     0.810282  s :     0.810282
      pz      :     0.004550  p :     0.017682
      px      :     0.008577
      py      :     0.004555

 24 H s       :     0.807448  s :     0.807448
      pz      :     0.007719  p :     0.018309
      px      :     0.005923
      py      :     0.004667

 25 H s       :     0.806029  s :     0.806029
      pz      :     0.004036  p :     0.017590
      px      :     0.007729
      py      :     0.005826

 26 H s       :     0.814650  s :     0.814650
      pz      :     0.007025  p :     0.018334
      px      :     0.005437
      py      :     0.005871

 27 H s       :     0.813144  s :     0.813144
      pz      :     0.004313  p :     0.018413
      px      :     0.008152
      py      :     0.005949

 28 H s       :     0.809338  s :     0.809338
      pz      :     0.005158  p :     0.018489
      px      :     0.004656
      py      :     0.008675

 29 H s       :     0.746454  s :     0.746454
      pz      :     0.007830  p :     0.019580
      px      :     0.008616
      py      :     0.003134

 30 H s       :     0.746297  s :     0.746297
      pz      :     0.003423  p :     0.019692
      px      :     0.008998
      py      :     0.007272

 31 H s       :     0.804447  s :     0.804447
      pz      :     0.009102  p :     0.017854
      px      :     0.005844
      py      :     0.002908

 32 H s       :     0.807203  s :     0.807203
      pz      :     0.009414  p :     0.017566
      px      :     0.005433
      py      :     0.002719

 33 H s       :     0.808080  s :     0.808080
      pz      :     0.003717  p :     0.018530
      px      :     0.007249
      py      :     0.007565

 34 H s       :     0.810841  s :     0.810841
      pz      :     0.007642  p :     0.018211
      px      :     0.006976
      py      :     0.003593

 35 H s       :     0.808622  s :     0.808622
      pz      :     0.009388  p :     0.018485
      px      :     0.005514
      py      :     0.003583

 36 H s       :     0.808219  s :     0.808219
      pz      :     0.008706  p :     0.017556
      px      :     0.005991
      py      :     0.002859

 37 H s       :     0.812099  s :     0.812099
      pz      :     0.009228  p :     0.018531
      px      :     0.006419
      py      :     0.002883

 38 H s       :     0.810981  s :     0.810981
      pz      :     0.008429  p :     0.018376
      px      :     0.006216
      py      :     0.003731

 39 H s       :     0.812025  s :     0.812025
      pz      :     0.004066  p :     0.018513
      px      :     0.005315
      py      :     0.009133

 40 H s       :     0.811219  s :     0.811219
      pz      :     0.008158  p :     0.018320
      px      :     0.006295
      py      :     0.003867


------------------------
MULLIKEN OVERLAP CHARGES
------------------------
B(  0-C ,  1-C ) :   0.4162 B(  0-C ,  2-O ) :  -0.1252 B(  0-C , 19-H ) :   0.8189 
B(  0-C , 20-H ) :   0.7969 B(  0-C , 21-H ) :   0.8218 B(  0-C , 23-H ) :  -0.1089 
B(  1-C ,  2-O ) :   0.2942 B(  1-C ,  3-P ) :  -0.1782 B(  1-C ,  8-S ) :   0.0707 
B(  1-C , 19-H ) :  -0.0697 B(  1-C , 20-H ) :  -0.0649 B(  1-C , 21-H ) :  -0.0617 
B(  1-C , 22-H ) :   0.8045 B(  1-C , 23-H ) :   0.8364 B(  2-O ,  3-P ) :   0.5063 
B(  2-O ,  4-S ) :  -0.0728 B(  2-O ,  5-O ) :  -0.2425 B(  2-O ,  8-S ) :  -0.0968 
B(  2-O , 22-H ) :  -0.1032 B(  2-O , 23-H ) :  -0.0724 B(  3-P ,  4-S ) :   1.3381 
B(  3-P ,  5-O ) :   0.6779 B(  3-P ,  6-C ) :  -0.2210 B(  3-P ,  8-S ) :   0.5874 
B(  3-P ,  9-C ) :  -0.1079 B(  4-S ,  5-O ) :  -0.1526 B(  4-S ,  8-S ) :  -0.1156 
B(  5-O ,  6-C ) :   0.2086 B(  5-O ,  7-C ) :  -0.0681 B(  5-O ,  8-S ) :  -0.1084 
B(  5-O , 24-H ) :  -0.0833 B(  5-O , 25-H ) :  -0.0683 B(  6-C ,  7-C ) :   0.3921 
B(  6-C , 24-H ) :   0.8221 B(  6-C , 25-H ) :   0.7667 B(  6-C , 26-H ) :  -0.0610 
B(  6-C , 27-H ) :  -0.0699 B(  6-C , 28-H ) :  -0.0762 B(  7-C , 26-H ) :   0.8254 
B(  7-C , 27-H ) :   0.8281 B(  7-C , 28-H ) :   0.8163 B(  8-S ,  9-C ) :   0.3880 
B(  8-S , 10-S ) :  -0.1637 B(  8-S , 29-H ) :  -0.0815 B(  8-S , 30-H ) :  -0.0617 
B(  9-C , 10-S ) :   0.3742 B(  9-C , 11-P ) :  -0.0912 B(  9-C , 29-H ) :   0.8014 
B(  9-C , 30-H ) :   0.7894 B( 10-S , 11-P ) :   0.7709 B( 10-S , 12-S ) :  -0.1008 
B( 10-S , 13-O ) :  -0.0748 B( 10-S , 16-O ) :  -0.1518 B( 10-S , 29-H ) :  -0.0578 
B( 10-S , 30-H ) :  -0.0760 B( 11-P , 12-S ) :   1.2208 B( 11-P , 13-O ) :   0.5339 
B( 11-P , 14-C ) :  -0.1572 B( 11-P , 16-O ) :   0.6201 B( 11-P , 17-C ) :  -0.1705 
B( 12-S , 13-O ) :  -0.0954 B( 12-S , 16-O ) :  -0.0939 B( 13-O , 14-C ) :   0.3510 
B( 13-O , 15-C ) :  -0.1697 B( 13-O , 16-O ) :  -0.2457 B( 13-O , 31-H ) :  -0.0817 
B( 13-O , 32-H ) :  -0.0988 B( 14-C , 15-C ) :   0.4198 B( 14-C , 31-H ) :   0.8768 
B( 14-C , 32-H ) :   0.7955 B( 14-C , 34-H ) :  -0.0693 B( 14-C , 35-H ) :  -0.0858 
B( 15-C , 31-H ) :  -0.1134 B( 15-C , 33-H ) :   0.7781 B( 15-C , 34-H ) :   0.8129 
B( 15-C , 35-H ) :   0.8393 B( 16-O , 17-C ) :   0.2257 B( 16-O , 18-C ) :  -0.1243 
B( 16-O , 36-H ) :  -0.0709 B( 16-O , 37-H ) :  -0.0714 B( 17-C , 18-C ) :   0.5015 
B( 17-C , 36-H ) :   0.7717 B( 17-C , 37-H ) :   0.8460 B( 17-C , 38-H ) :  -0.0654 
B( 17-C , 39-H ) :  -0.0648 B( 17-C , 40-H ) :  -0.0849 B( 18-C , 37-H ) :  -0.0635 
B( 18-C , 38-H ) :   0.8294 B( 18-C , 39-H ) :   0.8032 B( 18-C , 40-H ) :   0.8418 
B( 19-H , 21-H ) :  -0.0524 B( 24-H , 25-H ) :  -0.0570 B( 34-H , 35-H ) :  -0.0544 
B( 36-H , 37-H ) :  -0.0558 B( 38-H , 40-H ) :  -0.0509 


                     *******************************
                     * LOEWDIN POPULATION ANALYSIS *
                     *******************************

----------------------
LOEWDIN ATOMIC CHARGES
----------------------
   0 C :   -0.409033
   1 C :    0.031662
   2 O :   -0.669460
   3 P :    0.380098
   4 S :   -0.150571
   5 O :   -0.677333
   6 C :    0.028466
   7 C :   -0.395444
   8 S :    0.145135
   9 C :   -0.419768
  10 S :    0.176119
  11 P :    0.378580
  12 S :   -0.170224
  13 O :   -0.668349
  14 C :    0.025684
  15 C :   -0.409531
  16 O :   -0.687747
  17 C :    0.029000
  18 C :   -0.396823
  19 H :    0.164425
  20 H :    0.168755
  21 H :    0.162042
  22 H :    0.193315
  23 H :    0.179540
  24 H :    0.184546
  25 H :    0.183571
  26 H :    0.164576
  27 H :    0.164406
  28 H :    0.170455
  29 H :    0.198278
  30 H :    0.198768
  31 H :    0.181680
  32 H :    0.191114
  33 H :    0.168952
  34 H :    0.163815
  35 H :    0.161672
  36 H :    0.182047
  37 H :    0.183139
  38 H :    0.162753
  39 H :    0.167909
  40 H :    0.163781

-------------------------------
LOEWDIN REDUCED ORBITAL CHARGES
-------------------------------
  0 C s       :     2.975762  s :     2.975762
      pz      :     1.113106  p :     3.372928
      px      :     1.135653
      py      :     1.124170
      dz2     :     0.006876  d :     0.060343
      dxz     :     0.012682
      dyz     :     0.016826
      dx2y2   :     0.004844
      dxy     :     0.019115

  1 C s       :     2.874927  s :     2.874927
      pz      :     0.872510  p :     2.971395
      px      :     1.076825
      py      :     1.022059
      dz2     :     0.028444  d :     0.122016
      dxz     :     0.029737
      dyz     :     0.031032
      dx2y2   :     0.008309
      dxy     :     0.024495

  2 O s       :     3.462325  s :     3.462325
      pz      :     1.518524  p :     4.741414
      px      :     1.650322
      py      :     1.572569
      dz2     :     0.104757  d :     0.465721
      dxz     :     0.091049
      dyz     :     0.101379
      dx2y2   :     0.069946
      dxy     :     0.098589

  3 P s       :     4.652101  s :     4.652101
      pz      :     2.752714  p :     8.388178
      px      :     2.789120
      py      :     2.846344
      dz2     :     0.342548  d :     1.579623
      dxz     :     0.307757
      dyz     :     0.266537
      dx2y2   :     0.327424
      dxy     :     0.335358

  4 S s       :     5.560011  s :     5.560011
      pz      :     3.638734  p :    10.455741
      px      :     3.536241
      py      :     3.280766
      dz2     :     0.021629  d :     0.134819
      dxz     :     0.008150
      dyz     :     0.019619
      dx2y2   :     0.038631
      dxy     :     0.046790

  5 O s       :     3.466548  s :     3.466548
      pz      :     1.525819  p :     4.732140
      px      :     1.662159
      py      :     1.544163
      dz2     :     0.113617  d :     0.478644
      dxz     :     0.092716
      dyz     :     0.113793
      dx2y2   :     0.068079
      dxy     :     0.090440

  6 C s       :     2.877261  s :     2.877261
      pz      :     1.041856  p :     2.975533
      px      :     1.048429
      py      :     0.885248
      dz2     :     0.015898  d :     0.118740
      dxz     :     0.024990
      dyz     :     0.027489
      dx2y2   :     0.016461
      dxy     :     0.033903

  7 C s       :     2.972937  s :     2.972937
      pz      :     1.090729  p :     3.362462
      px      :     1.117719
      py      :     1.154014
      dz2     :     0.008115  d :     0.060044
      dxz     :     0.016653
      dyz     :     0.014159
      dx2y2   :     0.005845
      dxy     :     0.015271

  8 S s       :     5.442144  s :     5.442144
      pz      :     3.567806  p :    10.108201
      px      :     3.267243
      py      :     3.273152
      dz2     :     0.035552  d :     0.304520
      dxz     :     0.064212
      dyz     :     0.046215
      dx2y2   :     0.081532
      dxy     :     0.077009

  9 C s       :     3.010396  s :     3.010396
      pz      :     1.085300  p :     3.325939
      px      :     1.150009
      py      :     1.090629
      dz2     :     0.019519  d :     0.083434
      dxz     :     0.019016
      dyz     :     0.012065
      dx2y2   :     0.012506
      dxy     :     0.020329

 10 S s       :     5.437428  s :     5.437428
      pz      :     3.308795  p :    10.086090
      px      :     3.216615
      py      :     3.560680
      dz2     :     0.082050  d :     0.300363
      dxz     :     0.072094
      dyz     :     0.043166
      dx2y2   :     0.037759
      dxy     :     0.065295

 11 P s       :     4.651943  s :     4.651943
      pz      :     2.845592  p :     8.392550
      px      :     2.797341
      py      :     2.749618
      dz2     :     0.358313  d :     1.576926
      dxz     :     0.341484
      dyz     :     0.308875
      dx2y2   :     0.251047
      dxy     :     0.317208

 12 S s       :     5.564782  s :     5.564782
      pz      :     3.293303  p :    10.466192
      px      :     3.534273
      py      :     3.638616
      dz2     :     0.050419  d :     0.139251
      dxz     :     0.051517
      dyz     :     0.018074
      dx2y2   :     0.011389
      dxy     :     0.007852

 13 O s       :     3.467428  s :     3.467428
      pz      :     1.640271  p :     4.738319
      px      :     1.531260
      py      :     1.566788
      dz2     :     0.086198  d :     0.462602
      dxz     :     0.114374
      dyz     :     0.063667
      dx2y2   :     0.100507
      dxy     :     0.097857

 14 C s       :     2.875860  s :     2.875860
      pz      :     1.120262  p :     2.976451
      px      :     0.936617
      py      :     0.919572
      dz2     :     0.019062  d :     0.122005
      dxz     :     0.029095
      dyz     :     0.010925
      dx2y2   :     0.027098
      dxy     :     0.035825

 15 C s       :     2.976696  s :     2.976696
      pz      :     1.157736  p :     3.372553
      px      :     1.150806
      py      :     1.064011
      dz2     :     0.012793  d :     0.060282
      dxz     :     0.017374
      dyz     :     0.004671
      dx2y2   :     0.007832
      dxy     :     0.017613

 16 O s       :     3.468803  s :     3.468803
      pz      :     1.711399  p :     4.732600
      px      :     1.644299
      py      :     1.376902
      dz2     :     0.056676  d :     0.486344
      dxz     :     0.062481
      dyz     :     0.102554
      dx2y2   :     0.126046
      dxy     :     0.138587

 17 C s       :     2.876651  s :     2.876651
      pz      :     1.107127  p :     2.974868
      px      :     1.010159
      py      :     0.857582
      dz2     :     0.015854  d :     0.119481
      dxz     :     0.029053
      dyz     :     0.016473
      dx2y2   :     0.022189
      dxy     :     0.035911

 18 C s       :     2.974295  s :     2.974295
      pz      :     1.155761  p :     3.362310
      px      :     1.120720
      py      :     1.085829
      dz2     :     0.010175  d :     0.060218
      dxz     :     0.020091
      dyz     :     0.005392
      dx2y2   :     0.005779
      dxy     :     0.018782

 19 H s       :     0.791682  s :     0.791682
      pz      :     0.012405  p :     0.043893
      px      :     0.019872
      py      :     0.011616

 20 H s       :     0.786539  s :     0.786539
      pz      :     0.021698  p :     0.044705
      px      :     0.010537
      py      :     0.012470

 21 H s       :     0.793117  s :     0.793117
      pz      :     0.009581  p :     0.044841
      px      :     0.016232
      py      :     0.019028

 22 H s       :     0.766109  s :     0.766109
      pz      :     0.007088  p :     0.040576
      px      :     0.015213
      py      :     0.018275

 23 H s       :     0.778812  s :     0.778812
      pz      :     0.009957  p :     0.041648
      px      :     0.021392
      py      :     0.010300

 24 H s       :     0.772386  s :     0.772386
      pz      :     0.019228  p :     0.043068
      px      :     0.013651
      py      :     0.010189

 25 H s       :     0.774987  s :     0.774987
      pz      :     0.009329  p :     0.041442
      px      :     0.019387
      py      :     0.012726

 26 H s       :     0.791620  s :     0.791620
      pz      :     0.016542  p :     0.043804
      px      :     0.013256
      py      :     0.014006

 27 H s       :     0.791000  s :     0.791000
      pz      :     0.010185  p :     0.044594
      px      :     0.020000
      py      :     0.014409

 28 H s       :     0.785082  s :     0.785082
      pz      :     0.012011  p :     0.044463
      px      :     0.010732
      py      :     0.021721

 29 H s       :     0.752216  s :     0.752216
      pz      :     0.020202  p :     0.049506
      px      :     0.021986
      py      :     0.007317

 30 H s       :     0.751288  s :     0.751288
      pz      :     0.008033  p :     0.049945
      px      :     0.023122
      py      :     0.018790

 31 H s       :     0.775886  s :     0.775886
      pz      :     0.021935  p :     0.042434
      px      :     0.013278
      py      :     0.007221

 32 H s       :     0.768231  s :     0.768231
      pz      :     0.022992  p :     0.040654
      px      :     0.011478
      py      :     0.006184

 33 H s       :     0.786374  s :     0.786374
      pz      :     0.008240  p :     0.044674
      px      :     0.018067
      py      :     0.018368

 34 H s       :     0.792247  s :     0.792247
      pz      :     0.019201  p :     0.043938
      px      :     0.016824
      py      :     0.007913

 35 H s       :     0.793621  s :     0.793621
      pz      :     0.023801  p :     0.044706
      px      :     0.012888
      py      :     0.008017

 36 H s       :     0.776622  s :     0.776622
      pz      :     0.021639  p :     0.041331
      px      :     0.013609
      py      :     0.006084

 37 H s       :     0.773228  s :     0.773228
      pz      :     0.022270  p :     0.043633
      px      :     0.014720
      py      :     0.006643

 38 H s       :     0.793183  s :     0.793183
      pz      :     0.021173  p :     0.044064
      px      :     0.014696
      py      :     0.008195

 39 H s       :     0.787632  s :     0.787632
      pz      :     0.009129  p :     0.044459
      px      :     0.012958
      py      :     0.022372

 40 H s       :     0.792195  s :     0.792195
      pz      :     0.020264  p :     0.044024
      px      :     0.014933
      py      :     0.008826


---------------------------------
LOEWDIN BOND ORDERS (THRESH 0.050000)
---------------------------------
B(  0-C ,  1-C ) :   1.0965 B(  0-C ,  2-O ) :   0.1529 B(  0-C , 19-H ) :   0.9202 
B(  0-C , 20-H ) :   0.9110 B(  0-C , 21-H ) :   0.9151 B(  1-C ,  2-O ) :   1.2975 
B(  1-C ,  3-P ) :   0.0882 B(  1-C , 20-H ) :   0.0514 B(  1-C , 22-H ) :   0.8217 
B(  1-C , 23-H ) :   0.8266 B(  2-O ,  3-P ) :   1.5710 B(  2-O ,  4-S ) :   0.1633 
B(  2-O ,  5-O ) :   0.2278 B(  2-O ,  8-S ) :   0.1496 B(  2-O , 22-H ) :   0.1011 
B(  2-O , 23-H ) :   0.0990 B(  3-P ,  4-S ) :   2.0304 B(  3-P ,  5-O ) :   1.5897 
B(  3-P ,  6-C ) :   0.0979 B(  3-P ,  8-S ) :   1.2002 B(  3-P ,  9-C ) :   0.0942 
B(  4-S ,  5-O ) :   0.1946 B(  4-S ,  8-S ) :   0.1486 B(  4-S ,  9-C ) :   0.0565 
B(  5-O ,  6-C ) :   1.2630 B(  5-O ,  7-C ) :   0.1710 B(  5-O ,  8-S ) :   0.1509 
B(  5-O , 24-H ) :   0.0942 B(  5-O , 25-H ) :   0.0952 B(  6-C ,  7-C ) :   1.0928 
B(  6-C , 24-H ) :   0.8187 B(  6-C , 25-H ) :   0.8300 B(  6-C , 28-H ) :   0.0507 
B(  7-C , 26-H ) :   0.9172 B(  7-C , 27-H ) :   0.9147 B(  7-C , 28-H ) :   0.9111 
B(  8-S ,  9-C ) :   1.3117 B(  8-S , 10-S ) :   0.2127 B(  8-S , 29-H ) :   0.0565 
B(  8-S , 30-H ) :   0.0622 B(  9-C , 10-S ) :   1.2915 B(  9-C , 11-P ) :   0.0962 
B(  9-C , 12-S ) :   0.0508 B(  9-C , 29-H ) :   0.8306 B(  9-C , 30-H ) :   0.8279 
B( 10-S , 11-P ) :   1.2475 B( 10-S , 12-S ) :   0.1458 B( 10-S , 13-O ) :   0.1370 
B( 10-S , 16-O ) :   0.1662 B( 10-S , 29-H ) :   0.0602 B( 10-S , 30-H ) :   0.0566 
B( 11-P , 12-S ) :   1.9888 B( 11-P , 13-O ) :   1.5698 B( 11-P , 14-C ) :   0.0939 
B( 11-P , 16-O ) :   1.5708 B( 11-P , 17-C ) :   0.1022 B( 12-S , 13-O ) :   0.1842 
B( 12-S , 16-O ) :   0.1847 B( 12-S , 17-C ) :   0.0530 B( 13-O , 14-C ) :   1.3010 
B( 13-O , 15-C ) :   0.1567 B( 13-O , 16-O ) :   0.2214 B( 13-O , 31-H ) :   0.0977 
B( 13-O , 32-H ) :   0.1002 B( 14-C , 15-C ) :   1.0939 B( 14-C , 31-H ) :   0.8257 
B( 14-C , 32-H ) :   0.8234 B( 14-C , 33-H ) :   0.0510 B( 15-C , 33-H ) :   0.9114 
B( 15-C , 34-H ) :   0.9198 B( 15-C , 35-H ) :   0.9157 B( 16-O , 17-C ) :   1.2671 
B( 16-O , 18-C ) :   0.1673 B( 16-O , 36-H ) :   0.0953 B( 16-O , 37-H ) :   0.0954 
[...]

                    522       523       524       525       526       527   
                  18.85702  18.93657  19.09187  19.22005  21.95256  21.98686
                   0.00000   0.00000   0.00000   0.00000   0.00000   0.00000
                  --------  --------  --------  --------  --------  --------
 0 C  s               0.0       0.0       0.0       0.0       4.0      59.8
 1 C  s               0.0       0.0       0.0       0.0       0.5       0.2
 3 P  s               0.0       0.1       0.0       0.1       0.0       0.0
 3 P  py              0.0       0.3       0.0       0.0       0.0       0.0
 4 S  s               0.3      96.9       0.2       1.5       0.0       0.0
 4 S  py              0.0       0.1       0.0       0.0       0.0       0.0
 6 C  s               0.0       0.1       0.0       0.0       1.6       0.4
 7 C  s               0.0       0.0       0.0       0.0      12.5       1.1
 8 S  s               0.3       1.5      50.0      47.0       0.0       0.0
 9 C  s               0.0       0.0       0.0       1.0       3.3       1.3
10 S  s               0.0       0.3      48.9      49.6       0.0       0.0
11 P  s               0.2       0.0       0.0       0.0       0.0       0.0
11 P  pz              0.2       0.0       0.0       0.0       0.0       0.0
12 S  s              98.4       0.2       0.1       0.2       0.0       0.0
12 S  pz              0.1       0.0       0.0       0.0       0.0       0.0
14 C  s               0.0       0.0       0.0       0.0       0.5       0.2
15 C  s               0.0       0.0       0.0       0.0       1.7      32.2
17 C  s               0.0       0.0       0.1       0.0      16.5       0.6
18 C  s               0.0       0.0       0.0       0.0      59.0       3.9

                    528       529       530       531       532       533   
                  21.99134  22.01625  22.03658  22.06682  22.07583  22.08006
                   0.00000   0.00000   0.00000   0.00000   0.00000   0.00000
                  --------  --------  --------  --------  --------  --------
 0 C  s              34.7       0.0       0.4       0.0       0.5       0.0
 1 C  s               0.0       1.6       0.4       2.3      86.8       5.6
 6 C  s               0.1       3.8      16.4       0.3       3.9       1.1
 7 C  s               0.1      79.2       1.3       0.1       0.4       4.1
 8 S  s               0.0       0.0       0.1       0.0       0.0       0.0
 9 C  s               0.1       1.0      56.6      11.7       0.2      20.0
14 C  s               0.4       0.3       2.4      76.4       5.9      13.3
15 C  s              63.9       0.1       0.2       0.2       0.0       1.3
17 C  s               0.4       0.0      14.2       8.5       1.9      50.4
18 C  s               0.0      13.7       7.5       0.0       0.0       3.7

                    534       535       536       537       538   
                  22.12728  43.79297  43.81512  43.87185  43.89793
                   0.00000   0.00000   0.00000   0.00000   0.00000
                  --------  --------  --------  --------  --------
 0 C  s               0.3       0.0       0.0       0.0       0.0
 1 C  s               2.3       0.0       0.0       0.0       0.0
 2 O  s               0.0      94.1       4.8       0.1       0.8
 5 O  s               0.0       0.0       7.9      11.6      80.4
 6 C  s              72.0       0.0       0.0       0.0       0.0
 7 C  s               0.9       0.0       0.0       0.0       0.0
 9 C  s               5.1       0.0       0.0       0.0       0.0
13 O  s               0.0       4.7      84.8       7.0       3.5
16 O  s               0.0       1.1       2.4      81.2      15.2
17 C  s               7.0       0.0       0.0       0.0       0.0
18 C  s              11.9       0.0       0.0       0.0       0.0


                      *****************************
                      * MAYER POPULATION ANALYSIS *
                      *****************************

  NA   - Mulliken gross atomic population
  ZA   - Total nuclear charge
  QA   - Mulliken gross atomic charge
  VA   - Mayer's total valence
  BVA  - Mayer's bonded valence
  FA   - Mayer's free valence

  ATOM       NA         ZA         QA         VA         BVA        FA
  0 C      6.4648     6.0000    -0.4648     3.7620     3.7620    -0.0000
  1 C      6.1602     6.0000    -0.1602     3.6743     3.6743    -0.0000
  2 O      8.3153     8.0000    -0.3153     1.8107     1.8107     0.0000
  3 P     14.3299    15.0000     0.6701     5.1606     5.1606     0.0000
  4 S     16.4956    16.0000    -0.4956     2.0144     2.0144     0.0000
  5 O      8.2929     8.0000    -0.2929     1.8047     1.8047     0.0000
  6 C      6.1043     6.0000    -0.1043     3.5686     3.5686     0.0000
  7 C      6.5030     6.0000    -0.5030     3.8532     3.8532     0.0000
  8 S     16.1698    16.0000    -0.1698     2.1709     2.1709    -0.0000
  9 C      6.2504     6.0000    -0.2504     3.6898     3.6898     0.0000
 10 S     16.1165    16.0000    -0.1165     2.2106     2.2106     0.0000
 11 P     14.2808    15.0000     0.7192     5.1554     5.1554    -0.0000
 12 S     16.5384    16.0000    -0.5384     1.9866     1.9866     0.0000
 13 O      8.3389     8.0000    -0.3389     1.8206     1.8206     0.0000
 14 C      6.1468     6.0000    -0.1468     3.6563     3.6563     0.0000
 15 C      6.4931     6.0000    -0.4931     3.7510     3.7510    -0.0000
 16 O      8.2840     8.0000    -0.2840     1.8304     1.8304     0.0000
 17 C      6.1164     6.0000    -0.1164     3.5965     3.5965    -0.0000
 18 C      6.5079     6.0000    -0.5079     3.8355     3.8355    -0.0000
 19 H      0.8295     1.0000     0.1705     0.9554     0.9554    -0.0000
 20 H      0.8264     1.0000     0.1736     0.9570     0.9570    -0.0000
 21 H      0.8355     1.0000     0.1645     0.9598     0.9598     0.0000
 22 H      0.8223     1.0000     0.1777     0.9434     0.9434    -0.0000
 23 H      0.8280     1.0000     0.1720     0.9446     0.9446    -0.0000
 24 H      0.8258     1.0000     0.1742     0.9525     0.9525     0.0000
 25 H      0.8236     1.0000     0.1764     0.9418     0.9418     0.0000
 26 H      0.8330     1.0000     0.1670     0.9568     0.9568    -0.0000
 27 H      0.8316     1.0000     0.1684     0.9580     0.9580     0.0000
 28 H      0.8278     1.0000     0.1722     0.9568     0.9568    -0.0000
 29 H      0.7660     1.0000     0.2340     0.9424     0.9424    -0.0000
 30 H      0.7660     1.0000     0.2340     0.9423     0.9423    -0.0000
 31 H      0.8223     1.0000     0.1777     0.9496     0.9496     0.0000
 32 H      0.8248     1.0000     0.1752     0.9442     0.9442     0.0000
 33 H      0.8266     1.0000     0.1734     0.9578     0.9578    -0.0000
 34 H      0.8291     1.0000     0.1709     0.9546     0.9546    -0.0000
 35 H      0.8271     1.0000     0.1729     0.9558     0.9558     0.0000
 36 H      0.8258     1.0000     0.1742     0.9436     0.9436    -0.0000
 37 H      0.8306     1.0000     0.1694     0.9560     0.9560     0.0000
 38 H      0.8294     1.0000     0.1706     0.9544     0.9544    -0.0000
 39 H      0.8305     1.0000     0.1695     0.9580     0.9580    -0.0000
 40 H      0.8295     1.0000     0.1705     0.9548     0.9548     0.0000

  Mayer bond orders larger than 0.100000
B(  0-C ,  1-C ) :   0.9225 B(  0-C , 19-H ) :   0.9670 B(  0-C , 20-H ) :   0.9560 
B(  0-C , 21-H ) :   0.9575 B(  1-C ,  2-O ) :   0.7931 B(  1-C , 22-H ) :   0.9488 
B(  1-C , 23-H ) :   0.9571 B(  2-O ,  3-P ) :   1.0588 B(  3-P ,  4-S ) :   1.8277 
B(  3-P ,  5-O ) :   1.1632 B(  3-P ,  8-S ) :   0.9986 B(  5-O ,  6-C ) :   0.7264 
B(  6-C ,  7-C ) :   0.9333 B(  6-C , 24-H ) :   0.9426 B(  6-C , 25-H ) :   0.9378 
B(  7-C , 26-H ) :   0.9696 B(  7-C , 27-H ) :   0.9646 B(  7-C , 28-H ) :   0.9608 
B(  8-S ,  9-C ) :   0.9076 B(  9-C , 10-S ) :   0.8998 B(  9-C , 29-H ) :   0.9003 
B(  9-C , 30-H ) :   0.8975 B( 10-S , 11-P ) :   1.1129 B( 11-P , 12-S ) :   1.7097 
B( 11-P , 13-O ) :   1.0688 B( 11-P , 16-O ) :   1.1530 B( 13-O , 14-C ) :   0.8039 
B( 14-C , 15-C ) :   0.9096 B( 14-C , 31-H ) :   0.9648 B( 14-C , 32-H ) :   0.9487 
B( 15-C , 33-H ) :   0.9531 B( 15-C , 34-H ) :   0.9660 B( 15-C , 35-H ) :   0.9625 
B( 16-O , 17-C ) :   0.7527 B( 17-C , 18-C ) :   0.9449 B( 17-C , 36-H ) :   0.9393 
B( 17-C , 37-H ) :   0.9497 B( 18-C , 38-H ) :   0.9678 B( 18-C , 39-H ) :   0.9581 
B( 18-C , 40-H ) :   0.9688 

-------
TIMINGS
-------

Total SCF time: 0 days 0 hours 1 min 48 sec 

Total time                  ....     108.788 sec
Sum of individual times     ....     108.239 sec  ( 99.5%)

SCF preparation             ....       0.915 sec  (  0.8%)
Fock matrix formation       ....     104.100 sec  ( 95.7%)
  Startup                   ....       0.167 sec  (  0.2% of F)
  Split-RI-J                ....      23.784 sec  ( 22.8% of F)
  XC integration            ....      46.029 sec  ( 44.2% of F)
    Basis function eval.    ....       7.264 sec  ( 15.8% of XC)
    Density eval.           ....      17.107 sec  ( 37.2% of XC)
    XC-Functional eval.     ....       3.164 sec  (  6.9% of XC)
    XC-Potential eval.      ....      17.239 sec  ( 37.5% of XC)
  CPCM terms                ....      32.623 sec  ( 31.3% of F)
Diagonalization             ....       0.000 sec  (  0.0%)
Density matrix formation    ....       0.847 sec  (  0.8%)
Total Energy calculation    ....       0.071 sec  (  0.1%)
Population analysis         ....       0.453 sec  (  0.4%)
Orbital Transformation      ....       0.241 sec  (  0.2%)
Orbital Orthonormalization  ....       0.000 sec  (  0.0%)
DIIS solution               ....       1.387 sec  (  1.3%)
  MO trafo                  ....       0.000 sec  (  0.0 % of DIIS)
  Orb grad                  ....       0.000 sec  (  0.0 % of DIIS)
  Energy W gradient         ....       0.000 sec  (  0.0 % of DIIS)
  DIIS error                ....       0.105 sec  (  7.5 % of DIIS)
  DIIS work                 ....       1.139 sec  ( 82.1 % of DIIS)
  Form Q                    ....       0.000 sec  (  0.0 % of DIIS)
  Form QpQm                 ....       0.000 sec  (  0.0 % of DIIS)
  Exp/Cayley                ....       0.000 sec  (  0.0 % of DIIS)
  Orb update                ....       0.000 sec  (  0.0 % of DIIS)
  Wake-sleep                ....       0.024 sec  (  1.8 % of DIIS)
SOSCF solution              ....       0.225 sec  (  0.2%)
  MO trafo                  ....       0.178 sec  ( 79.1 % of SOSCF)
  Orb grad                  ....       0.004 sec  (  1.8 % of SOSCF)
  Rot update                ....       0.000 sec  (  0.1 % of SOSCF)
  Step                      ....       0.043 sec  ( 18.9 % of SOSCF)
Finished LeanSCF after 109.0 sec

Maximum memory used throughout the entire LEANSCF-calculation: 131.7 MB


-------------------------------------------------------------------------------
                          DFT DISPERSION CORRECTION                            
                                                                               
                                DFTD4 V3.4.0                                   
-------------------------------------------------------------------------------
The R2SCAN3C composite method is recognized
Using three-body term ABC
Active option DFTDOPT                   ...         5   

-------------------------   ----------------
Dispersion correction           -0.021814770
-------------------------   ----------------

------------------   -----------------
gCP correction             0.046607915
------------------   -----------------

-------------------------   --------------------
FINAL SINGLE POINT ENERGY     -2932.471806467444
-------------------------   --------------------


------------------------------------------------------------------------------
                              ORCA PROPERTY CALCULATIONS
------------------------------------------------------------------------------

GBWName                                 ... sp_solv.gbw
Number of atoms                         ...     41
Number of basis functions               ...    539
Max core memory                         ...   1024 MB

Electric properties:
Dipole moment                           ... YES
Quadrupole moment                       ...  NO
Static polarizability (Dipole/Dipole)   ...  NO
Static polarizability (Dipole/Quad.)    ...  NO
Static polarizability (Quad./Quad.)     ...  NO
Static polarizability (Velocity)        ...  NO

Atomic electric properties:
Dipole moment                           ...  NO
Quadrupole moment                       ...  NO
Static polarizability                   ...  NO

Choice of electric origin               ... Center of mass
Position of electric origin             ...    -0.000003    -0.000002    -0.000003

General magnetic properties:
Magnetizability                         ...  NO

EPR properties:
g-Tensor (aka g-matrix)                 ...  NO
Zero-Field splitting spin-orbit         ...  NO
Zero-field splitting spin-spin          ...  NO
Hyperfine couplings                     ...  NO (   0 nuclei)
Quadrupole couplings                    ...  NO (   0 nuclei)
Contact density                         ...  NO (   0 nuclei)

NMR properties:
Chemical shifts                         ...  NO (   0 nuclei)
Spin-rotation constants                 ...  NO (   0 nuclei)
Spin-spin couplings                     ...  NO (   0 nuclei,    0 pairs)

Choice of magnetic origin               ... GIAO
Position of magnetic origin             ...     0.000000     0.000000     0.000000

Properties with geometric perturbations:
SCF Hessian                             ...  NO
IR spectrum                             ...  NO
VCD spectrum                            ...  NO
X-ray spectroscopy properties:
SCF XES/XAS/RIXS spectra                ...  NO


-------------
DIPOLE MOMENT
-------------

Method             : SCF
Type of density    : Electron Density
Multiplicity       :   1
Irrep              :   0
Energy             : -2932.4965996123733021 Eh
Relativity type    : 
Basis              : AO
                                X                 Y                 Z
Electronic contribution:      3.260157033      10.268836423      -5.107619601
Nuclear contribution   :     -4.286244853     -12.614077524       5.638976685
                        -----------------------------------------
Total Dipole Moment    :     -1.026087820      -2.345241102       0.531357084
                        -----------------------------------------
Magnitude (a.u.)       :      2.614450686
Magnitude (Debye)      :      6.645405524



--------------------
Rotational spectrum 
--------------------
 
Rotational constants in cm-1:             0.012499             0.004972             0.004699 
Rotational constants in MHz :           374.716378           149.054644           140.885702 

Dipole components along the rotational axes: 
x,y,z [a.u.] :     0.634255    -2.521690     0.272307 
x,y,z [Debye]:     1.612148    -6.409627     0.692150 

 

Dipole moment calculation done in   0.1 sec 

Maximum memory used throughout the entire PROP-calculation: 51.9 MB

--------------------------------
SUGGESTED CITATIONS FOR THIS RUN
--------------------------------

Below you find a list of papers that are relevant to this ORCA run
We neither can nor want to force you to cite these papers, but we appreciate if you do
You receive ORCA, which is the product of decades of hard work by many enthusiastic individuals, for free
The only thing we kindly ask in return is that you cite our papers,
We deeply appreciate it, if you show your appreciation for ORCA by not just citing the generic ORCA reference.

Please note that relegating all ORCA citations to the supporting information does *not* help us.
SI sections are not indexed - citations you put there will not count into any citation statistics
But we need these citations in order to attract the funding resources that allow us to do what we are doing

Therefore, if you are a happy ORCA user, please consider citing a few of the papers listed below in the main body of your paper

In addition to the list printed below, the program has created the file sp_solv.bibtex that contains the list in bibtex format
You can import this file easily into all common literature databanks and citation aid programs


List of essential papers. We consider these as the minimum necessary citations

  1. Neese,F.
     Software update: the ORCA program system, version 5.0
     WIRES Comput. Molec. Sci., 2022 12(1)e1606
     doi.org/10.1002/wcms.1606
  2. Grimme,S.; Hansen,A.; Ehlert,S.; Mewes,J.
     r2SCAN-3c: A 'Swiss army knife' composite electronic-structure method
     J. Chem. Phys., 2021 154 064103
     doi.org/10.1063/5.0040021

List of papers to cite with high priority. The work reported in these papers was absolutely
necessary for this run to complete.
Our perspective: the developers of density functionals and basis sets usually get cited in chemistry papers
Good! But without the algorithms to do something with them, the functionals or basis sets would not do anything.
Hence, in our opinion, the algorithm design and method developments papers are equally worthy of getting cited

  1. Neese,F.
     An improvement of the resolution of the identity approximation for the formation of the Coulomb matrix
     J. Comp. Chem., 2003 24(14)1740-1747
     doi.org/10.1002/jcc.10318
  2. Garcia-Rates,M.; Neese,F.
     Effect of the Solute Cavity on the Solvation Energy and its Derivatives within the Framework of the Gaussian Charge Scheme
     J. Comput. Chem., 2020 41 922-939
     doi.org/10.1002/jcc.26139
  3. Neese,F.
     The SHARK Integral Generation and Digestion System
     J. Comp. Chem., 2022  1-16
     doi.org/10.1002/jcc.26942
  4. Lehtola,S.; Steigemann,C.; Oliveira,M.; Marques,M.
     Recent developments in Libxc - A comprehensive library of functionals for density functional theory
     Software X, 2018 7 
     doi.org/10.1016/j.softx.2017.11.002
  5. Caldeweyher,E.; Bannwarth,C.; Grimme,S.
     Extension of the D3 dispersion coefficient model
     J. Chem. Phys., 2017 147 034112-XXXX
     doi.org/10.1063/1.4993215
  6. Caldeweyher,E.; Ehlert,S.; Hansen,A.; Neugebauer,H.; Spicher,S.; Bannwarth,C.; Grimme,S.
     A generally applicable atomic-charge dependent London dispersion correction
     J. Chem. Phys., 2019 150 154122-XXXX
     doi.org/10.1063/1.5090222
  7. Caldeweyher,E.; Mewes,J.; Ehlert,S.; Grimme,S.
     Extension and evaluation of the D4 London-dispersion model for periodic systems
     Phys. Chem. Chem. Phys., 2020 22(16)8499-8512
     doi.org/10.1039/D0CP00502A

List of suggested additional citations. These are papers that are important in the 'surrounding' of 
of this run, or papers that preceded the highly important papers. If you like your results we are grateful for a citation.

  1. Neese,F.
     The ORCA program system
     WIRES Comput. Molec. Sci., 2012 2(1)73-78
     doi.org/10.1002/wcms.81
  2. Neese,F.
     Software update: the ORCA program system, version 4.0
     WIRES Comput. Molec. Sci., 2018 8(1)1-6
     doi.org/10.1002/wcms.1327
  3. Neese,F.; Wennmohs,F.; Becker,U.; Riplinger,C.
     The ORCA quantum chemistry program package
     J. Chem. Phys., 2020 152 Art. No. L224108
     doi.org/10.1063/5.0004608

List of optional additional citations

  1. Neese,F.
     Approximate second-order SCF convergence for spin unrestricted wavefunctions
     Chem. Phys. Lett., 2000 325(1-3)93-98
     doi.org/10.1016/s0009-2614(00)00662-x

Timings for individual modules:

Sum of individual times          ...      112.811 sec (=   1.880 min)
Startup calculation              ...        2.958 sec (=   0.049 min)   2.6 %
SCF iterations                   ...      109.648 sec (=   1.827 min)  97.2 %
Property calculations            ...        0.205 sec (=   0.003 min)   0.2 %
                             ****ORCA TERMINATED NORMALLY****
TOTAL RUN TIME: 0 days 0 hours 1 minutes 53 seconds 529 msec
