      -----------------------------------------------------------      
     |                   =====================                   |     
     |                           x T B                           |     
     |                   =====================                   |     
     |                         S. Grimme                         |     
     |          Mulliken Center for Theoretical Chemistry        |     
     |                    University of Bonn                     |     
      -----------------------------------------------------------      

   * xtb version 6.7.1 (edcfbbe) compiled by 'albert@albert-system' on 2024-07-22

   xtb is free software: you can redistribute it and/or modify it under
   the terms of the GNU Lesser General Public License as published by
   the Free Software Foundation, either version 3 of the License, or
   (at your option) any later version.
   
   xtb is distributed in the hope that it will be useful,
   but WITHOUT ANY WARRANTY; without even the implied warranty of
   MERCHANTABILITY or FITNESS FOR A PARTICULAR PURPOSE.  See the
   GNU Lesser General Public License for more details.
   
   Cite this work as:
   * C. Bannwarth, E. Caldeweyher, S. Ehlert, A. Hansen, P. Pracht,
     J. Seibert, S. Spicher, S. Grimme, WIREs Comput. Mol. Sci., 2020, 11,
     e01493. DOI: 10.1002/wcms.1493
   
   for GFN2-xTB:
   * C. Bannwarth, S. Ehlert and S. Grimme., J. Chem. Theory Comput., 2019,
     15, 1652-1671. DOI: 10.1021/acs.jctc.8b01176
   for GFN1-xTB:
   * S. Grimme, C. Bannwarth, P. Shushkov, J. Chem. Theory Comput., 2017,
     13, 1989-2009. DOI: 10.1021/acs.jctc.7b00118
   for GFN0-xTB:
   * P. Pracht, E. Caldeweyher, S. Ehlert, S. Grimme, ChemRxiv, 2019, preprint.
     DOI: 10.26434/chemrxiv.8326202.v1
   for GFN-FF:
   * S. Spicher and S. Grimme, Angew. Chem. Int. Ed., 2020, 59, 15665-15673.
     DOI: 10.1002/anie.202004239
   
   for ALPB and GBSA implicit solvation:
   * S. Ehlert, M. Stahn, S. Spicher, S. Grimme, J. Chem. Theory Comput.,
     2021, 17, 4250-4261. DOI: 10.1021/acs.jctc.1c00471
   
   for ddCOSMO and CPCM-X implicit solvation:
   * M. Stahn, S. Ehlert, S. Grimme, J. Phys. Chem. A,
     2023, XX, XXXX-XXXX. DOI: 10.1021/acs.jpca.3c04382
   
   for DFT-D4:
   * E. Caldeweyher, C. Bannwarth and S. Grimme, J. Chem. Phys., 2017,
     147, 034112. DOI: 10.1063/1.4993215
   * E. Caldeweyher, S. Ehlert, A. Hansen, H. Neugebauer, S. Spicher,
     C. Bannwarth and S. Grimme, J. Chem. Phys., 2019, 150, 154122.
     DOI: 10.1063/1.5090222
   * E. Caldeweyher, J.-M. Mewes, S. Ehlert and S. Grimme, Phys. Chem. Chem. Phys.
     2020, 22, 8499-8512. DOI: 10.1039/D0CP00502A
   
   for sTDA-xTB:
   * S. Grimme and C. Bannwarth, J. Chem. Phys., 2016, 145, 054103.
     DOI: 10.1063/1.4959605
   
   in the mass-spec context:
   * V. Asgeirsson, C. Bauer and S. Grimme, Chem. Sci., 2017, 8, 4879.
     DOI: 10.1039/c7sc00601b
   * J. Koopman and S. Grimme, ACS Omega 2019, 4, 12, 15120-15133.
     DOI: 10.1021/acsomega.9b02011
   
   for metadynamics refer to:
   * S. Grimme, J. Chem. Theory Comput., 2019, 155, 2847-2862
     DOI: 10.1021/acs.jctc.9b00143
   
   for SPH calculations refer to:
   * S. Spicher and S. Grimme, J. Chem. Theory Comput., 2021, 17, 1701-1714
     DOI: 10.1021/acs.jctc.0c01306
   
   for ONIOM refer to:
   * C. Plett, A. Katbashev, S. Ehlert, S. Grimme, M. Bursch,
     Phys. Chem. Chem. Phys., 2023, 25, 17860-17868. DOI: 10.1039/D3CP02178E
   
   for DIPRO refer to:
   * J. Kohn, N. Gildemeister, S. Grimme, D. Fazzi, A. Hansen,
     J. Chem. Phys., 2023, just accepted.
   
   for PTB refer to:
   * S. Grimme, M. Mueller, A. Hansen, J. Chem. Phys., 2023, 158, 124111.
     DOI: 10.1063/5.0137838
   
   with help from (in alphabetical order)
   P. Atkinson, C. Bannwarth, F. Bohle, G. Brandenburg, E. Caldeweyher
   M. Checinski, S. Dohm, S. Ehlert, S. Ehrlich, I. Gerasimov, C. Hölzer
   A. Katbashev, J. Kohn, J. Koopman, C. Lavigne, S. Lehtola, F. März, M. Müller,
   F. Musil, H. Neugebauer, J. Pisarek, C. Plett, P. Pracht, F. Pultar,
   J. Seibert, P. Shushkov, S. Spicher, M. Stahn, M. Steiner, T. Strunk,
   J. Stückrath, T. Rose, and J. Unsleber
   
 * started run on 2025/04/09 at 07:31:36.342     
   ID    Z sym.   atoms
    1    6 C      1, 2, 4, 6, 7, 9, 12, 13, 18, 20
    2    8 O      3, 5, 10, 11, 17, 19
    3    1 H      8, 21-38
    4   16 S      14, 16
    5   15 P      15

           -------------------------------------------------
          |                Calculation Setup                |
           -------------------------------------------------

          program call               : /software/projects/pawsey0265/mwang1/xtb/bin/xtb solv.coord --gfn2 --sp --chrg 0 --norestart --parallel 1 --alpb water reference -I xtb_sp-xcontrol-inp
          hostname                   : nid002043
          coordinate file            : solv.coord
          omp threads                :                     1


           -------------------------------------------------
          |                 G F N 2 - x T B                 |
           -------------------------------------------------

        Reference                      10.1021/acs.jctc.8b01176
      * Hamiltonian:
        H0-scaling (s, p, d)           1.850000    2.230000    2.230000
        zeta-weighting                 0.500000
      * Dispersion:
        s8                             2.700000
        a1                             0.520000
        a2                             5.000000
        s9                             5.000000
      * Repulsion:
        kExp                           1.500000    1.000000
        rExp                           1.000000
      * Coulomb:
        alpha                          2.000000
        third order                    shell-resolved
        anisotropic                    true
        a3                             3.000000
        a5                             4.000000
        cn-shift                       1.200000
        cn-exp                         4.000000
        max-rad                        5.000000

      * Solvation model:               ALPB
        Solvent                        water
        Parameter file                 internal GFN2-xTB/ALPB
        Dielectric constant                8.0200E+01
        Reference state                gsolv=reference [X=1]
        Free energy shift                  2.8945E-03 Eh       1.8164E+00 kcal/mol
        Temperature                        2.9815E+02 K
        Density                            1.0000E+00 kg/L
        Solvent mass                       1.8000E+01 g/mol
        Interaction kernel             P16
        Born radius scaling (c1)           1.4744E+00
        Born radii integrator          GBOBC
        Born offset                        0.0000E+00 a0       0.0000E+00 AA
        H-bond correction              true
        Ion screening                  false
        Surface tension                    1.0000E-05 Eh       1.5569E+01 dyn/cm
        Grid points                               974 per atom

          ...................................................
          :                      SETUP                      :
          :.................................................:
          :  # basis functions                 113          :
          :  # atomic orbitals                 110          :
          :  # shells                           60          :
          :  # electrons                       112          :
          :  max. iterations                   250          :
          :  Hamiltonian                  GFN2-xTB          :
          :  restarted?                      false          :
          :  GBSA solvation                   true          :
          :  PC potential                    false          :
          :  electronic temp.          300.0000000     K    :
          :  accuracy                    1.0000000          :
          :  -> integral cutoff          0.2500000E+02      :
          :  -> integral neglect         0.1000000E-07      :
          :  -> SCF convergence          0.1000000E-05 Eh   :
          :  -> wf. convergence          0.1000000E-03 e    :
          :  Broyden damping             0.4000000          :
          :  net charge                          0          :
          :  unpaired electrons                  0          :
          ...................................................

 iter      E             dE          RMSdq      gap      omega  full diag
   1    -65.0909410 -0.650909E+02  0.599E+00    4.24       0.0  T
   2    -65.2256136 -0.134673E+00  0.321E+00    3.08       1.0  T
   3    -65.2353805 -0.976696E-02  0.126E+00    3.05       1.0  T
   4    -65.2415793 -0.619876E-02  0.459E-01    2.83       1.0  T
   5    -65.2423891 -0.809783E-03  0.206E-01    2.98       1.0  T
   6    -65.2425105 -0.121449E-03  0.894E-02    2.96       1.0  T
   7    -65.2425297 -0.191634E-04  0.323E-02    2.98       1.0  T
   8    -65.2425317 -0.205785E-05  0.128E-02    2.98       1.3  T
   9    -65.2425323 -0.564203E-06  0.359E-03    2.99       4.5  T
  10    -65.2425323 -0.162176E-07  0.176E-03    2.99       9.2  T
  11    -65.2425323 -0.111930E-07  0.416E-04    2.99      39.0  T
  12    -65.2425323 -0.807646E-09  0.178E-04    2.99      91.0  T

   *** convergence criteria satisfied after 12 iterations ***

         #    Occupation            Energy/Eh            Energy/eV
      -------------------------------------------------------------
         1        2.0000           -0.7833249             -21.3154
       ...           ...                  ...                  ...
        50        2.0000           -0.4520129             -12.2999
        51        2.0000           -0.4483574             -12.2004
        52        2.0000           -0.4453792             -12.1194
        53        2.0000           -0.4368348             -11.8869
        54        2.0000           -0.4096339             -11.1467
        55        2.0000           -0.3896062             -10.6017
        56        2.0000           -0.3864299             -10.5153 (HOMO)
        57                         -0.2766817              -7.5289 (LUMO)
        58                         -0.2680901              -7.2951
        59                         -0.2463713              -6.7041
        60                         -0.2070953              -5.6354
        61                         -0.1671465              -4.5483
       ...                                ...                  ...
       110                          1.3208751              35.9428
      -------------------------------------------------------------
                  HL-Gap            0.1097482 Eh            2.9864 eV
             Fermi-level           -0.3315558 Eh           -9.0221 eV

 SCC (total)                   0 d,  0 h,  0 min,  0.081 sec
 SCC setup                      ...        0 min,  0.004 sec (  5.477%)
 Dispersion                     ...        0 min,  0.000 sec (  0.594%)
 classical contributions        ...        0 min,  0.000 sec (  0.121%)
 integral evaluation            ...        0 min,  0.033 sec ( 40.394%)
 iterations                     ...        0 min,  0.023 sec ( 28.858%)
 molecular gradient             ...        0 min,  0.020 sec ( 24.223%)
 printout                       ...        0 min,  0.000 sec (  0.305%)

         :::::::::::::::::::::::::::::::::::::::::::::::::::::
         ::                     SUMMARY                     ::
         :::::::::::::::::::::::::::::::::::::::::::::::::::::
         :: total energy             -64.671100891206 Eh    ::
         :: total w/o Gsasa/hb       -64.673084567426 Eh    ::
         :: gradient norm              0.000189845879 Eh/a0 ::
         :: HOMO-LUMO gap              2.986400929546 eV    ::
         ::.................................................::
         :: SCC energy               -65.242041556453 Eh    ::
         :: -> isotropic ES            0.170706199131 Eh    ::
         :: -> anisotropic ES         -0.018223151221 Eh    ::
         :: -> anisotropic XC          0.016853707139 Eh    ::
         :: -> dispersion             -0.041804909042 Eh    ::
         :: -> Gsolv                  -0.028966396448 Eh    ::
         ::    -> Gelec               -0.030950072668 Eh    ::
         ::    -> Gsasa                0.004168516789 Eh    ::
         ::    -> Ghb                 -0.005079389730 Eh    ::
         ::    -> Gshift               0.002894549160 Eh    ::
         :: repulsion energy           0.570940665246 Eh    ::
         :: add. restraining           0.000000000000 Eh    ::
         :: total charge              -0.000000000000 e     ::
         :::::::::::::::::::::::::::::::::::::::::::::::::::::

           -------------------------------------------------
          |                Property Printout                |
           -------------------------------------------------

    * Orbital Energies and Occupations

         #    Occupation            Energy/Eh            Energy/eV
      -------------------------------------------------------------
         1        2.0000           -0.7833249             -21.3154
       ...           ...                  ...                  ...
        44        2.0000           -0.4747576             -12.9188
        45        2.0000           -0.4740447             -12.8994
        46        2.0000           -0.4688179             -12.7572
        47        2.0000           -0.4592621             -12.4972
        48        2.0000           -0.4566844             -12.4270
        49        2.0000           -0.4549687             -12.3803
        50        2.0000           -0.4520129             -12.2999
        51        2.0000           -0.4483574             -12.2004
        52        2.0000           -0.4453792             -12.1194
        53        2.0000           -0.4368348             -11.8869
        54        2.0000           -0.4096339             -11.1467
        55        2.0000           -0.3896062             -10.6017
        56        2.0000           -0.3864299             -10.5153 (HOMO)
        57                         -0.2766817              -7.5289 (LUMO)
        58                         -0.2680901              -7.2951
        59                         -0.2463713              -6.7041
        60                         -0.2070953              -5.6354
        61                         -0.1671465              -4.5483
        62                         -0.1525494              -4.1511
        63                         -0.1200460              -3.2666
        64                         -0.0537417              -1.4624
        65                         -0.0384746              -1.0469
        66                         -0.0338221              -0.9203
        67                         -0.0179801              -0.4893
       ...                                ...                  ...
       110                          1.3208751              35.9428
      -------------------------------------------------------------
                  HL-Gap            0.1097482 Eh            2.9864 eV
             Fermi-level           -0.3315558 Eh           -9.0221 eV

     #   Z          covCN         q      C6AA      α(0)
     1   6 C        3.751    -0.131    23.072     6.850
     2   6 C        3.695     0.064    19.666     6.344
     3   8 O        1.703    -0.255    18.224     5.764
     4   6 C        2.713     0.372    20.692     7.446
     5   8 O        0.856    -0.461    22.935     6.421
     6   6 C        3.831    -0.092    22.222     6.707
     7   6 C        3.853     0.005    20.461     6.434
     8   1 H        0.924     0.132     1.519     1.927
     9   6 C        2.781     0.372    20.694     7.451
    10   8 O        0.973    -0.429    22.208     6.321
    11   8 O        1.703    -0.241    17.991     5.727
    12   6 C        3.697     0.076    19.469     6.311
    13   6 C        3.751    -0.132    23.093     6.853
    14  16 S        1.979    -0.126   146.321    20.359
    15  15 P        3.880     0.348   145.675    21.681
    16  16 S        0.925    -0.481   160.511    21.429
    17   8 O        1.656    -0.251    18.174     5.755
    18   6 C        3.748     0.024    20.234     6.416
    19   8 O        1.656    -0.284    18.730     5.842
    20   6 C        3.794     0.013    20.361     6.426
    21   1 H        0.925     0.077     2.014     2.219
    22   1 H        0.925     0.054     2.269     2.356
    23   1 H        0.925     0.070     2.090     2.261
    24   1 H        0.925     0.092     1.863     2.134
    25   1 H        0.924     0.066     2.128     2.281
    26   1 H        0.924     0.076     2.024     2.225
    27   1 H        0.924     0.120     1.615     1.988
    28   1 H        0.924     0.082     1.957     2.188
    29   1 H        0.924     0.065     2.144     2.290
    30   1 H        0.925     0.086     1.917     2.165
    31   1 H        0.925     0.066     2.135     2.285
    32   1 H        0.925     0.078     1.999     2.211
    33   1 H        0.925     0.072     2.068     2.249
    34   1 H        0.925     0.104     1.749     2.068
    35   1 H        0.925     0.089     1.889     2.149
    36   1 H        0.924     0.086     1.915     2.164
    37   1 H        0.925     0.084     1.938     2.177
    38   1 H        0.925     0.108     1.711     2.046

 Mol. C6AA /au·bohr⁶  :      18236.142839
 Mol. C8AA /au·bohr⁸  :     514498.520512
 Mol. α(0) /au        :        207.919964


Wiberg/Mayer (AO) data.
largest (>0.10) Wiberg bond orders for each atom

 ---------------------------------------------------------------------------
     #   Z sym  total        # sym  WBO       # sym  WBO       # sym  WBO
 ---------------------------------------------------------------------------
     1   6 C    3.987 --     2 C    1.014    22 H    0.986    23 H    0.984
                            21 H    0.979
     2   6 C    3.899 --     1 C    1.014    25 H    0.969    24 H    0.967
                             3 O    0.908
     3   8 O    2.335 --     4 C    1.189     2 C    0.908     5 O    0.179
     4   6 C    3.922 --     5 O    1.708     3 O    1.189     6 C    0.957
     5   8 O    1.999 --     4 C    1.708     3 O    0.179
     6   6 C    3.984 --     7 C    0.975    26 H    0.967     4 C    0.957
                            27 H    0.945
     7   6 C    3.970 --     6 C    0.975    14 S    0.970     9 C    0.958
                             8 H    0.929
     8   1 H    0.982 --     7 C    0.929
     9   6 C    3.915 --    10 O    1.645    11 O    1.231     7 C    0.958
    10   8 O    2.096 --     9 C    1.645    11 O    0.167    15 P    0.142
    11   8 O    2.364 --     9 C    1.231    12 C    0.889    10 O    0.167
    12   6 C    3.886 --    13 C    1.020    29 H    0.969    28 H    0.964
                            11 O    0.889
    13   6 C    3.981 --    12 C    1.020    31 H    0.983    32 H    0.982
                            30 H    0.976
    14  16 S    2.257 --     7 C    0.970    15 P    0.954    16 S    0.129
    15  15 P    5.310 --    16 S    1.502    17 O    1.306    19 O    1.294
                            14 S    0.954    10 O    0.142
    16  16 S    1.817 --    15 P    1.502    14 S    0.129
    17   8 O    2.410 --    15 P    1.306    18 C    0.912
    18   6 C    3.886 --    33 H    0.977    35 H    0.977    34 H    0.971
                            17 O    0.912
    19   8 O    2.356 --    15 P    1.294    20 C    0.901
    20   6 C    3.886 --    37 H    0.979    38 H    0.973    36 H    0.970
                            19 O    0.901
    21   1 H    0.994 --     1 C    0.979
    22   1 H    0.997 --     1 C    0.986
    23   1 H    0.995 --     1 C    0.984
    24   1 H    0.992 --     2 C    0.967
    25   1 H    0.996 --     2 C    0.969
    26   1 H    0.994 --     6 C    0.967
    27   1 H    0.986 --     6 C    0.945
    28   1 H    0.993 --    12 C    0.964
    29   1 H    0.996 --    12 C    0.969
    30   1 H    0.991 --    13 C    0.976
    31   1 H    0.996 --    13 C    0.983
    32   1 H    0.994 --    13 C    0.982
    33   1 H    0.995 --    18 C    0.977
    34   1 H    0.989 --    18 C    0.971
    35   1 H    0.992 --    18 C    0.977
    36   1 H    0.993 --    20 C    0.970
    37   1 H    0.993 --    20 C    0.979
    38   1 H    0.988 --    20 C    0.973
 ---------------------------------------------------------------------------

Topologies differ in total number of bonds
Writing topology from bond orders to xtbtopo.mol

molecular dipole:
                 x           y           z       tot (Debye)
 q only:        1.473       1.297      -3.008
   full:        1.160       1.500      -2.868       8.740
molecular quadrupole (traceless):
                xx          xy          yy          xz          yz          zz
 q only:       23.305       5.262       2.542       2.273      14.383     -25.847
  q+dip:       21.352       3.438       5.423      -2.121      10.617     -26.775
   full:       21.995       3.802       5.519      -1.279      11.539     -27.514


           -------------------------------------------------
          | TOTAL ENERGY              -64.671100891206 Eh   |
          | GRADIENT NORM               0.000189845879 Eh/α |
          | HOMO-LUMO GAP               2.986400929546 eV   |
           -------------------------------------------------

------------------------------------------------------------------------
 * finished run on 2025/04/09 at 07:31:36.481     
------------------------------------------------------------------------
 total:
 * wall-time:     0 d,  0 h,  0 min,  0.139 sec
 *  cpu-time:     0 d,  0 h,  0 min,  0.085 sec
 * ratio c/w:     0.613 speedup
 SCF:
 * wall-time:     0 d,  0 h,  0 min,  0.082 sec
 *  cpu-time:     0 d,  0 h,  0 min,  0.066 sec
 * ratio c/w:     0.807 speedup

