      -----------------------------------------------------------      
     |                   =====================                   |     
     |                           x T B                           |     
     |                   =====================                   |     
     |                         S. Grimme                         |     
     |          Mulliken Center for Theoretical Chemistry        |     
     |                    University of Bonn                     |     
      -----------------------------------------------------------      

   * xtb version 6.7.1 (edcfbbe) compiled by 'albert@albert-system' on 2024-07-22

   xtb is free software: you can redistribute it and/or modify it under
   the terms of the GNU Lesser General Public License as published by
   the Free Software Foundation, either version 3 of the License, or
   (at your option) any later version.
   
   xtb is distributed in the hope that it will be useful,
   but WITHOUT ANY WARRANTY; without even the implied warranty of
   MERCHANTABILITY or FITNESS FOR A PARTICULAR PURPOSE.  See the
   GNU Lesser General Public License for more details.
   
   Cite this work as:
   * C. Bannwarth, E. Caldeweyher, S. Ehlert, A. Hansen, P. Pracht,
     J. Seibert, S. Spicher, S. Grimme, WIREs Comput. Mol. Sci., 2020, 11,
     e01493. DOI: 10.1002/wcms.1493
   
   for GFN2-xTB:
   * C. Bannwarth, S. Ehlert and S. Grimme., J. Chem. Theory Comput., 2019,
     15, 1652-1671. DOI: 10.1021/acs.jctc.8b01176
   for GFN1-xTB:
   * S. Grimme, C. Bannwarth, P. Shushkov, J. Chem. Theory Comput., 2017,
     13, 1989-2009. DOI: 10.1021/acs.jctc.7b00118
   for GFN0-xTB:
   * P. Pracht, E. Caldeweyher, S. Ehlert, S. Grimme, ChemRxiv, 2019, preprint.
     DOI: 10.26434/chemrxiv.8326202.v1
   for GFN-FF:
   * S. Spicher and S. Grimme, Angew. Chem. Int. Ed., 2020, 59, 15665-15673.
     DOI: 10.1002/anie.202004239
   
   for ALPB and GBSA implicit solvation:
   * S. Ehlert, M. Stahn, S. Spicher, S. Grimme, J. Chem. Theory Comput.,
     2021, 17, 4250-4261. DOI: 10.1021/acs.jctc.1c00471
   
   for ddCOSMO and CPCM-X implicit solvation:
   * M. Stahn, S. Ehlert, S. Grimme, J. Phys. Chem. A,
     2023, XX, XXXX-XXXX. DOI: 10.1021/acs.jpca.3c04382
   
   for DFT-D4:
   * E. Caldeweyher, C. Bannwarth and S. Grimme, J. Chem. Phys., 2017,
     147, 034112. DOI: 10.1063/1.4993215
   * E. Caldeweyher, S. Ehlert, A. Hansen, H. Neugebauer, S. Spicher,
     C. Bannwarth and S. Grimme, J. Chem. Phys., 2019, 150, 154122.
     DOI: 10.1063/1.5090222
   * E. Caldeweyher, J.-M. Mewes, S. Ehlert and S. Grimme, Phys. Chem. Chem. Phys.
     2020, 22, 8499-8512. DOI: 10.1039/D0CP00502A
   
   for sTDA-xTB:
   * S. Grimme and C. Bannwarth, J. Chem. Phys., 2016, 145, 054103.
     DOI: 10.1063/1.4959605
   
   in the mass-spec context:
   * V. Asgeirsson, C. Bauer and S. Grimme, Chem. Sci., 2017, 8, 4879.
     DOI: 10.1039/c7sc00601b
   * J. Koopman and S. Grimme, ACS Omega 2019, 4, 12, 15120-15133.
     DOI: 10.1021/acsomega.9b02011
   
   for metadynamics refer to:
   * S. Grimme, J. Chem. Theory Comput., 2019, 155, 2847-2862
     DOI: 10.1021/acs.jctc.9b00143
   
   for SPH calculations refer to:
   * S. Spicher and S. Grimme, J. Chem. Theory Comput., 2021, 17, 1701-1714
     DOI: 10.1021/acs.jctc.0c01306
   
   for ONIOM refer to:
   * C. Plett, A. Katbashev, S. Ehlert, S. Grimme, M. Bursch,
     Phys. Chem. Chem. Phys., 2023, 25, 17860-17868. DOI: 10.1039/D3CP02178E
   
   for DIPRO refer to:
   * J. Kohn, N. Gildemeister, S. Grimme, D. Fazzi, A. Hansen,
     J. Chem. Phys., 2023, just accepted.
   
   for PTB refer to:
   * S. Grimme, M. Mueller, A. Hansen, J. Chem. Phys., 2023, 158, 124111.
     DOI: 10.1063/5.0137838
   
   with help from (in alphabetical order)
   P. Atkinson, C. Bannwarth, F. Bohle, G. Brandenburg, E. Caldeweyher
   M. Checinski, S. Dohm, S. Ehlert, S. Ehrlich, I. Gerasimov, C. Hölzer
   A. Katbashev, J. Kohn, J. Koopman, C. Lavigne, S. Lehtola, F. März, M. Müller,
   F. Musil, H. Neugebauer, J. Pisarek, C. Plett, P. Pracht, F. Pultar,
   J. Seibert, P. Shushkov, S. Spicher, M. Stahn, M. Steiner, T. Strunk,
   J. Stückrath, T. Rose, and J. Unsleber
   
 * started run on 2025/04/09 at 05:21:03.156     
   ID    Z sym.   atoms
    1    6 C      1, 2, 7, 8, 10, 15, 16, 18, 19
    2    8 O      3, 6, 14, 17
    3   15 P      4, 12
    4   16 S      5, 9, 11, 13
    5    1 H      20-41

           -------------------------------------------------
          |                Calculation Setup                |
           -------------------------------------------------

          program call               : /srv/scratch/z5358697/.xtb/bin/xtb solv.coord --gfn2 --sp --chrg 0 --norestart --parallel 1 --alpb water reference -I xtb_sp-xcontrol-inp
          hostname                   : k163
          coordinate file            : solv.coord
          omp threads                :                     1


           -------------------------------------------------
          |                 G F N 2 - x T B                 |
           -------------------------------------------------

        Reference                      10.1021/acs.jctc.8b01176
      * Hamiltonian:
        H0-scaling (s, p, d)           1.850000    2.230000    2.230000
        zeta-weighting                 0.500000
      * Dispersion:
        s8                             2.700000
        a1                             0.520000
        a2                             5.000000
        s9                             5.000000
      * Repulsion:
        kExp                           1.500000    1.000000
        rExp                           1.000000
      * Coulomb:
        alpha                          2.000000
        third order                    shell-resolved
        anisotropic                    true
        a3                             3.000000
        a5                             4.000000
        cn-shift                       1.200000
        cn-exp                         4.000000
        max-rad                        5.000000

      * Solvation model:               ALPB
        Solvent                        water
        Parameter file                 internal GFN2-xTB/ALPB
        Dielectric constant                8.0200E+01
        Reference state                gsolv=reference [X=1]
        Free energy shift                  2.8945E-03 Eh       1.8164E+00 kcal/mol
        Temperature                        2.9815E+02 K
        Density                            1.0000E+00 kg/L
        Solvent mass                       1.8000E+01 g/mol
        Interaction kernel             P16
        Born radius scaling (c1)           1.4744E+00
        Born radii integrator          GBOBC
        Born offset                        0.0000E+00 a0       0.0000E+00 AA
        H-bond correction              true
        Ion screening                  false
        Surface tension                    1.0000E-05 Eh       1.5569E+01 dyn/cm
        Grid points                               974 per atom

          ...................................................
          :                      SETUP                      :
          :.................................................:
          :  # basis functions                 134          :
          :  # atomic orbitals                 128          :
          :  # shells                           66          :
          :  # electrons                       116          :
          :  max. iterations                   250          :
          :  Hamiltonian                  GFN2-xTB          :
          :  restarted?                      false          :
          :  GBSA solvation                   true          :
          :  PC potential                    false          :
          :  electronic temp.          300.0000000     K    :
          :  accuracy                    1.0000000          :
          :  -> integral cutoff          0.2500000E+02      :
          :  -> integral neglect         0.1000000E-07      :
          :  -> SCF convergence          0.1000000E-05 Eh   :
          :  -> wf. convergence          0.1000000E-03 e    :
          :  Broyden damping             0.4000000          :
          :  net charge                          0          :
          :  unpaired electrons                  0          :
          ...................................................

 iter      E             dE          RMSdq      gap      omega  full diag
   1    -65.4421740 -0.654422E+02  0.638E+00    4.19       0.0  T
   2    -65.5649779 -0.122804E+00  0.364E+00    3.67       1.0  T
   3    -65.5849614 -0.199835E-01  0.115E+00    3.19       1.0  T
   4    -65.5870682 -0.210682E-02  0.538E-01    3.12       1.0  T
   5    -65.5877081 -0.639845E-03  0.265E-01    3.17       1.0  T
   6    -65.5878734 -0.165343E-03  0.129E-01    3.17       1.0  T
   7    -65.5879374 -0.639926E-04  0.442E-02    3.18       1.0  T
   8    -65.5879414 -0.403189E-05  0.202E-02    3.18       1.0  T
   9    -65.5879427 -0.123525E-05  0.565E-03    3.18       2.8  T
  10    -65.5879427 -0.426517E-07  0.280E-03    3.18       5.6  T
  11    -65.5879427 -0.336802E-07  0.942E-04    3.18      16.6  T
  12    -65.5879428 -0.219350E-08  0.538E-04    3.18      29.0  T

   *** convergence criteria satisfied after 12 iterations ***

         #    Occupation            Energy/Eh            Energy/eV
      -------------------------------------------------------------
         1        2.0000           -0.7641776             -20.7943
       ...           ...                  ...                  ...
        52        2.0000           -0.4432828             -12.0623
        53        2.0000           -0.4190343             -11.4025
        54        2.0000           -0.4126684             -11.2293
        55        2.0000           -0.3972227             -10.8090
        56        2.0000           -0.3954948             -10.7620
        57        2.0000           -0.3934043             -10.7051
        58        2.0000           -0.3916327             -10.6569 (HOMO)
        59                         -0.2747531              -7.4764 (LUMO)
        60                         -0.2552310              -6.9452
        61                         -0.2182437              -5.9387
        62                         -0.1908286              -5.1927
        63                         -0.1868684              -5.0849
       ...                                ...                  ...
       128                          1.2726523              34.6306
      -------------------------------------------------------------
                  HL-Gap            0.1168796 Eh            3.1805 eV
             Fermi-level           -0.3331929 Eh           -9.0666 eV

 SCC (total)                   0 d,  0 h,  0 min,  0.059 sec
 SCC setup                      ...        0 min,  0.003 sec (  4.457%)
 Dispersion                     ...        0 min,  0.000 sec (  0.497%)
 classical contributions        ...        0 min,  0.000 sec (  0.097%)
 integral evaluation            ...        0 min,  0.009 sec ( 14.773%)
 iterations                     ...        0 min,  0.025 sec ( 42.052%)
 molecular gradient             ...        0 min,  0.022 sec ( 37.745%)
 printout                       ...        0 min,  0.000 sec (  0.353%)

         :::::::::::::::::::::::::::::::::::::::::::::::::::::
         ::                     SUMMARY                     ::
         :::::::::::::::::::::::::::::::::::::::::::::::::::::
         :: total energy             -65.025141931591 Eh    ::
         :: total w/o Gsasa/hb       -65.029591496993 Eh    ::
         :: gradient norm              0.000064788476 Eh/a0 ::
         :: HOMO-LUMO gap              3.180456384556 eV    ::
         ::.................................................::
         :: SCC energy               -65.586363098661 Eh    ::
         :: -> isotropic ES            0.125360256219 Eh    ::
         :: -> anisotropic ES         -0.017528536813 Eh    ::
         :: -> anisotropic XC          0.029666194036 Eh    ::
         :: -> dispersion             -0.053266067628 Eh    ::
         :: -> Gsolv                  -0.021199464142 Eh    ::
         ::    -> Gelec               -0.025649029543 Eh    ::
         ::    -> Gsasa                0.005311839981 Eh    ::
         ::    -> Ghb                 -0.003756823740 Eh    ::
         ::    -> Gshift               0.002894549160 Eh    ::
         :: repulsion energy           0.561221167070 Eh    ::
         :: add. restraining           0.000000000000 Eh    ::
         :: total charge               0.000000000000 e     ::
         :::::::::::::::::::::::::::::::::::::::::::::::::::::

           -------------------------------------------------
          |                Property Printout                |
           -------------------------------------------------

    * Orbital Energies and Occupations

         #    Occupation            Energy/Eh            Energy/eV
      -------------------------------------------------------------
         1        2.0000           -0.7641776             -20.7943
       ...           ...                  ...                  ...
        46        2.0000           -0.4618579             -12.5678
        47        2.0000           -0.4595819             -12.5059
        48        2.0000           -0.4543091             -12.3624
        49        2.0000           -0.4511166             -12.2755
        50        2.0000           -0.4499432             -12.2436
        51        2.0000           -0.4485871             -12.2067
        52        2.0000           -0.4432828             -12.0623
        53        2.0000           -0.4190343             -11.4025
        54        2.0000           -0.4126684             -11.2293
        55        2.0000           -0.3972227             -10.8090
        56        2.0000           -0.3954948             -10.7620
        57        2.0000           -0.3934043             -10.7051
        58        2.0000           -0.3916327             -10.6569 (HOMO)
        59                         -0.2747531              -7.4764 (LUMO)
        60                         -0.2552310              -6.9452
        61                         -0.2182437              -5.9387
        62                         -0.1908286              -5.1927
        63                         -0.1868684              -5.0849
        64                         -0.1819374              -4.9508
        65                         -0.1602609              -4.3609
        66                         -0.1456194              -3.9625
        67                         -0.1371254              -3.7314
        68                         -0.1296961              -3.5292
        69                         -0.0512993              -1.3959
       ...                                ...                  ...
       128                          1.2726523              34.6306
      -------------------------------------------------------------
                  HL-Gap            0.1168796 Eh            3.1805 eV
             Fermi-level           -0.3331929 Eh           -9.0666 eV

     #   Z          covCN         q      C6AA      α(0)
     1   6 C        3.752    -0.133    23.123     6.858
     2   6 C        3.817     0.069    19.423     6.272
     3   8 O        1.653    -0.260    18.323     5.778
     4  15 P        3.795     0.379   144.473    21.591
     5  16 S        0.926    -0.466   159.762    21.379
     6   8 O        1.655    -0.249    18.141     5.750
     7   6 C        3.848     0.078    19.247     6.240
     8   6 C        3.751    -0.127    23.000     6.839
     9  16 S        2.014    -0.147   147.255    20.424
    10   6 C        3.826     0.043    19.838     6.338
    11  16 S        2.012    -0.147   147.260    20.424
    12  15 P        3.825     0.391   144.029    21.558
    13  16 S        0.926    -0.463   159.616    21.369
    14   8 O        1.654    -0.266    18.426     5.795
    15   6 C        3.822     0.072    19.368     6.263
    16   6 C        3.751    -0.133    23.111     6.856
    17   8 O        1.655    -0.262    18.366     5.785
    18   6 C        3.854     0.077    19.270     6.243
    19   6 C        3.751    -0.125    22.969     6.835
    20   1 H        0.925     0.066     2.128     2.281
    21   1 H        0.925     0.090     1.877     2.142
    22   1 H        0.925     0.074     2.040     2.233
    23   1 H        0.924     0.074     2.041     2.234
    24   1 H        0.924     0.097     1.810     2.104
    25   1 H        0.924     0.084     1.943     2.180
    26   1 H        0.924     0.052     2.289     2.366
    27   1 H        0.925     0.059     2.213     2.326
    28   1 H        0.925     0.077     2.015     2.220
    29   1 H        0.925     0.080     1.983     2.202
    30   1 H        0.925     0.085     1.931     2.173
    31   1 H        0.925     0.090     1.882     2.145
    32   1 H        0.924     0.069     2.091     2.262
    33   1 H        0.924     0.092     1.855     2.130
    34   1 H        0.925     0.085     1.929     2.172
    35   1 H        0.925     0.070     2.080     2.255
    36   1 H        0.925     0.070     2.082     2.257
    37   1 H        0.924     0.060     2.197     2.318
    38   1 H        0.924     0.091     1.866     2.136
    39   1 H        0.925     0.050     2.316     2.380
    40   1 H        0.925     0.081     1.972     2.196
    41   1 H        0.925     0.073     2.052     2.240

 Mol. C6AA /au·bohr⁶  :      26393.385779
 Mol. C8AA /au·bohr⁸  :     862501.566575
 Mol. α(0) /au        :        257.552515


Wiberg/Mayer (AO) data.
largest (>0.10) Wiberg bond orders for each atom

 ---------------------------------------------------------------------------
     #   Z sym  total        # sym  WBO       # sym  WBO       # sym  WBO
 ---------------------------------------------------------------------------
     1   6 C    3.983 --     2 C    1.025    22 H    0.981    21 H    0.973
                            20 H    0.972
     2   6 C    3.878 --     1 C    1.025    23 H    0.968    24 H    0.964
                             3 O    0.860
     3   8 O    2.405 --     4 P    1.366     2 C    0.860
     4  15 P    5.293 --     5 S    1.534     3 O    1.366     6 O    1.318
                             9 S    0.943
     5  16 S    1.865 --     4 P    1.534     9 S    0.138
     6   8 O    2.417 --     4 P    1.318     7 C    0.888
     7   6 C    3.891 --     8 C    1.018    25 H    0.967    26 H    0.966
                             6 O    0.888
     8   6 C    3.984 --     7 C    1.018    28 H    0.982    29 H    0.977
                            27 H    0.977
     9  16 S    2.279 --    10 C    0.994     4 P    0.943     5 S    0.138
    10   6 C    3.954 --     9 S    0.994    11 S    0.982    30 H    0.954
                            31 H    0.947
    11  16 S    2.290 --    10 C    0.982    12 P    0.980    13 S    0.122
    12  15 P    5.289 --    13 S    1.546    14 O    1.335    17 O    1.285
                            11 S    0.980
    13  16 S    1.858 --    12 P    1.546    11 S    0.122
    14   8 O    2.395 --    12 P    1.335    15 C    0.866
    15   6 C    3.884 --    16 C    1.022    33 H    0.965    32 H    0.962
                            14 O    0.866
    16   6 C    3.984 --    15 C    1.022    35 H    0.982    36 H    0.977
                            34 H    0.975
    17   8 O    2.386 --    12 P    1.285    18 C    0.883
    18   6 C    3.893 --    19 C    1.022    37 H    0.966    38 H    0.964
                            17 O    0.883
    19   6 C    3.988 --    18 C    1.022    41 H    0.982    39 H    0.977
                            40 H    0.977
    20   1 H    0.996 --     1 C    0.972
    21   1 H    0.990 --     1 C    0.973
    22   1 H    0.994 --     1 C    0.981
    23   1 H    0.994 --     2 C    0.968
    24   1 H    0.990 --     2 C    0.964
    25   1 H    0.993 --     7 C    0.967
    26   1 H    0.997 --     7 C    0.966
    27   1 H    0.997 --     8 C    0.977
    28   1 H    0.994 --     8 C    0.982
    29   1 H    0.992 --     8 C    0.977
    30   1 H    0.993 --    10 C    0.954
    31   1 H    0.992 --    10 C    0.947
    32   1 H    0.995 --    15 C    0.962
    33   1 H    0.991 --    15 C    0.965
    34   1 H    0.991 --    16 C    0.975
    35   1 H    0.995 --    16 C    0.982
    36   1 H    0.995 --    16 C    0.977
    37   1 H    0.996 --    18 C    0.966
    38   1 H    0.992 --    18 C    0.964
    39   1 H    0.997 --    19 C    0.977
    40   1 H    0.992 --    19 C    0.977
    41   1 H    0.995 --    19 C    0.982
 ---------------------------------------------------------------------------

Topologies differ in total number of bonds
Writing topology from bond orders to xtbtopo.mol

molecular dipole:
                 x           y           z       tot (Debye)
 q only:       -0.674      -3.152       3.294
   full:       -0.468      -2.932       3.097      10.904
molecular quadrupole (traceless):
                xx          xy          yy          xz          yz          zz
 q only:      -16.602     -20.440       9.217     -23.164       7.459       7.385
  q+dip:       -9.692     -22.451       3.571     -21.824       4.105       6.121
   full:      -10.039     -21.904       4.554     -22.757       5.782       5.485


           -------------------------------------------------
          | TOTAL ENERGY              -65.025141931591 Eh   |
          | GRADIENT NORM               0.000064788476 Eh/α |
          | HOMO-LUMO GAP               3.180456384556 eV   |
           -------------------------------------------------

------------------------------------------------------------------------
 * finished run on 2025/04/09 at 05:21:03.253     
------------------------------------------------------------------------
 total:
 * wall-time:     0 d,  0 h,  0 min,  0.096 sec
 *  cpu-time:     0 d,  0 h,  0 min,  0.072 sec
 * ratio c/w:     0.747 speedup
 SCF:
 * wall-time:     0 d,  0 h,  0 min,  0.059 sec
 *  cpu-time:     0 d,  0 h,  0 min,  0.058 sec
 * ratio c/w:     0.990 speedup

