 Entering Gaussian System
 *********************************************
 Gaussian 98:
 frequency output generated by the xtb code
 *********************************************
                         Standard orientation:
 --------------------------------------------------------------------
  Center     Atomic     Atomic              Coordinates (Angstroms)
  Number     Number      Type              X           Y           Z
 --------------------------------------------------------------------
    1          6             0        2.992060   -2.630992    1.447424
    2          6             0        1.721209   -2.199421    0.743650
    3          8             0        1.588097   -0.768549    0.757541
    4         15             0        2.311207    0.190867   -0.296775
    5         16             0        3.042865   -0.665195   -1.891438
    6          8             0        3.433820    0.952934    0.518292
    7          6             0        3.253364    1.488368    1.853961
    8          6             0        2.970891    2.976492    1.812540
    9         16             0        0.786996    1.633791   -0.606238
   10          6             0       -0.037303    0.789841   -1.977483
   11         16             0       -0.725459   -0.828938   -1.531101
   12         15             0       -2.180899   -0.136931   -0.169947
   13         16             0       -3.038438    1.581923   -0.577896
   14          8             0       -1.408695   -0.240889    1.202007
   15          6             0       -1.815505    0.467936    2.397145
   16          6             0       -0.578227    1.023189    3.072202
   17          8             0       -3.187283   -1.362608   -0.049207
   18          6             0       -4.211821   -1.618857   -1.031446
   19          6             0       -5.268392   -2.495161   -0.388612
   20          1             0        3.012320   -2.248571    2.464576
   21          1             0        3.039194   -3.715104    1.470346
   22          1             0        3.858187   -2.249675    0.907618
   23          1             0        0.825841   -2.558618    1.254102
   24          1             0        1.715090   -2.545980   -0.294852
   25          1             0        2.445701    0.944117    2.347326
   26          1             0        4.200743    1.282151    2.355043
   27          1             0        3.769102    3.494201    1.288126
   28          1             0        2.032240    3.176247    1.299146
   29          1             0        2.908278    3.351336    2.829541
   30          1             0        0.680008    0.603239   -2.776394
   31          1             0       -0.839723    1.449762   -2.306523
   32          1             0       -2.507968    1.268564    2.116276
   33          1             0       -2.332543   -0.253316    3.033499
   34          1             0       -0.864294    1.509109    3.999324
   35          1             0        0.117092    0.216254    3.286684
   36          1             0       -0.093798    1.747524    2.421912
   37          1             0       -4.629777   -0.660732   -1.358221
   38          1             0       -3.745868   -2.117169   -1.885596
   39          1             0       -4.817763   -3.416254   -0.030531
   40          1             0       -5.726757   -1.977411    0.449169
   41          1             0       -6.030510   -2.730284   -1.124412
 --------------------------------------------------------------------
     1 basis functions        1 primitive gaussians
     1 alpha electrons        1 beta electrons
 
 Harmonic frequencies (cm**-1), IR intensities (km*mol⁻¹),
 Raman scattering activities (A**4/amu), Raman depolarization ratios,
 reduced masses (AMU), force constants (mDyne/A) and normal coordinates:
                      1                      2                      3
                        a                      a                      a 
 Frequencies --    45.4550                46.3161                46.9128
 Red. masses --    21.6767                20.1824                14.9944
 Frc consts  --     0.0000                 0.0000                 0.0000
 IR Inten    --     3.4456                 2.2061                 3.3525
 Raman Activ --     0.0000                 0.0000                 0.0000
 Depolar     --     0.0000                 0.0000                 0.0000
 Atom AN      X      Y      Z        X      Y      Z        X      Y      Z
   1   6     0.07  -0.08  -0.10     0.15  -0.10  -0.15    -0.20  -0.07  -0.07
   2   6     0.10  -0.03  -0.13     0.14  -0.12  -0.15    -0.17   0.01  -0.08
   3   8     0.14  -0.03  -0.07     0.09  -0.14  -0.10    -0.12   0.02  -0.05
   4  15     0.11   0.05  -0.06     0.13  -0.04   0.01    -0.08   0.03   0.01
   5  16     0.34   0.18  -0.03     0.20   0.22  -0.10     0.13   0.04   0.09
   6   8    -0.04   0.16   0.01     0.07  -0.08   0.09    -0.13   0.03   0.10
   7   6    -0.12   0.10   0.01     0.01  -0.11   0.08    -0.17  -0.04   0.10
   8   6    -0.20   0.08   0.02     0.06  -0.10   0.11    -0.23  -0.05   0.15
   9  16    -0.08  -0.17  -0.16     0.07  -0.08   0.19    -0.02   0.05  -0.21
  10   6    -0.01  -0.25  -0.03     0.02  -0.00   0.10     0.03  -0.00  -0.13
  11  16    -0.08  -0.31   0.21    -0.04   0.01   0.09     0.07  -0.01  -0.20
  12  15    -0.04  -0.02   0.11    -0.15   0.07  -0.06     0.19   0.02  -0.09
  13  16     0.30   0.13   0.03    -0.30  -0.07  -0.36     0.11  -0.03  -0.12
  14   8    -0.09  -0.09   0.11    -0.08   0.24  -0.04     0.26   0.10  -0.13
  15   6    -0.06  -0.05   0.08    -0.11   0.23  -0.06     0.08  -0.10  -0.05
  16   6    -0.05  -0.03   0.05    -0.11   0.16  -0.00    -0.00  -0.13   0.12
  17   8    -0.19   0.12   0.07    -0.04   0.01   0.08     0.15   0.01   0.09
  18   6    -0.12   0.16  -0.01    -0.06  -0.09   0.12    -0.02   0.01   0.23
  19   6    -0.15   0.13  -0.10    -0.02  -0.06   0.22     0.03   0.08   0.41
  20   1     0.01  -0.03  -0.03     0.03  -0.04  -0.04    -0.06  -0.03  -0.02
  21   1     0.01  -0.02  -0.04     0.05  -0.03  -0.05    -0.07  -0.02  -0.03
  22   1     0.03  -0.02  -0.02     0.04  -0.01  -0.04    -0.05  -0.03  -0.01
  23   1     0.02  -0.01  -0.05     0.04  -0.05  -0.05    -0.06   0.01  -0.03
  24   1     0.04   0.01  -0.04     0.05  -0.02  -0.05    -0.05   0.01  -0.03
  25   1    -0.03   0.01  -0.01    -0.01  -0.03   0.01    -0.05  -0.03   0.02
  26   1    -0.04   0.04   0.01    -0.01  -0.04   0.04    -0.05  -0.00   0.03
  27   1    -0.06   0.04   0.02     0.03  -0.03   0.04    -0.07   0.00   0.05
  28   1    -0.06   0.01  -0.00     0.02  -0.02   0.02    -0.06  -0.02   0.04
  29   1    -0.08   0.02   0.01     0.01  -0.03   0.03    -0.08  -0.02   0.05
  30   1     0.00  -0.10   0.00     0.01  -0.00   0.03     0.02  -0.00  -0.03
  31   1     0.00  -0.08  -0.04     0.01   0.01   0.03     0.01  -0.01  -0.05
  32   1    -0.02  -0.01   0.02    -0.02   0.07  -0.03     0.02  -0.03  -0.00
  33   1    -0.02  -0.01   0.03    -0.05   0.07  -0.02     0.02  -0.06  -0.05
  34   1    -0.01  -0.00   0.01    -0.04   0.05  -0.00    -0.03  -0.06   0.04
  35   1    -0.01  -0.01   0.02    -0.05   0.03   0.01     0.00  -0.04   0.03
  36   1    -0.02  -0.01   0.01    -0.01   0.04   0.01     0.01  -0.02   0.07
  37   1    -0.03   0.05   0.00    -0.03  -0.03   0.02    -0.01   0.00   0.07
  38   1    -0.02   0.06  -0.00    -0.02  -0.04   0.04    -0.04  -0.01   0.05
  39   1    -0.05   0.03  -0.04    -0.00  -0.01   0.07     0.01   0.02   0.12
  40   1    -0.05   0.03  -0.03    -0.00  -0.00   0.06     0.04   0.04   0.13
  41   1    -0.04   0.05  -0.04    -0.01  -0.03   0.07    -0.02   0.02   0.15
                      4                      5                      6
                        a                      a                      a 
 Frequencies --    50.3270                51.1568                63.6269
 Red. masses --    14.6195                13.4305                19.4769
 Frc consts  --     0.0000                 0.0000                 0.0000
 IR Inten    --     1.2462                 1.0684                 1.3413
 Raman Activ --     0.0000                 0.0000                 0.0000
 Depolar     --     0.0000                 0.0000                 0.0000
 Atom AN      X      Y      Z        X      Y      Z        X      Y      Z
   1   6    -0.19  -0.28  -0.10    -0.38  -0.28  -0.17     0.10  -0.25  -0.25
   2   6    -0.12   0.05  -0.02    -0.28   0.03  -0.16     0.01  -0.07   0.02
   3   8     0.21   0.09   0.18     0.02   0.06  -0.03     0.15  -0.07   0.25
   4  15     0.08   0.11   0.09     0.04   0.04  -0.07    -0.12  -0.03   0.18
   5  16    -0.04   0.08   0.05     0.04  -0.02  -0.04    -0.27  -0.03   0.11
   6   8     0.08   0.15  -0.04     0.01   0.02  -0.03    -0.07   0.11  -0.01
   7   6     0.14   0.15  -0.04    -0.01  -0.01  -0.01     0.02   0.14  -0.02
   8   6     0.16   0.15  -0.05    -0.02  -0.01   0.01    -0.05   0.12  -0.06
   9  16    -0.02   0.05   0.14     0.12   0.12  -0.16    -0.27  -0.16   0.22
  10   6     0.02   0.03   0.07    -0.01  -0.01   0.01     0.01  -0.04   0.01
  11  16     0.17  -0.04   0.03     0.09   0.00   0.24    -0.08  -0.07  -0.11
  12  15    -0.01  -0.18  -0.07     0.03   0.02   0.16     0.04   0.12  -0.07
  13  16    -0.08  -0.23  -0.07    -0.03  -0.03   0.05     0.17   0.16  -0.18
  14   8    -0.05  -0.15  -0.02    -0.04   0.08   0.15     0.10   0.11  -0.09
  15   6     0.00  -0.05  -0.05    -0.05   0.15   0.08     0.11   0.07  -0.05
  16   6     0.03  -0.02  -0.12    -0.06   0.19   0.05     0.14  -0.04  -0.01
  17   8     0.02  -0.16  -0.14     0.06  -0.02   0.10    -0.02   0.14   0.06
  18   6    -0.12   0.01  -0.01     0.19  -0.10  -0.04     0.04   0.02   0.02
  19   6    -0.26   0.29   0.13     0.20  -0.22  -0.18     0.18  -0.19  -0.05
  20   1    -0.02  -0.11  -0.02    -0.10  -0.11  -0.04     0.09  -0.10  -0.06
  21   1    -0.12  -0.08  -0.06    -0.17  -0.08  -0.08     0.01  -0.07  -0.11
  22   1    -0.04  -0.11  -0.03    -0.08  -0.11  -0.03     0.01  -0.07  -0.10
  23   1    -0.05   0.05  -0.01    -0.10   0.04  -0.06     0.02  -0.02   0.04
  24   1    -0.06   0.05  -0.02    -0.09   0.04  -0.06    -0.06   0.01  -0.01
  25   1     0.05   0.05   0.00    -0.00  -0.01  -0.01     0.03   0.03   0.02
  26   1     0.05   0.04  -0.02    -0.00  -0.00  -0.00     0.02   0.06  -0.03
  27   1     0.04   0.04  -0.03    -0.01   0.00   0.01    -0.03   0.04  -0.04
  28   1     0.04   0.04  -0.01    -0.00  -0.00   0.00    -0.03   0.02  -0.00
  29   1     0.06   0.05  -0.02    -0.01  -0.01   0.01    -0.00   0.05  -0.02
  30   1     0.01   0.02   0.02    -0.02  -0.01  -0.01     0.03  -0.01   0.03
  31   1    -0.00  -0.00   0.02    -0.01  -0.01   0.01     0.01  -0.01  -0.02
  32   1    -0.00  -0.02  -0.02    -0.01   0.04   0.01     0.05   0.04  -0.01
  33   1     0.01  -0.00   0.00    -0.02   0.05   0.04     0.02   0.02  -0.03
  34   1     0.02   0.00  -0.04    -0.02   0.07   0.01     0.05  -0.03   0.01
  35   1     0.01  -0.00  -0.03    -0.02   0.06   0.03     0.03  -0.03  -0.02
  36   1     0.00  -0.01  -0.05    -0.01   0.04   0.00     0.05  -0.01   0.01
  37   1     0.02   0.02  -0.01     0.04  -0.04  -0.02    -0.03  -0.01   0.02
  38   1    -0.08  -0.04  -0.00     0.10  -0.01  -0.00     0.04   0.05  -0.00
  39   1    -0.12   0.07   0.06     0.07  -0.06  -0.05     0.09  -0.04  -0.04
  40   1    -0.03   0.13   0.03     0.02  -0.09  -0.06     0.03  -0.10  -0.00
  41   1    -0.10   0.11   0.06     0.08  -0.07  -0.08     0.06  -0.07  -0.02
                      7                      8                      9
                        a                      a                      a 
 Frequencies --    70.0451                67.4587                64.8426
 Red. masses --    21.1433                17.1926                12.3971
 Frc consts  --     0.0000                 0.0000                 0.0000
 IR Inten    --     1.5618                 3.8609                 1.8187
 Raman Activ --     0.0000                 0.0000                 0.0000
 Depolar     --     0.0000                 0.0000                 0.0000
 Atom AN      X      Y      Z        X      Y      Z        X      Y      Z
   1   6    -0.04  -0.10  -0.00    -0.02  -0.06  -0.07    -0.16  -0.04   0.30
   2   6    -0.01   0.02   0.02    -0.03  -0.11  -0.09     0.01   0.06   0.05
   3   8     0.14   0.04   0.06    -0.12  -0.13  -0.07     0.15   0.09   0.05
   4  15     0.21  -0.03   0.01    -0.01  -0.09   0.09     0.07   0.10  -0.04
   5  16     0.30  -0.23   0.16     0.28   0.05   0.15     0.08   0.08  -0.02
   6   8     0.11   0.06  -0.01    -0.08  -0.10   0.20     0.03   0.17  -0.09
   7   6     0.03   0.16  -0.06    -0.20   0.09   0.08     0.17  -0.10   0.04
   8   6     0.02   0.16  -0.18    -0.06   0.11  -0.14    -0.06  -0.14   0.33
   9  16     0.23  -0.01  -0.10     0.01  -0.08   0.05    -0.08  -0.05  -0.10
  10   6     0.03   0.05  -0.03     0.01   0.04  -0.02    -0.03  -0.07  -0.05
  11  16    -0.19   0.16  -0.09    -0.15   0.09  -0.20    -0.19  -0.05  -0.07
  12  15    -0.18   0.12  -0.06    -0.02  -0.03   0.02    -0.13   0.02  -0.03
  13  16    -0.29   0.12   0.13    -0.11   0.00   0.33    -0.15   0.02   0.00
  14   8    -0.03   0.05  -0.10     0.03  -0.10  -0.02    -0.02   0.00  -0.06
  15   6    -0.08  -0.17   0.02     0.18   0.07  -0.05     0.21   0.14  -0.06
  16   6    -0.10  -0.29   0.15     0.23   0.29  -0.33     0.37  -0.09  -0.16
  17   8    -0.09   0.06  -0.02     0.03  -0.06  -0.04    -0.09   0.02   0.03
  18   6    -0.11  -0.00   0.04     0.01  -0.03  -0.02    -0.05  -0.03   0.00
  19   6     0.05  -0.18   0.05    -0.01   0.01  -0.00    -0.00  -0.11  -0.04
  20   1     0.00  -0.04   0.00    -0.02  -0.02  -0.02    -0.09  -0.01   0.09
  21   1    -0.04  -0.03  -0.01     0.01  -0.02  -0.02    -0.08  -0.01   0.09
  22   1    -0.00  -0.05  -0.00    -0.01  -0.00  -0.01    -0.01  -0.04   0.13
  23   1    -0.01   0.03   0.01    -0.01  -0.05  -0.03    -0.03   0.04  -0.04
  24   1    -0.01   0.01   0.01     0.00  -0.02  -0.03     0.05   0.02   0.01
  25   1     0.01   0.05  -0.01    -0.09   0.06   0.01     0.09  -0.09   0.02
  26   1     0.00   0.06  -0.00    -0.08   0.02   0.06     0.08  -0.01  -0.04
  27   1     0.00   0.04  -0.06     0.01  -0.01  -0.04    -0.05   0.02   0.10
  28   1     0.00   0.03  -0.06     0.00   0.04  -0.07    -0.04  -0.06   0.12
  29   1     0.00   0.07  -0.06    -0.03   0.07  -0.06    -0.01  -0.09   0.11
  30   1    -0.00  -0.00  -0.01     0.01   0.01  -0.00    -0.00  -0.03  -0.01
  31   1     0.02   0.04  -0.00     0.02   0.03  -0.01     0.00  -0.01  -0.03
  32   1    -0.02  -0.04   0.04     0.02  -0.01  -0.01     0.10   0.08  -0.01
  33   1    -0.03  -0.08  -0.03     0.10   0.03   0.04     0.03   0.08   0.00
  34   1    -0.03  -0.12   0.06     0.09   0.11  -0.10     0.15  -0.01  -0.04
  35   1    -0.03  -0.09   0.01     0.10   0.11  -0.10     0.06  -0.07  -0.06
  36   1    -0.02  -0.06   0.08     0.01   0.08  -0.15     0.13  -0.06  -0.06
  37   1    -0.07  -0.01   0.04     0.01  -0.00  -0.00    -0.03  -0.01   0.01
  38   1    -0.03   0.03  -0.01    -0.00  -0.01  -0.01    -0.00   0.01  -0.00
  39   1     0.05  -0.04  -0.02    -0.01  -0.00   0.00     0.01  -0.03  -0.02
  40   1     0.01  -0.09   0.03     0.00   0.01  -0.00    -0.01  -0.05  -0.01
  41   1     0.01  -0.07   0.02    -0.01   0.00   0.00     0.01  -0.04  -0.01
                     10                     11                     12
                        a                      a                      a 
 Frequencies --    71.2344                76.7128                77.5471
 Red. masses --    15.1030                12.2168                11.2977
 Frc consts  --     0.0000                 0.0000                 0.0000
 IR Inten    --     1.3628                 0.5589                 3.2793
 Raman Activ --     0.0000                 0.0000                 0.0000
 Depolar     --     0.0000                 0.0000                 0.0000
 Atom AN      X      Y      Z        X      Y      Z        X      Y      Z
   1   6    -0.26  -0.14   0.46    -0.06   0.13  -0.08    -0.05   0.07  -0.06
   2   6     0.04  -0.12  -0.07    -0.11   0.02  -0.05    -0.09   0.07   0.01
   3   8     0.07  -0.13  -0.10    -0.26   0.01  -0.11    -0.09   0.09  -0.01
   4  15     0.00  -0.03  -0.05    -0.10   0.03   0.04    -0.02   0.08   0.02
   5  16    -0.02   0.29  -0.23     0.11   0.14   0.08     0.04   0.08   0.05
   6   8     0.00  -0.05  -0.02    -0.07  -0.11   0.14     0.00   0.00   0.03
   7   6    -0.06   0.07  -0.07    -0.07   0.06   0.05     0.10  -0.06   0.07
   8   6     0.12   0.10  -0.21     0.33   0.13  -0.14     0.40  -0.00   0.14
   9  16    -0.13  -0.12   0.25    -0.04   0.06  -0.04    -0.03   0.05  -0.06
  10   6     0.01   0.02   0.05    -0.02  -0.06   0.03     0.00  -0.05  -0.01
  11  16    -0.03  -0.00  -0.10     0.02  -0.09   0.14    -0.00  -0.08  -0.02
  12  15     0.07   0.03  -0.02    -0.05  -0.02   0.03    -0.04  -0.05  -0.07
  13  16     0.14   0.06  -0.01    -0.01  -0.06  -0.19     0.24   0.10  -0.02
  14   8     0.08   0.02  -0.03    -0.06   0.02   0.03    -0.06  -0.15  -0.04
  15   6    -0.04  -0.07  -0.00     0.11   0.15   0.01    -0.07  -0.17  -0.02
  16   6    -0.11  -0.02   0.08     0.29  -0.37   0.12    -0.12   0.15  -0.19
  17   8     0.02   0.05   0.04    -0.05  -0.00   0.04    -0.13   0.05  -0.05
  18   6     0.04  -0.01   0.03     0.02  -0.03  -0.03    -0.26   0.08   0.11
  19   6     0.07  -0.05   0.03    -0.02  -0.01  -0.07     0.08  -0.31   0.13
  20   1    -0.19  -0.03   0.13    -0.02   0.05  -0.03     0.00   0.02  -0.02
  21   1    -0.09  -0.04   0.15     0.01   0.04  -0.01    -0.02   0.02  -0.02
  22   1    -0.01  -0.05   0.23    -0.03   0.05  -0.03    -0.02   0.02  -0.03
  23   1    -0.05  -0.04  -0.13    -0.02  -0.01  -0.00    -0.02   0.03   0.02
  24   1     0.13  -0.02  -0.02    -0.03  -0.00  -0.01    -0.04   0.02   0.00
  25   1    -0.05   0.06  -0.03    -0.08   0.09   0.00    -0.01   0.02   0.00
  26   1    -0.04   0.00   0.01    -0.05  -0.04   0.05     0.01  -0.08   0.02
  27   1     0.06  -0.01  -0.06     0.15  -0.04  -0.04     0.15  -0.04   0.06
  28   1     0.05   0.05  -0.08     0.12   0.09  -0.07     0.13   0.06   0.03
  29   1     0.03   0.06  -0.07     0.10   0.07  -0.05     0.13  -0.01   0.05
  30   1     0.02   0.02   0.02    -0.00  -0.02   0.01     0.00  -0.02   0.00
  31   1     0.01   0.01   0.01    -0.01  -0.03  -0.00     0.00  -0.02  -0.01
  32   1    -0.02  -0.03   0.00     0.13   0.12  -0.01    -0.08  -0.10   0.01
  33   1    -0.01  -0.04  -0.02    -0.06   0.10  -0.01     0.05  -0.08   0.02
  34   1    -0.05  -0.02   0.02     0.12  -0.10   0.04    -0.04   0.04  -0.05
  35   1    -0.02   0.00   0.03    -0.01  -0.19   0.03     0.02   0.09  -0.06
  36   1    -0.03   0.01   0.04     0.17  -0.14   0.06    -0.10   0.06  -0.08
  37   1    -0.00  -0.01   0.01     0.01  -0.01  -0.02    -0.15   0.02   0.12
  38   1     0.02   0.00   0.01     0.02  -0.02   0.01    -0.10   0.11  -0.03
  39   1     0.03  -0.01   0.01    -0.02  -0.00  -0.01     0.11  -0.08  -0.05
  40   1     0.01  -0.02   0.01    -0.02   0.00  -0.03     0.04  -0.18   0.10
  41   1     0.03  -0.03   0.01     0.01  -0.01  -0.03    -0.01  -0.09   0.07
                     13                     14                     15
                        a                      a                      a 
 Frequencies --    95.7061               108.6611               119.9555
 Red. masses --    14.9240                13.2747                12.5022
 Frc consts  --     0.0000                 0.0000                 0.0000
 IR Inten    --     3.3684                 4.4012                 6.4308
 Raman Activ --     0.0000                 0.0000                 0.0000
 Depolar     --     0.0000                 0.0000                 0.0000
 Atom AN      X      Y      Z        X      Y      Z        X      Y      Z
   1   6     0.05  -0.04  -0.04    -0.02   0.01  -0.06     0.08  -0.10   0.04
   2   6     0.04  -0.00   0.01    -0.05   0.03   0.02     0.14  -0.07  -0.06
   3   8     0.07   0.00   0.06    -0.02   0.04  -0.00     0.15  -0.07   0.02
   4  15    -0.05   0.02  -0.01     0.03   0.02   0.01    -0.03  -0.03  -0.06
   5  16     0.08  -0.03   0.09     0.04   0.05   0.00    -0.09  -0.18  -0.01
   6   8    -0.10   0.16  -0.05     0.05  -0.02   0.00    -0.14   0.17  -0.05
   7   6     0.01  -0.02   0.03     0.09  -0.01   0.00    -0.24   0.01   0.00
   8   6     0.41   0.06   0.20    -0.01  -0.03  -0.00     0.09   0.08   0.14
   9  16    -0.19  -0.13  -0.15     0.00   0.00   0.03     0.01   0.02  -0.09
  10   6    -0.03  -0.10  -0.13     0.01   0.02   0.00    -0.01   0.07  -0.07
  11  16    -0.24  -0.08  -0.19    -0.11   0.06  -0.06     0.12   0.08  -0.06
  12  15     0.04   0.03   0.04    -0.10   0.04  -0.05     0.05  -0.05  -0.03
  13  16    -0.17  -0.05   0.13     0.33   0.29   0.08     0.11   0.04   0.26
  14   8     0.17   0.13  -0.04    -0.20  -0.12   0.02    -0.17  -0.07   0.10
  15   6    -0.03  -0.06   0.01    -0.10   0.01  -0.03    -0.12   0.34  -0.14
  16   6    -0.16   0.10   0.12    -0.04  -0.07  -0.07    -0.06  -0.06   0.06
  17   8     0.07   0.00   0.14    -0.08   0.04  -0.04     0.10  -0.10  -0.20
  18   6     0.23  -0.08  -0.05     0.14  -0.48  -0.10    -0.09   0.02  -0.01
  19   6    -0.02   0.18  -0.12    -0.04  -0.03   0.23     0.05  -0.05   0.12
  20   1     0.03  -0.02  -0.01     0.02   0.01  -0.02    -0.01  -0.04   0.02
  21   1     0.01  -0.01  -0.02    -0.01   0.00  -0.01     0.02  -0.03  -0.00
  22   1     0.01  -0.01  -0.01    -0.01  -0.00  -0.03     0.04  -0.02   0.04
  23   1     0.01  -0.00   0.01    -0.01   0.02   0.02     0.03  -0.03  -0.05
  24   1     0.00   0.01   0.00    -0.04   0.00   0.01     0.07  -0.00  -0.02
  25   1    -0.04   0.04  -0.02     0.04  -0.02   0.02    -0.13   0.03  -0.06
  26   1    -0.02  -0.09   0.01     0.04   0.02  -0.02    -0.11  -0.07   0.05
  27   1     0.17  -0.02   0.10    -0.02   0.00  -0.02     0.09  -0.01   0.11
  28   1     0.14   0.10   0.04    -0.02  -0.03   0.02     0.07   0.10  -0.01
  29   1     0.12  -0.01   0.07     0.01  -0.00  -0.00    -0.01  -0.01   0.05
  30   1     0.01  -0.05  -0.02     0.01  -0.00   0.01    -0.01   0.03  -0.03
  31   1     0.01  -0.02  -0.06     0.01   0.01  -0.01    -0.01   0.02  -0.01
  32   1    -0.04  -0.04   0.01    -0.01   0.02  -0.02     0.08   0.17  -0.13
  33   1     0.02  -0.06  -0.02    -0.05   0.03   0.00    -0.17   0.20  -0.04
  34   1    -0.09   0.00   0.04     0.00   0.00  -0.03    -0.03   0.07  -0.03
  35   1    -0.01   0.06   0.04    -0.03  -0.04  -0.01    -0.13  -0.09   0.11
  36   1    -0.06   0.06   0.05     0.01  -0.04  -0.03     0.11  -0.11   0.01
  37   1     0.12  -0.03  -0.09     0.07  -0.19  -0.22    -0.04   0.01   0.05
  38   1     0.11  -0.09   0.04     0.08  -0.30   0.09    -0.07   0.03  -0.04
  39   1    -0.07   0.05   0.04    -0.04   0.05   0.27     0.04  -0.02  -0.02
  40   1    -0.04   0.11  -0.09    -0.06   0.15  -0.06     0.06  -0.04   0.08
  41   1     0.03   0.04  -0.07     0.03  -0.14   0.06    -0.03   0.00   0.07
                     16                     17                     18
                        a                      a                      a 
 Frequencies --   126.1770               155.4438               144.4062
 Red. masses --    14.8125                24.5581                13.2294
 Frc consts  --     0.0000                 0.0000                 0.0000
 IR Inten    --     3.0577                 8.0871                 4.4591
 Raman Activ --     0.0000                 0.0000                 0.0000
 Depolar     --     0.0000                 0.0000                 0.0000
 Atom AN      X      Y      Z        X      Y      Z        X      Y      Z
   1   6     0.05  -0.08   0.08    -0.05   0.07  -0.02     0.01  -0.01   0.03
   2   6     0.16  -0.06  -0.11     0.03   0.03  -0.17     0.19  -0.10  -0.35
   3   8     0.12  -0.07   0.01    -0.04   0.02  -0.13    -0.12  -0.14  -0.04
   4  15    -0.01  -0.00  -0.03    -0.02   0.05  -0.15    -0.22   0.03   0.11
   5  16    -0.21  -0.19  -0.02     0.29  -0.37   0.21    -0.02  -0.07   0.27
   6   8    -0.11   0.12   0.02    -0.03   0.12  -0.15    -0.08  -0.03   0.01
   7   6    -0.31   0.02   0.03     0.05   0.02  -0.09     0.34   0.07   0.01
   8   6     0.04   0.09   0.12    -0.01   0.01   0.05     0.03   0.01  -0.03
   9  16     0.16   0.14  -0.10    -0.15   0.04   0.29    -0.11   0.10  -0.16
  10   6    -0.05   0.06   0.04    -0.20   0.22   0.12     0.03  -0.06  -0.09
  11  16     0.12   0.08   0.24    -0.14   0.18  -0.16     0.14  -0.04   0.14
  12  15    -0.09   0.09   0.00     0.01  -0.12   0.13     0.01   0.08  -0.04
  13  16    -0.03   0.07  -0.23     0.24  -0.12  -0.28    -0.10   0.06   0.09
  14   8    -0.02  -0.01  -0.04    -0.01  -0.07   0.11    -0.06   0.03   0.00
  15   6     0.11  -0.25   0.15     0.00   0.02   0.06    -0.04  -0.01   0.02
  16   6     0.17  -0.02  -0.13     0.01   0.04   0.04    -0.03  -0.00  -0.01
  17   8    -0.08   0.08   0.02    -0.04  -0.04   0.14     0.06   0.01  -0.12
  18   6     0.03  -0.10  -0.03     0.00   0.02   0.06     0.00   0.00  -0.04
  19   6    -0.03   0.00   0.03    -0.04  -0.01  -0.06     0.04   0.02   0.06
  20   1    -0.04  -0.05   0.03    -0.06   0.00   0.00    -0.14  -0.09   0.05
  21   1     0.02  -0.02  -0.01     0.01   0.02  -0.02     0.07  -0.00  -0.08
  22   1     0.04   0.00   0.08     0.00   0.04   0.03     0.04   0.11   0.14
  23   1     0.02  -0.04  -0.09    -0.01  -0.01  -0.09     0.02  -0.13  -0.23
  24   1     0.10   0.01  -0.04     0.05   0.02  -0.05     0.20   0.05  -0.13
  25   1    -0.16   0.04  -0.06     0.03  -0.01  -0.02     0.18  -0.01   0.11
  26   1    -0.14  -0.07   0.08     0.03   0.00  -0.05     0.17   0.09  -0.10
  27   1     0.09  -0.01   0.11    -0.02   0.02   0.01    -0.09   0.03  -0.13
  28   1     0.06   0.10  -0.03    -0.02   0.01   0.04    -0.07  -0.07   0.10
  29   1    -0.04  -0.01   0.04     0.02  -0.02   0.03     0.12   0.04  -0.01
  30   1    -0.04   0.02  -0.01    -0.08   0.11   0.00     0.02  -0.03  -0.01
  31   1    -0.03   0.01   0.04    -0.08   0.07   0.09     0.01  -0.03  -0.05
  32   1    -0.05  -0.12   0.12     0.01   0.00   0.00    -0.02  -0.01   0.02
  33   1     0.14  -0.14   0.06    -0.00   0.02   0.03    -0.00  -0.01   0.01
  34   1     0.09  -0.07   0.01     0.00   0.02   0.00     0.00  -0.02   0.01
  35   1     0.13   0.03  -0.14     0.00   0.01   0.02     0.00   0.00  -0.03
  36   1    -0.06   0.06  -0.05     0.00   0.00   0.00    -0.02   0.01   0.00
  37   1     0.01  -0.05  -0.07     0.01   0.01   0.02    -0.00  -0.00  -0.01
  38   1     0.03  -0.07   0.03     0.01   0.02   0.02    -0.01  -0.01  -0.02
  39   1    -0.01   0.02   0.07    -0.03  -0.01  -0.03     0.02   0.01   0.02
  40   1    -0.03   0.04  -0.03    -0.02  -0.02  -0.01     0.03   0.01   0.02
  41   1     0.01  -0.04   0.00    -0.00   0.02  -0.03    -0.00  -0.00   0.04
                     19                     20                     21
                        a                      a                      a 
 Frequencies --   171.2210               177.7255               194.3285
 Red. masses --    23.4079                20.8909                17.0278
 Frc consts  --     0.0000                 0.0000                 0.0000
 IR Inten    --     4.0067                15.7898                39.3278
 Raman Activ --     0.0000                 0.0000                 0.0000
 Depolar     --     0.0000                 0.0000                 0.0000
 Atom AN      X      Y      Z        X      Y      Z        X      Y      Z
   1   6     0.01   0.00   0.00     0.11  -0.18   0.08     0.06  -0.09   0.04
   2   6     0.11   0.03  -0.16     0.03  -0.16   0.23     0.02  -0.09   0.10
   3   8     0.03   0.02   0.04     0.05  -0.16   0.16     0.02  -0.09   0.06
   4  15     0.15   0.09   0.18    -0.19  -0.18   0.06    -0.17  -0.08  -0.02
   5  16    -0.37   0.04  -0.02     0.14   0.29  -0.02     0.15   0.08   0.04
   6   8     0.14  -0.08   0.23    -0.17  -0.02  -0.03    -0.12   0.00  -0.07
   7   6     0.05   0.07   0.15     0.09   0.01  -0.02     0.02  -0.01  -0.05
   8   6    -0.01   0.05  -0.01     0.03  -0.00  -0.03     0.01  -0.01  -0.01
   9  16     0.31   0.11  -0.22     0.08   0.06  -0.32     0.10   0.19  -0.06
  10   6     0.01   0.00  -0.01    -0.12   0.14  -0.16    -0.24   0.14   0.10
  11  16    -0.29   0.03  -0.25    -0.09   0.26  -0.09     0.25  -0.04   0.14
  12  15    -0.04  -0.18   0.08    -0.00  -0.00   0.16    -0.06  -0.13  -0.14
  13  16     0.18  -0.13  -0.07     0.08  -0.07  -0.25     0.08   0.03   0.21
  14   8     0.09  -0.04   0.01    -0.16  -0.12   0.20     0.27   0.13  -0.27
  15   6    -0.00   0.06  -0.07    -0.03  -0.03   0.18     0.05   0.03  -0.26
  16   6    -0.05   0.02   0.04     0.03   0.01   0.03    -0.07   0.00  -0.04
  17   8    -0.12  -0.05   0.24     0.05  -0.05  -0.03    -0.22   0.06   0.22
  18   6    -0.03  -0.01   0.10     0.01   0.03   0.00    -0.07  -0.06   0.07
  19   6    -0.13  -0.04  -0.10     0.03   0.01   0.01    -0.17  -0.08  -0.11
  20   1    -0.07  -0.06   0.02     0.09  -0.02   0.01     0.04  -0.01   0.00
  21   1     0.03   0.00  -0.06     0.00  -0.05   0.05     0.00  -0.03   0.03
  22   1     0.02   0.06   0.07     0.02  -0.09  -0.02     0.01  -0.05  -0.01
  23   1     0.01  -0.04  -0.11     0.02  -0.02   0.11     0.01  -0.02   0.05
  24   1     0.09   0.05  -0.06    -0.04  -0.07   0.07    -0.01  -0.04   0.03
  25   1     0.02   0.02   0.05     0.06  -0.00   0.05     0.02  -0.01   0.01
  26   1     0.01   0.05   0.06     0.06   0.02  -0.06     0.02  -0.00  -0.04
  27   1    -0.00   0.01  -0.01    -0.03  -0.01  -0.08    -0.03  -0.01  -0.05
  28   1    -0.00  -0.01  -0.02    -0.03  -0.02   0.06    -0.03  -0.01   0.05
  29   1    -0.02   0.04  -0.01     0.09   0.02  -0.01     0.06   0.00  -0.00
  30   1    -0.02  -0.02  -0.02    -0.07   0.04  -0.07    -0.13   0.11  -0.04
  31   1     0.02   0.03   0.01    -0.04   0.05  -0.01    -0.13   0.02   0.12
  32   1     0.03   0.03  -0.06    -0.02  -0.01   0.06     0.03   0.02  -0.09
  33   1    -0.04   0.04  -0.02     0.01  -0.00   0.07    -0.02   0.01  -0.11
  34   1    -0.04   0.05  -0.02     0.03   0.02   0.01    -0.07   0.01  -0.03
  35   1    -0.04  -0.00   0.07     0.01   0.01   0.01    -0.04  -0.00   0.03
  36   1     0.03  -0.03   0.01    -0.00  -0.01  -0.02     0.02  -0.01   0.01
  37   1     0.01   0.00   0.03     0.00   0.01   0.02    -0.02  -0.03  -0.01
  38   1     0.02   0.01   0.03    -0.01   0.02  -0.01     0.02  -0.02   0.05
  39   1    -0.06  -0.02  -0.03     0.01  -0.01  -0.03    -0.06  -0.00   0.03
  40   1    -0.07  -0.03  -0.04     0.03  -0.01   0.03    -0.14  -0.01  -0.09
  41   1    -0.01   0.01  -0.07    -0.01   0.03   0.02     0.02  -0.07  -0.09
                     22                     23                     24
                        a                      a                      a 
 Frequencies --   215.3916               202.9535               210.2523
 Red. masses --    11.9936                 6.2603                 3.4967
 Frc consts  --     0.0000                 0.0000                 0.0000
 IR Inten    --    11.8318                 5.7944                 0.7253
 Raman Activ --     0.0000                 0.0000                 0.0000
 Depolar     --     0.0000                 0.0000                 0.0000
 Atom AN      X      Y      Z        X      Y      Z        X      Y      Z
   1   6     0.04  -0.06   0.01     0.00  -0.01  -0.01     0.00  -0.00  -0.00
   2   6     0.11   0.13   0.00     0.01   0.01  -0.02     0.01  -0.00  -0.01
   3   8     0.15   0.15   0.27     0.01   0.01   0.01    -0.00  -0.00  -0.00
   4  15    -0.10   0.12   0.05    -0.01   0.01   0.00    -0.02  -0.00   0.00
   5  16     0.12   0.10   0.20     0.01  -0.01   0.02     0.01  -0.00   0.02
   6   8     0.16  -0.20  -0.07     0.01  -0.01  -0.01    -0.01   0.01  -0.01
   7   6    -0.08  -0.26  -0.09    -0.01  -0.03  -0.01    -0.01  -0.00  -0.01
   8   6    -0.01  -0.27  -0.26    -0.00  -0.03  -0.03    -0.00  -0.00  -0.01
   9  16    -0.22   0.15  -0.09    -0.05   0.02   0.01    -0.01   0.03   0.02
  10   6    -0.06   0.02  -0.06     0.08   0.01  -0.05    -0.01  -0.02   0.03
  11  16    -0.00   0.02  -0.01     0.09   0.03  -0.05    -0.04   0.01   0.12
  12  15    -0.02  -0.01   0.01     0.11   0.05   0.05    -0.06   0.09  -0.01
  13  16     0.03   0.01   0.00    -0.19  -0.12  -0.06    -0.04   0.11  -0.07
  14   8    -0.00   0.02   0.00    -0.00  -0.23   0.07     0.08  -0.05  -0.08
  15   6    -0.00   0.02   0.00     0.01  -0.10   0.00     0.05  -0.18  -0.01
  16   6     0.00   0.00   0.01    -0.02  -0.01  -0.03    -0.01  -0.01  -0.04
  17   8     0.00  -0.02   0.00    -0.10   0.22   0.06     0.00   0.04   0.06
  18   6    -0.00  -0.02   0.00    -0.04   0.18   0.03     0.11  -0.12  -0.01
  19   6    -0.02  -0.01  -0.00     0.09   0.02   0.04     0.01   0.02   0.00
  20   1    -0.05  -0.18   0.06    -0.01  -0.01   0.00     0.00   0.01  -0.00
  21   1     0.05  -0.02  -0.17     0.00  -0.00  -0.01    -0.00  -0.00   0.01
  22   1     0.02   0.10   0.11     0.00   0.01   0.01     0.00  -0.00  -0.00
  23   1     0.02   0.01  -0.04     0.00  -0.00  -0.01     0.00  -0.00  -0.00
  24   1     0.06   0.09  -0.02     0.01   0.01  -0.01     0.00  -0.00  -0.00
  25   1    -0.07  -0.06  -0.08    -0.01  -0.01  -0.01    -0.00  -0.00  -0.00
  26   1    -0.06  -0.09   0.04    -0.01  -0.01   0.00    -0.00  -0.00  -0.00
  27   1     0.12  -0.08   0.12     0.01  -0.01   0.02     0.01  -0.00   0.01
  28   1     0.12  -0.08  -0.30     0.01  -0.00  -0.03     0.00   0.00  -0.01
  29   1    -0.26  -0.08  -0.09    -0.03  -0.01  -0.01    -0.01  -0.00  -0.00
  30   1    -0.01   0.01  -0.01     0.04  -0.01   0.00     0.00  -0.01   0.01
  31   1    -0.02  -0.00  -0.03     0.03   0.00  -0.04     0.00  -0.01   0.00
  32   1     0.00   0.01   0.00     0.01  -0.03  -0.02    -0.01  -0.07   0.01
  33   1    -0.00   0.01  -0.00    -0.01  -0.01   0.02     0.04  -0.07  -0.00
  34   1     0.01  -0.03   0.02    -0.05   0.26  -0.16    -0.08   0.38  -0.23
  35   1     0.01   0.00  -0.03    -0.11  -0.02   0.27    -0.14  -0.01   0.38
  36   1    -0.01   0.03   0.02     0.13  -0.21  -0.14     0.18  -0.30  -0.20
  37   1     0.00  -0.00   0.00    -0.04   0.04   0.01     0.04  -0.04  -0.05
  38   1    -0.00  -0.01   0.00     0.00   0.07   0.01     0.05  -0.07   0.03
  39   1    -0.02  -0.02  -0.03     0.15   0.19   0.32    -0.10  -0.14  -0.26
  40   1     0.02  -0.01   0.02    -0.24   0.11  -0.20     0.24  -0.08   0.18
  41   1    -0.02   0.03   0.00     0.22  -0.33  -0.08    -0.17   0.29   0.09
                     25                     26                     27
                        a                      a                      a 
 Frequencies --   227.0962               239.9648               237.7256
 Red. masses --     7.3509                 9.0601                 7.4689
 Frc consts  --     0.0000                 0.0000                 0.0000
 IR Inten    --     2.3656                 5.0590                 6.0461
 Raman Activ --     0.0000                 0.0000                 0.0000
 Depolar     --     0.0000                 0.0000                 0.0000
 Atom AN      X      Y      Z        X      Y      Z        X      Y      Z
   1   6     0.05  -0.09   0.03    -0.01   0.01   0.00    -0.02   0.03  -0.01
   2   6     0.13  -0.05  -0.11     0.01  -0.02  -0.05    -0.08  -0.13   0.02
   3   8     0.07  -0.05  -0.11    -0.01  -0.03  -0.05    -0.18  -0.14  -0.07
   4  15    -0.06   0.19  -0.01     0.12   0.01   0.07    -0.12  -0.15   0.04
   5  16    -0.04  -0.07   0.15    -0.06  -0.01   0.01     0.01   0.06  -0.01
   6   8     0.05  -0.07   0.05     0.08  -0.06   0.15    -0.07   0.12  -0.17
   7   6     0.02  -0.05   0.02     0.17   0.09   0.10     0.21   0.15  -0.13
   8   6    -0.00  -0.07  -0.07    -0.00   0.05   0.02    -0.03   0.12   0.11
   9  16    -0.17   0.21  -0.02    -0.02  -0.12  -0.12     0.13  -0.01   0.06
  10   6     0.18  -0.03  -0.08    -0.49   0.06   0.09     0.24  -0.02  -0.03
  11  16     0.02   0.08  -0.01    -0.06  -0.18   0.03     0.06   0.11  -0.00
  12  15    -0.03  -0.03   0.02     0.06   0.04  -0.05    -0.04  -0.03   0.02
  13  16     0.02  -0.01   0.00    -0.03   0.03  -0.00     0.02  -0.01   0.01
  14   8     0.00   0.00   0.01    -0.01   0.00  -0.01     0.01   0.02  -0.00
  15   6     0.00   0.01   0.01    -0.01  -0.01  -0.01     0.00   0.00   0.01
  16   6    -0.00   0.00   0.01    -0.01  -0.01  -0.01    -0.00   0.01   0.02
  17   8    -0.04  -0.02   0.06     0.09   0.03  -0.15    -0.04  -0.03   0.06
  18   6    -0.03  -0.03   0.04     0.06   0.08  -0.10    -0.04  -0.04   0.05
  19   6    -0.07  -0.04  -0.03     0.17   0.08   0.07    -0.10  -0.05  -0.04
  20   1     0.18   0.36  -0.14     0.04   0.13  -0.05    -0.03  -0.02   0.01
  21   1    -0.24  -0.03   0.43    -0.07   0.00   0.14     0.06   0.01  -0.03
  22   1     0.06  -0.43  -0.20     0.01  -0.12  -0.07    -0.02   0.07   0.01
  23   1     0.03  -0.01  -0.04     0.00  -0.01  -0.02    -0.01  -0.04   0.02
  24   1     0.05  -0.02  -0.03     0.01  -0.01  -0.02    -0.03  -0.05   0.01
  25   1     0.00  -0.01   0.01     0.08   0.02   0.06     0.11   0.01   0.01
  26   1     0.00  -0.01   0.01     0.07   0.06   0.01     0.09   0.07  -0.09
  27   1     0.02  -0.02   0.02     0.09   0.08   0.21     0.14   0.17   0.39
  28   1     0.03  -0.03  -0.08     0.11  -0.02  -0.21     0.16   0.03  -0.29
  29   1    -0.06  -0.00  -0.03    -0.26  -0.02   0.00    -0.42  -0.11   0.06
  30   1     0.11  -0.06   0.04    -0.25   0.14  -0.09     0.11  -0.06   0.04
  31   1     0.08  -0.01  -0.11    -0.22   0.01   0.20     0.11   0.00  -0.08
  32   1     0.00   0.00   0.00    -0.01  -0.01   0.00     0.00   0.00   0.00
  33   1    -0.00   0.00   0.00    -0.00  -0.01  -0.00     0.00  -0.00  -0.00
  34   1     0.00  -0.02   0.01    -0.00   0.01  -0.01    -0.01  -0.01   0.01
  35   1     0.01   0.00  -0.02    -0.01  -0.01   0.01     0.00   0.00  -0.00
  36   1    -0.01   0.02   0.01     0.00  -0.01  -0.01    -0.00   0.01   0.01
  37   1    -0.01  -0.01   0.01     0.01   0.02  -0.02    -0.01  -0.01   0.01
  38   1    -0.00  -0.01   0.01     0.00   0.02  -0.04    -0.01  -0.01   0.02
  39   1    -0.04  -0.02  -0.02     0.09   0.05   0.05    -0.05  -0.02  -0.02
  40   1    -0.03  -0.02  -0.01     0.06   0.05   0.02    -0.04  -0.02  -0.01
  41   1    -0.02   0.01  -0.02     0.03  -0.03   0.06    -0.02   0.01  -0.03
                     28                     29                     30
                        a                      a                      a 
 Frequencies --   263.4062               291.0535               300.7722
 Red. masses --    12.7079                19.4498                16.6297
 Frc consts  --     0.0000                 0.0000                 0.0000
 IR Inten    --    21.1065                 5.9523                 4.5829
 Raman Activ --     0.0000                 0.0000                 0.0000
 Depolar     --     0.0000                 0.0000                 0.0000
 Atom AN      X      Y      Z        X      Y      Z        X      Y      Z
   1   6     0.00  -0.00   0.00    -0.01   0.02  -0.00    -0.01   0.02  -0.01
   2   6    -0.00  -0.00   0.01    -0.02   0.02   0.02     0.02   0.00  -0.07
   3   8    -0.00  -0.00  -0.00     0.05   0.02  -0.06    -0.05  -0.00   0.10
   4  15     0.01  -0.01   0.00     0.16   0.01  -0.02    -0.13  -0.04   0.06
   5  16    -0.00  -0.01  -0.01    -0.03  -0.08  -0.10     0.01   0.10   0.10
   6   8     0.00  -0.00   0.01     0.04  -0.07   0.18    -0.02   0.07  -0.17
   7   6     0.01   0.01   0.00     0.06   0.05   0.14    -0.06  -0.05  -0.13
   8   6    -0.00   0.01   0.01     0.01   0.04   0.01    -0.01  -0.04  -0.01
   9  16    -0.00   0.00   0.00    -0.26  -0.23  -0.07     0.27   0.13   0.06
  10   6     0.01   0.04  -0.03    -0.05   0.12  -0.24     0.02  -0.06   0.16
  11  16     0.15  -0.02  -0.10     0.43   0.10  -0.18    -0.07  -0.23  -0.19
  12  15     0.15   0.06   0.00     0.08   0.02  -0.03     0.12  -0.01  -0.00
  13  16    -0.16  -0.08   0.03    -0.07  -0.03   0.04    -0.11  -0.14  -0.00
  14   8    -0.15  -0.29   0.08    -0.06   0.04   0.09     0.04  -0.16   0.07
  15   6    -0.22   0.02  -0.16     0.10   0.03   0.18     0.17   0.05   0.04
  16   6    -0.09  -0.16  -0.29     0.07   0.11   0.21     0.04   0.15   0.25
  17   8    -0.14   0.33   0.39    -0.24   0.21   0.01    -0.28   0.31  -0.17
  18   6     0.21   0.06   0.12    -0.15  -0.15  -0.01    -0.08  -0.06  -0.24
  19   6     0.14   0.09   0.02    -0.21  -0.13  -0.04     0.07  -0.00   0.09
  20   1    -0.00  -0.00   0.00    -0.02  -0.03   0.01     0.01   0.06  -0.03
  21   1     0.00  -0.00  -0.00     0.02   0.01  -0.04    -0.03   0.01   0.06
  22   1    -0.00   0.00   0.00    -0.01   0.04   0.02     0.01  -0.04  -0.03
  23   1    -0.00  -0.00   0.00    -0.01   0.02   0.02     0.00  -0.03  -0.05
  24   1    -0.00  -0.00   0.00    -0.02  -0.01   0.01     0.03   0.03  -0.03
  25   1     0.00   0.00   0.00     0.03   0.02   0.06    -0.03  -0.02  -0.06
  26   1     0.00   0.00  -0.00     0.02   0.03   0.03    -0.03  -0.03  -0.02
  27   1     0.00   0.01   0.01     0.01   0.01   0.01    -0.01  -0.01  -0.01
  28   1     0.01   0.00  -0.01     0.01  -0.01  -0.02    -0.01   0.01   0.02
  29   1    -0.02  -0.00   0.00    -0.02   0.03  -0.01     0.03  -0.03   0.01
  30   1     0.00   0.03  -0.02    -0.02   0.08  -0.09    -0.01   0.00   0.03
  31   1    -0.01   0.01   0.00    -0.04   0.02  -0.02     0.00  -0.01   0.07
  32   1    -0.02   0.03  -0.10     0.01   0.00   0.07     0.06   0.02  -0.02
  33   1    -0.11   0.06  -0.02     0.05  -0.00   0.06     0.03   0.04   0.02
  34   1     0.07  -0.16   0.00    -0.01   0.04   0.05    -0.07  -0.03   0.09
  35   1    -0.00  -0.07  -0.25     0.03   0.05   0.09     0.05   0.07   0.07
  36   1    -0.08   0.03  -0.05     0.02   0.03   0.06     0.00   0.11   0.14
  37   1     0.06  -0.01  -0.04    -0.06  -0.07  -0.07    -0.05  -0.06  -0.15
  38   1     0.13  -0.01   0.08    -0.01  -0.08   0.04     0.01  -0.07  -0.02
  39   1    -0.01  -0.05  -0.12    -0.10  -0.08  -0.07     0.04  -0.01  -0.03
  40   1     0.14  -0.02   0.09    -0.02  -0.06   0.02     0.14   0.01   0.08
  41   1    -0.03   0.16   0.04    -0.09   0.04  -0.01    -0.07   0.02   0.12
                     31                     32                     33
                        a                      a                      a 
 Frequencies --   311.3697               333.3664               372.8424
 Red. masses --    16.7409                19.9907                17.4559
 Frc consts  --     0.0000                 0.0000                 0.0000
 IR Inten    --     4.0332                 2.8389                22.9820
 Raman Activ --     0.0000                 0.0000                 0.0000
 Depolar     --     0.0000                 0.0000                 0.0000
 Atom AN      X      Y      Z        X      Y      Z        X      Y      Z
   1   6    -0.10   0.24  -0.08    -0.04   0.11  -0.03     0.02  -0.05   0.01
   2   6    -0.02   0.11  -0.26    -0.03   0.04  -0.08     0.01  -0.04   0.03
   3   8    -0.01   0.09   0.34     0.05   0.03   0.11    -0.07  -0.03  -0.09
   4  15    -0.03  -0.22   0.19     0.05  -0.10   0.03     0.01   0.07   0.03
   5  16    -0.01   0.16   0.06     0.01  -0.00  -0.06    -0.04   0.03   0.09
   6   8    -0.02   0.10  -0.18    -0.03  -0.01   0.04     0.07   0.05  -0.06
   7   6    -0.08  -0.07  -0.12     0.01   0.00   0.04    -0.01  -0.02  -0.04
   8   6     0.00  -0.06  -0.03     0.01  -0.00  -0.00    -0.00  -0.02  -0.01
   9  16     0.18  -0.38   0.01    -0.12  -0.23  -0.06     0.07   0.02   0.00
  10   6    -0.03   0.04  -0.06     0.00   0.05  -0.13    -0.08  -0.05   0.06
  11  16     0.16   0.05  -0.07    -0.10   0.36   0.40     0.01  -0.16  -0.05
  12  15    -0.01   0.02  -0.03    -0.05   0.02   0.16     0.16   0.29  -0.04
  13  16     0.01   0.06   0.02    -0.00  -0.03  -0.10    -0.18   0.30  -0.12
  14   8    -0.09   0.12   0.02     0.29  -0.35  -0.07    -0.05  -0.41   0.08
  15   6    -0.07  -0.01   0.08     0.16   0.00  -0.31     0.12  -0.01  -0.09
  16   6     0.02  -0.04  -0.06    -0.07   0.05   0.06    -0.01   0.06   0.10
  17   8     0.07  -0.07   0.08    -0.05   0.03  -0.08     0.32  -0.07  -0.03
  18   6     0.01  -0.01   0.11    -0.02  -0.02  -0.09     0.00  -0.10   0.27
  19   6    -0.08  -0.03  -0.05     0.04   0.01   0.03    -0.26  -0.13  -0.10
  20   1    -0.03   0.24  -0.08    -0.02   0.07  -0.02     0.01  -0.03   0.01
  21   1    -0.06   0.07   0.16    -0.00   0.03   0.03     0.00  -0.01  -0.01
  22   1    -0.01  -0.04  -0.08    -0.01   0.02  -0.02     0.01  -0.01   0.01
  23   1    -0.03  -0.05  -0.17    -0.01  -0.01  -0.05     0.01   0.00   0.02
  24   1     0.08   0.14  -0.11     0.01   0.04  -0.03    -0.01  -0.03   0.02
  25   1    -0.04  -0.02  -0.07     0.01   0.00   0.02    -0.02  -0.01  -0.03
  26   1    -0.04  -0.05  -0.01     0.01   0.00   0.00    -0.02  -0.01   0.01
  27   1    -0.01  -0.03  -0.03     0.00  -0.00  -0.00    -0.00  -0.01  -0.01
  28   1    -0.01   0.00   0.02     0.00  -0.01  -0.01    -0.01   0.00   0.01
  29   1     0.04  -0.03  -0.00    -0.00   0.01  -0.00     0.02  -0.01   0.00
  30   1    -0.05   0.05  -0.06     0.01  -0.05  -0.01    -0.05   0.03  -0.01
  31   1    -0.03   0.03   0.05     0.03   0.03  -0.07    -0.05  -0.02   0.07
  32   1    -0.04  -0.01   0.05     0.10   0.01  -0.19     0.06   0.00  -0.08
  33   1     0.01  -0.02   0.02    -0.04   0.07  -0.08    -0.01   0.05   0.00
  34   1     0.05   0.03  -0.03    -0.11  -0.10   0.05    -0.07  -0.04   0.04
  35   1    -0.01  -0.02  -0.01     0.02   0.04  -0.01     0.02   0.04   0.03
  36   1     0.01  -0.05  -0.06    -0.02   0.11   0.12    -0.01   0.07   0.09
  37   1     0.01   0.01   0.05    -0.01  -0.01  -0.04     0.00  -0.02   0.10
  38   1    -0.00   0.01   0.02    -0.00  -0.02  -0.02    -0.04  -0.01   0.05
  39   1    -0.04  -0.01  -0.00     0.02   0.01   0.00    -0.15  -0.07  -0.03
  40   1    -0.07  -0.02  -0.03     0.04   0.01   0.02    -0.17  -0.07  -0.06
  41   1     0.01   0.00  -0.05    -0.02  -0.01   0.04     0.01   0.03  -0.14
                     34                     35                     36
                        a                      a                      a 
 Frequencies --   386.9441               401.9558               407.9982
 Red. masses --    20.4334                19.3793                13.0701
 Frc consts  --     0.0000                 0.0000                 0.0000
 IR Inten    --    19.6038                21.9496                 1.1634
 Raman Activ --     0.0000                 0.0000                 0.0000
 Depolar     --     0.0000                 0.0000                 0.0000
 Atom AN      X      Y      Z        X      Y      Z        X      Y      Z
   1   6     0.02  -0.07   0.02    -0.00   0.01  -0.00     0.02  -0.04   0.00
   2   6    -0.04  -0.18   0.07    -0.00  -0.00  -0.00     0.04   0.01  -0.01
   3   8    -0.20  -0.15  -0.34     0.01  -0.00   0.02    -0.14   0.02   0.10
   4  15     0.20   0.20   0.23     0.02  -0.03   0.01     0.03  -0.15   0.07
   5  16    -0.18   0.15   0.34     0.01  -0.00  -0.01     0.04   0.03  -0.01
   6   8     0.30   0.28  -0.22    -0.01   0.00  -0.00     0.44  -0.44  -0.08
   7   6    -0.06  -0.09  -0.14     0.00   0.00   0.00    -0.08   0.17  -0.32
   8   6    -0.00  -0.10  -0.06     0.00   0.00   0.00    -0.06   0.25   0.26
   9  16    -0.01  -0.21  -0.09    -0.01   0.04  -0.00    -0.19   0.13  -0.06
  10   6    -0.05   0.03  -0.10    -0.03  -0.00   0.05    -0.04   0.01  -0.06
  11  16     0.05   0.14   0.07    -0.22   0.04   0.11    -0.00  -0.00   0.01
  12  15    -0.03  -0.05   0.04     0.48   0.18   0.18    -0.01  -0.01   0.00
  13  16     0.04  -0.07   0.02     0.01  -0.21   0.02     0.00   0.00  -0.00
  14   8     0.05   0.07  -0.02     0.25   0.21   0.11     0.00   0.00  -0.01
  15   6    -0.02   0.00  -0.01    -0.20   0.02   0.02     0.01   0.00  -0.01
  16   6    -0.00  -0.02  -0.03    -0.05  -0.13  -0.22     0.00   0.00  -0.00
  17   8    -0.07   0.02  -0.00     0.05   0.22  -0.26    -0.00  -0.00   0.00
  18   6    -0.01   0.01  -0.06    -0.17  -0.14  -0.02     0.00   0.00  -0.00
  19   6     0.04   0.02   0.02    -0.23  -0.15  -0.03     0.00   0.00   0.00
  20   1     0.01  -0.05   0.02    -0.00   0.01  -0.00     0.01  -0.01  -0.00
  21   1     0.04  -0.02  -0.02     0.00   0.00   0.00    -0.02  -0.01   0.01
  22   1    -0.01   0.01   0.01    -0.00   0.00  -0.00     0.02  -0.04  -0.00
  23   1     0.00  -0.00   0.08    -0.00  -0.00  -0.00     0.01  -0.03  -0.03
  24   1    -0.05  -0.12   0.04     0.00   0.00  -0.00     0.04   0.03  -0.01
  25   1    -0.07  -0.04  -0.14     0.00   0.00   0.00    -0.07   0.07  -0.15
  26   1    -0.07  -0.06   0.04     0.00  -0.00  -0.00    -0.08   0.04   0.01
  27   1    -0.02  -0.05  -0.06     0.00   0.00   0.00    -0.05   0.16   0.11
  28   1    -0.02  -0.02   0.02     0.00   0.00   0.00    -0.06   0.18   0.21
  29   1     0.06  -0.02  -0.02    -0.00   0.00   0.00     0.08  -0.12   0.16
  30   1    -0.04   0.01  -0.05    -0.01  -0.02   0.02    -0.00  -0.00  -0.01
  31   1    -0.02   0.02   0.01     0.00   0.00   0.00    -0.01  -0.01  -0.03
  32   1    -0.01   0.00   0.00    -0.06   0.00  -0.01     0.00   0.00  -0.00
  33   1    -0.00  -0.01  -0.01    -0.06  -0.01  -0.02     0.00   0.00  -0.00
  34   1     0.01  -0.00  -0.01     0.11   0.00  -0.05    -0.00   0.00  -0.00
  35   1    -0.01  -0.01  -0.01    -0.05  -0.08  -0.12     0.00   0.00   0.00
  36   1    -0.00  -0.01  -0.02    -0.02  -0.09  -0.13     0.00  -0.00  -0.00
  37   1    -0.00   0.00  -0.02    -0.07  -0.07  -0.05     0.00   0.00  -0.00
  38   1     0.01  -0.00  -0.01    -0.06  -0.08   0.01     0.00   0.00  -0.00
  39   1     0.03   0.01   0.00    -0.10  -0.06  -0.02     0.00   0.00   0.00
  40   1     0.03   0.01   0.01    -0.09  -0.05  -0.01     0.00   0.00   0.00
  41   1    -0.01  -0.01   0.03    -0.05  -0.01  -0.04     0.00  -0.00   0.00
                     37                     38                     39
                        a                      a                      a 
 Frequencies --   413.0537               468.6691               482.1581
 Red. masses --    17.2736                23.0553                26.1085
 Frc consts  --     0.0000                 0.0000                 0.0000
 IR Inten    --    18.3082               266.0925                85.3994
 Raman Activ --     0.0000                 0.0000                 0.0000
 Depolar     --     0.0000                 0.0000                 0.0000
 Atom AN      X      Y      Z        X      Y      Z        X      Y      Z
   1   6    -0.12   0.28  -0.05    -0.06   0.12  -0.02    -0.03   0.06  -0.01
   2   6    -0.25  -0.29  -0.08    -0.11  -0.09  -0.01    -0.06  -0.04  -0.01
   3   8     0.38  -0.27   0.07     0.40  -0.10  -0.07     0.24  -0.05  -0.04
   4  15     0.21  -0.19   0.18    -0.28   0.29  -0.21    -0.17   0.18  -0.14
   5  16     0.01  -0.02  -0.03    -0.06   0.06   0.21    -0.04   0.05   0.16
   6   8     0.08   0.11  -0.03     0.01  -0.28   0.05    -0.01  -0.18   0.02
   7   6    -0.01  -0.03   0.01    -0.01   0.04  -0.08    -0.01   0.02  -0.06
   8   6     0.00  -0.03  -0.03    -0.01   0.06   0.05    -0.00   0.03   0.03
   9  16    -0.23   0.37  -0.07     0.19  -0.19   0.04     0.12  -0.18  -0.00
  10   6    -0.02   0.02   0.03     0.00  -0.06  -0.04    -0.01   0.02  -0.01
  11  16    -0.04  -0.07  -0.03     0.15  -0.07  -0.16    -0.24   0.17   0.26
  12  15     0.01  -0.01  -0.05    -0.15   0.05   0.34     0.24  -0.05  -0.52
  13  16    -0.00   0.02   0.00    -0.05   0.11  -0.06     0.09  -0.23   0.10
  14   8    -0.04  -0.02   0.00     0.18   0.01   0.05    -0.28  -0.00  -0.07
  15   6     0.01   0.00   0.01    -0.05   0.01  -0.02     0.06  -0.01   0.04
  16   6     0.01   0.01   0.02    -0.03  -0.04  -0.07     0.05   0.05   0.09
  17   8     0.02  -0.01   0.01    -0.02  -0.06  -0.05     0.03   0.13   0.06
  18   6     0.01   0.00   0.02    -0.04  -0.01  -0.07     0.05   0.01   0.11
  19   6     0.00   0.00  -0.00     0.00  -0.00   0.01    -0.01  -0.00  -0.01
  20   1    -0.10   0.17  -0.05    -0.05   0.06  -0.02    -0.03   0.03  -0.01
  21   1     0.17   0.09   0.07     0.08   0.04   0.02     0.04   0.02   0.01
  22   1    -0.11   0.21  -0.04    -0.05   0.11  -0.01    -0.03   0.05  -0.01
  23   1    -0.07  -0.03   0.02    -0.03   0.05   0.05    -0.02   0.03   0.03
  24   1    -0.10  -0.10  -0.02    -0.08  -0.07   0.01    -0.04  -0.04   0.01
  25   1    -0.02  -0.01  -0.02     0.00   0.02   0.00     0.00   0.01   0.00
  26   1    -0.01  -0.01   0.02    -0.00   0.02  -0.02     0.00   0.01  -0.02
  27   1    -0.00  -0.02  -0.02    -0.00   0.05   0.04    -0.00   0.03   0.03
  28   1    -0.00  -0.02  -0.01    -0.01   0.05   0.04    -0.00   0.03   0.02
  29   1     0.01   0.01  -0.02     0.01  -0.04   0.04     0.00  -0.03   0.02
  30   1     0.02  -0.01   0.03    -0.02   0.03  -0.04    -0.01  -0.04  -0.00
  31   1    -0.01  -0.02  -0.04    -0.01  -0.00   0.05     0.02   0.03  -0.01
  32   1     0.00   0.00   0.01    -0.00   0.00  -0.03     0.00  -0.00   0.05
  33   1     0.01   0.00   0.01    -0.03   0.01  -0.01     0.04  -0.01   0.02
  34   1    -0.00  -0.00   0.01     0.02  -0.00  -0.01    -0.03   0.01   0.01
  35   1     0.01   0.01   0.01    -0.02  -0.02  -0.04     0.02   0.03   0.06
  36   1     0.00   0.01   0.01    -0.01  -0.02  -0.04     0.02   0.02   0.04
  37   1     0.00   0.00   0.01    -0.01  -0.00  -0.02     0.01  -0.00   0.02
  38   1     0.00   0.00   0.00    -0.01  -0.00  -0.02     0.02   0.00   0.03
  39   1    -0.00  -0.00  -0.00     0.01   0.01   0.01    -0.03  -0.02  -0.01
  40   1    -0.00  -0.00  -0.00     0.02   0.01   0.01    -0.03  -0.01  -0.01
  41   1     0.00   0.00  -0.01    -0.01  -0.02   0.02     0.02   0.03  -0.04
                     40                     41                     42
                        a                      a                      a 
 Frequencies --   625.6044               632.0322               669.3021
 Red. masses --    24.0922                25.3743                18.2061
 Frc consts  --     0.0000                 0.0000                 0.0000
 IR Inten    --   213.4385                36.1511                 6.8593
 Raman Activ --     0.0000                 0.0000                 0.0000
 Depolar     --     0.0000                 0.0000                 0.0000
 Atom AN      X      Y      Z        X      Y      Z        X      Y      Z
   1   6    -0.01   0.02  -0.01    -0.01   0.02  -0.00    -0.00   0.00   0.00
   2   6     0.07   0.20  -0.01     0.06   0.17  -0.01     0.00   0.01   0.00
   3   8     0.17   0.11  -0.27     0.14   0.09  -0.23    -0.00  -0.01  -0.01
   4  15     0.19  -0.36  -0.06     0.16  -0.31  -0.03    -0.00  -0.04  -0.03
   5  16    -0.15   0.17   0.31    -0.12   0.13   0.23    -0.01   0.01   0.02
   6   8    -0.23  -0.11  -0.00    -0.17  -0.07  -0.00     0.02   0.03   0.00
   7   6    -0.02  -0.01  -0.09    -0.01  -0.01  -0.06     0.00  -0.00   0.02
   8   6     0.01  -0.00  -0.00     0.00  -0.00  -0.00    -0.00  -0.00  -0.00
   9  16    -0.06   0.01  -0.05    -0.04   0.06  -0.01     0.16   0.12   0.30
  10   6     0.07   0.14   0.06    -0.01  -0.05   0.05    -0.00   0.38  -0.67
  11  16    -0.06  -0.03   0.05     0.07  -0.03  -0.08    -0.15  -0.39   0.15
  12  15     0.22  -0.28  -0.11    -0.30   0.36   0.16    -0.02   0.07   0.02
  13  16    -0.16   0.32  -0.07     0.20  -0.39   0.09     0.02  -0.04   0.01
  14   8     0.13  -0.02   0.11    -0.16   0.03  -0.14    -0.01   0.01  -0.00
  15   6    -0.06   0.03   0.09     0.07  -0.03  -0.11     0.01  -0.01  -0.02
  16   6     0.00   0.01   0.01    -0.01  -0.01  -0.01    -0.00  -0.00  -0.00
  17   8    -0.10  -0.12   0.08     0.12   0.15  -0.11    -0.01  -0.03   0.00
  18   6    -0.04  -0.00  -0.08     0.05   0.00   0.10    -0.00  -0.00  -0.01
  19   6     0.01   0.01  -0.00    -0.01  -0.01   0.00     0.00  -0.00  -0.00
  20   1     0.01  -0.04   0.02     0.00  -0.03   0.01     0.00  -0.00   0.00
  21   1    -0.08   0.00  -0.04    -0.07   0.00  -0.04    -0.00   0.00  -0.00
  22   1     0.03  -0.03   0.02     0.03  -0.03   0.02     0.00  -0.00   0.00
  23   1     0.02   0.11   0.03     0.01   0.09   0.03     0.00   0.00   0.00
  24   1    -0.01  -0.00   0.02    -0.01  -0.00   0.01     0.00   0.00   0.00
  25   1     0.03   0.01   0.04     0.02   0.00   0.03     0.00  -0.00   0.00
  26   1     0.03   0.01  -0.08     0.02   0.01  -0.06    -0.00   0.00   0.01
  27   1     0.00   0.02   0.02     0.00   0.01   0.01     0.00  -0.01  -0.00
  28   1     0.00   0.03   0.01     0.00   0.02   0.01     0.00  -0.00  -0.01
  29   1     0.01  -0.04   0.02     0.00  -0.03   0.01    -0.01   0.01  -0.00
  30   1     0.02   0.00   0.03     0.00   0.02   0.01     0.01   0.09  -0.16
  31   1     0.02   0.02  -0.02    -0.01  -0.03   0.01    -0.03   0.08  -0.14
  32   1    -0.01   0.00  -0.01     0.01  -0.00   0.01     0.00  -0.00  -0.00
  33   1    -0.03   0.02   0.02     0.04  -0.02  -0.03     0.00  -0.00  -0.00
  34   1     0.05   0.01   0.01    -0.07  -0.02  -0.01    -0.01  -0.00  -0.00
  35   1    -0.00  -0.01  -0.03     0.01   0.02   0.03     0.00   0.00   0.00
  36   1    -0.01  -0.01  -0.03     0.01   0.02   0.04    -0.00   0.00   0.00
  37   1     0.00   0.01  -0.01    -0.00  -0.01   0.01     0.00   0.00   0.00
  38   1    -0.01   0.01  -0.02     0.01  -0.01   0.03    -0.00   0.00  -0.01
  39   1     0.03   0.02   0.01    -0.04  -0.02  -0.01     0.00   0.00   0.00
  40   1     0.03   0.02   0.01    -0.04  -0.02  -0.01     0.01   0.00   0.00
  41   1    -0.02  -0.03   0.04     0.03   0.03  -0.05    -0.00  -0.00   0.01
                     43                     44                     45
                        a                      a                      a 
 Frequencies --   700.2836               733.0876               754.5158
 Red. masses --    16.5460                19.5096                23.8611
 Frc consts  --     0.0000                 0.0000                 0.0000
 IR Inten    --    55.3208               269.5093               180.3352
 Raman Activ --     0.0000                 0.0000                 0.0000
 Depolar     --     0.0000                 0.0000                 0.0000
 Atom AN      X      Y      Z        X      Y      Z        X      Y      Z
   1   6     0.01  -0.02   0.01     0.03  -0.04   0.02    -0.03   0.04  -0.01
   2   6    -0.02  -0.07   0.01    -0.07  -0.15   0.03     0.06   0.13  -0.03
   3   8    -0.06  -0.03   0.10    -0.19  -0.06   0.27     0.15   0.01  -0.24
   4  15     0.04   0.14  -0.04     0.52   0.30  -0.14    -0.08   0.21   0.67
   5  16     0.01  -0.01  -0.01    -0.06   0.03   0.08     0.13  -0.16  -0.30
   6   8    -0.03  -0.03  -0.00    -0.42  -0.16   0.05    -0.24  -0.10   0.04
   7   6    -0.01   0.00  -0.02    -0.08  -0.03  -0.27    -0.06  -0.03  -0.28
   8   6     0.00  -0.00  -0.00     0.02  -0.06  -0.05     0.01  -0.07  -0.05
   9  16    -0.15  -0.18  -0.30     0.02   0.05   0.07     0.02  -0.03  -0.01
  10   6     0.43   0.59   0.32    -0.08  -0.09  -0.07     0.01   0.04  -0.04
  11  16    -0.08  -0.27   0.05     0.02   0.03  -0.01    -0.01  -0.02   0.01
  12  15    -0.04   0.07   0.07     0.03   0.01   0.03    -0.03   0.01  -0.04
  13  16     0.02  -0.04   0.01    -0.00   0.01  -0.00     0.01  -0.01   0.00
  14   8    -0.04   0.01  -0.03    -0.03   0.01  -0.02     0.04  -0.02   0.02
  15   6     0.02  -0.01  -0.04     0.01  -0.01  -0.02    -0.02   0.01   0.03
  16   6    -0.00  -0.00  -0.01    -0.00  -0.00  -0.00     0.00   0.00   0.01
  17   8     0.01  -0.00  -0.02    -0.01  -0.02   0.01     0.00   0.01  -0.01
  18   6     0.01  -0.00   0.01    -0.01  -0.00  -0.01     0.00   0.00   0.01
  19   6     0.00   0.00   0.00    -0.00  -0.00  -0.00     0.00   0.00   0.00
  20   1    -0.00   0.01  -0.00     0.02   0.03  -0.01    -0.02  -0.03   0.01
  21   1     0.03  -0.00   0.02     0.09  -0.01   0.04    -0.07   0.01  -0.03
  22   1    -0.01   0.01  -0.01    -0.03   0.03  -0.03     0.03  -0.03   0.03
  23   1    -0.01  -0.04  -0.01    -0.03  -0.13  -0.07     0.03   0.11   0.07
  24   1     0.01   0.00  -0.01     0.04   0.03  -0.02    -0.05  -0.03   0.02
  25   1     0.00   0.00  -0.00     0.07  -0.02   0.07     0.04  -0.00   0.02
  26   1     0.00   0.00  -0.02     0.06   0.05  -0.20     0.02   0.04  -0.13
  27   1     0.00   0.00   0.01     0.03   0.01   0.05     0.02   0.01   0.05
  28   1    -0.00   0.00   0.01     0.01   0.10   0.03     0.00   0.08   0.03
  29   1     0.01  -0.02   0.01     0.04  -0.15   0.04     0.04  -0.15   0.04
  30   1     0.04   0.17   0.01    -0.00  -0.03   0.00    -0.01   0.02  -0.02
  31   1     0.05   0.12   0.15    -0.01  -0.02  -0.04    -0.00   0.02   0.02
  32   1     0.00  -0.00   0.00    -0.00  -0.00   0.00     0.00   0.00  -0.00
  33   1     0.01  -0.01  -0.01     0.01  -0.01  -0.00    -0.02   0.01   0.01
  34   1    -0.03  -0.01  -0.01    -0.01  -0.00  -0.00     0.02   0.01   0.01
  35   1     0.00   0.00   0.01    -0.00  -0.00   0.00     0.00  -0.00  -0.01
  36   1     0.01   0.01   0.01     0.01  -0.00   0.00    -0.01  -0.00  -0.01
  37   1     0.00  -0.00   0.00     0.00   0.00   0.00    -0.00  -0.00   0.00
  38   1    -0.00   0.00   0.00    -0.00   0.00  -0.00     0.00  -0.00   0.00
  39   1    -0.00  -0.00   0.00     0.00   0.00   0.00    -0.00  -0.00  -0.00
  40   1    -0.00  -0.00  -0.00     0.01   0.00   0.00    -0.00  -0.00  -0.00
  41   1     0.00   0.00  -0.00    -0.01  -0.01   0.01     0.00   0.00  -0.00
                     46                     47                     48
                        a                      a                      a 
 Frequencies --   762.6968               784.9984               804.8244
 Red. masses --    17.3824                19.9193                 5.8758
 Frc consts  --     0.0000                 0.0000                 0.0000
 IR Inten    --   164.1957               284.0315                 5.6531
 Raman Activ --     0.0000                 0.0000                 0.0000
 Depolar     --     0.0000                 0.0000                 0.0000
 Atom AN      X      Y      Z        X      Y      Z        X      Y      Z
   1   6    -0.01   0.01  -0.00    -0.00   0.00  -0.00    -0.00   0.00  -0.00
   2   6     0.01   0.02  -0.01     0.01   0.01  -0.01     0.00   0.00  -0.00
   3   8     0.03   0.01  -0.04     0.01   0.01  -0.01    -0.00  -0.01  -0.00
   4  15    -0.05  -0.01   0.06    -0.01   0.00   0.03    -0.01   0.04   0.02
   5  16     0.01  -0.01  -0.02     0.00  -0.01  -0.01     0.00  -0.00  -0.00
   6   8     0.01   0.00  -0.00    -0.01  -0.00   0.00     0.02  -0.01  -0.01
   7   6    -0.00  -0.00  -0.00    -0.00  -0.00  -0.01     0.01   0.01   0.01
   8   6    -0.00   0.00   0.00    -0.00  -0.00  -0.00     0.00   0.00   0.00
   9  16     0.01  -0.00  -0.00     0.01   0.01   0.02     0.09  -0.10  -0.06
  10   6    -0.02  -0.04   0.02     0.01   0.01  -0.05    -0.43   0.29   0.16
  11  16     0.01   0.03  -0.02    -0.03   0.01   0.01     0.10  -0.11  -0.04
  12  15     0.42   0.22   0.25     0.09  -0.52   0.33    -0.01   0.02   0.03
  13  16    -0.02   0.02  -0.01    -0.10   0.19  -0.04    -0.00   0.01  -0.00
  14   8    -0.37   0.13  -0.15    -0.28   0.16  -0.13    -0.00   0.00  -0.01
  15   6     0.15  -0.05  -0.25     0.11  -0.03  -0.19     0.00   0.00   0.00
  16   6    -0.00  -0.04  -0.08    -0.00  -0.04  -0.07    -0.00  -0.00  -0.00
  17   8    -0.17  -0.34   0.24     0.11   0.32  -0.26     0.00   0.01  -0.03
  18   6    -0.10  -0.03  -0.21     0.09   0.04   0.19     0.02  -0.00   0.02
  19   6    -0.05  -0.02  -0.04     0.05   0.02   0.05     0.01   0.00   0.00
  20   1    -0.01  -0.00   0.00    -0.01   0.00  -0.00    -0.01   0.00  -0.00
  21   1    -0.01   0.00  -0.01    -0.00   0.00   0.00    -0.00   0.00   0.00
  22   1     0.01  -0.00   0.01     0.01  -0.00   0.01     0.00  -0.00   0.01
  23   1     0.01   0.02   0.01     0.01   0.01   0.01     0.00   0.00   0.01
  24   1    -0.01  -0.01   0.00    -0.01  -0.00   0.00    -0.01  -0.00   0.00
  25   1     0.00  -0.00  -0.00     0.00  -0.00   0.00    -0.01   0.01  -0.01
  26   1    -0.00   0.00   0.00     0.00   0.00  -0.00    -0.01  -0.02   0.01
  27   1     0.00  -0.00  -0.00     0.00  -0.00   0.00    -0.01   0.01  -0.00
  28   1     0.00   0.00  -0.00     0.00   0.01   0.00    -0.00  -0.02   0.00
  29   1     0.00   0.00  -0.00     0.00  -0.00   0.00    -0.00   0.00   0.00
  30   1    -0.00  -0.01   0.01    -0.00  -0.00  -0.02     0.24  -0.28   0.43
  31   1     0.00  -0.00  -0.00    -0.00  -0.00   0.00     0.17   0.13  -0.53
  32   1    -0.03  -0.03   0.05    -0.04  -0.04   0.05     0.00   0.00   0.00
  33   1     0.13  -0.06  -0.04     0.14  -0.06  -0.02    -0.00  -0.00  -0.00
  34   1    -0.19  -0.07  -0.05    -0.16  -0.06  -0.04    -0.00  -0.00  -0.00
  35   1    -0.01   0.01   0.08    -0.02  -0.00   0.06     0.00   0.00   0.00
  36   1     0.07   0.05   0.10     0.07   0.04   0.09    -0.00   0.00  -0.00
  37   1     0.00   0.03   0.02     0.01  -0.03  -0.03    -0.00  -0.00   0.01
  38   1    -0.01   0.05  -0.08     0.00  -0.06   0.08    -0.00   0.00  -0.00
  39   1     0.06   0.05   0.04    -0.05  -0.05  -0.04    -0.01  -0.01   0.00
  40   1     0.09   0.06   0.01    -0.10  -0.07  -0.00    -0.00   0.00  -0.00
  41   1    -0.11  -0.10   0.12     0.11   0.09  -0.12     0.01   0.01  -0.01
                     49                     50                     51
                        a                      a                      a 
 Frequencies --   820.8724               826.6782               828.3345
 Red. masses --     2.6948                 2.8894                 2.3207
 Frc consts  --     0.0000                 0.0000                 0.0000
 IR Inten    --     1.0680                 2.6688                 3.8308
 Raman Activ --     0.0000                 0.0000                 0.0000
 Depolar     --     0.0000                 0.0000                 0.0000
 Atom AN      X      Y      Z        X      Y      Z        X      Y      Z
   1   6    -0.06   0.02   0.10     0.01  -0.00  -0.01     0.00  -0.00  -0.00
   2   6    -0.12   0.05   0.24     0.01  -0.01  -0.03     0.00  -0.00  -0.00
   3   8     0.10  -0.03  -0.15    -0.01   0.01   0.01    -0.00   0.00   0.00
   4  15    -0.05  -0.01   0.06    -0.04  -0.03  -0.02     0.00   0.00   0.00
   5  16     0.01  -0.01  -0.01    -0.00   0.01   0.01    -0.00  -0.00  -0.00
   6   8     0.02   0.00  -0.00     0.15   0.02  -0.05    -0.00  -0.00   0.00
   7   6    -0.01  -0.00   0.00    -0.19  -0.03   0.06     0.00   0.00  -0.00
   8   6    -0.01   0.00   0.00    -0.09   0.01   0.02     0.00  -0.00  -0.00
   9  16     0.00  -0.00  -0.01    -0.00  -0.01  -0.01     0.00  -0.00  -0.00
  10   6    -0.00   0.01   0.00    -0.01   0.01   0.01    -0.01   0.00   0.01
  11  16     0.00  -0.00   0.00     0.00  -0.00   0.00     0.00  -0.00  -0.00
  12  15    -0.00  -0.00   0.00    -0.04   0.03  -0.04     0.01   0.06  -0.03
  13  16    -0.00   0.00  -0.00     0.01  -0.01   0.00     0.00  -0.01   0.00
  14   8     0.00  -0.01  -0.00     0.08  -0.10   0.01     0.00  -0.01   0.01
  15   6    -0.00   0.03  -0.01    -0.05   0.17  -0.03    -0.00   0.01  -0.00
  16   6    -0.00   0.01  -0.00    -0.02   0.08  -0.01    -0.00   0.01  -0.00
  17   8     0.00   0.00  -0.00    -0.00  -0.00   0.00     0.05  -0.12   0.04
  18   6    -0.00   0.00   0.00     0.00  -0.01  -0.00    -0.16   0.20   0.03
  19   6    -0.00   0.00   0.00     0.00  -0.00  -0.00    -0.07   0.09   0.01
  20   1     0.43  -0.08   0.04    -0.04   0.01  -0.00    -0.01   0.00  -0.00
  21   1     0.05   0.00  -0.15    -0.00  -0.00   0.02    -0.00  -0.00   0.00
  22   1    -0.26   0.07  -0.33     0.03  -0.01   0.03     0.00  -0.00   0.00
  23   1    -0.26  -0.06  -0.40     0.03   0.01   0.04     0.00   0.00   0.01
  24   1     0.47   0.08   0.03    -0.05  -0.01  -0.00    -0.01  -0.00  -0.00
  25   1     0.01  -0.02   0.01     0.21  -0.26   0.15    -0.00   0.01  -0.00
  26   1     0.01   0.02  -0.01     0.10   0.30  -0.14    -0.00  -0.01   0.00
  27   1     0.01  -0.02   0.00     0.18  -0.28   0.03    -0.00   0.01  -0.00
  28   1     0.01   0.02  -0.00     0.08   0.30  -0.05    -0.00  -0.01   0.00
  29   1     0.01   0.00  -0.00     0.11   0.07  -0.01    -0.00  -0.00   0.00
  30   1     0.00  -0.00   0.01     0.01  -0.01   0.01     0.00  -0.00   0.01
  31   1     0.01   0.01  -0.01     0.01   0.01  -0.01     0.00   0.00  -0.01
  32   1    -0.04  -0.02   0.01    -0.27  -0.16   0.05    -0.02  -0.01   0.00
  33   1     0.04  -0.01   0.01     0.28  -0.08   0.09     0.02  -0.01   0.01
  34   1     0.00  -0.01   0.01     0.06  -0.07   0.06     0.00  -0.01   0.01
  35   1    -0.03  -0.03  -0.01    -0.22  -0.19  -0.06    -0.02  -0.02  -0.00
  36   1     0.03  -0.00   0.02     0.23  -0.02   0.13     0.02  -0.00   0.01
  37   1     0.00   0.00  -0.00    -0.01  -0.00   0.01     0.29   0.05  -0.40
  38   1    -0.00  -0.00   0.00     0.00   0.01  -0.01    -0.06  -0.41   0.26
  39   1     0.00   0.00  -0.00    -0.01  -0.00   0.01     0.36   0.11  -0.25
  40   1    -0.00  -0.00   0.00     0.01   0.01  -0.00    -0.15  -0.36   0.16
  41   1     0.00  -0.00  -0.00    -0.00   0.00   0.00     0.05  -0.15  -0.02
                     52                     53                     54
                        a                      a                      a 
 Frequencies --   831.0492               911.7760               919.4427
 Red. masses --     2.8401                13.4116                13.8652
 Frc consts  --     0.0000                 0.0000                 0.0000
 IR Inten    --     2.2618               507.6852               305.9630
 Raman Activ --     0.0000                 0.0000                 0.0000
 Depolar     --     0.0000                 0.0000                 0.0000
 Atom AN      X      Y      Z        X      Y      Z        X      Y      Z
   1   6     0.00  -0.00  -0.00    -0.07   0.13  -0.04    -0.03   0.05  -0.02
   2   6     0.00   0.00  -0.00     0.05   0.18   0.04     0.02   0.07   0.02
   3   8    -0.00  -0.01   0.01    -0.00  -0.32   0.05    -0.00  -0.14   0.03
   4  15     0.04   0.03   0.01     0.15   0.15   0.10     0.04   0.04   0.01
   5  16    -0.00  -0.00  -0.01     0.01  -0.00  -0.00     0.00  -0.00  -0.00
   6   8    -0.13  -0.02   0.04    -0.12  -0.31  -0.53    -0.02  -0.06  -0.10
   7   6     0.17   0.03  -0.05    -0.03   0.00   0.33    -0.01  -0.00   0.06
   8   6     0.08  -0.01  -0.02    -0.03   0.18   0.13    -0.01   0.03   0.03
   9  16     0.00   0.00   0.01     0.00   0.01   0.00    -0.00   0.00  -0.01
  10   6     0.01  -0.01  -0.01     0.01  -0.01  -0.02    -0.01   0.01   0.01
  11  16    -0.00   0.00   0.01    -0.01   0.00   0.01     0.00  -0.01  -0.01
  12  15    -0.04   0.03  -0.04     0.04   0.01   0.04    -0.18  -0.08  -0.16
  13  16     0.01  -0.01   0.00    -0.00   0.00  -0.00     0.00  -0.01   0.00
  14   8     0.08  -0.12   0.00    -0.01  -0.05  -0.14     0.03   0.18   0.53
  15   6    -0.06   0.21  -0.04    -0.04   0.03   0.06     0.16  -0.12  -0.21
  16   6    -0.01   0.08  -0.01     0.01   0.02   0.04    -0.05  -0.08  -0.16
  17   8    -0.00  -0.00   0.00    -0.08  -0.04  -0.04     0.36   0.21   0.18
  18   6     0.01  -0.01  -0.00     0.03   0.00   0.05    -0.13   0.00  -0.21
  19   6     0.00  -0.00  -0.00     0.03   0.02   0.01    -0.13  -0.07  -0.04
  20   1    -0.02   0.00  -0.00     0.02  -0.05   0.02     0.01  -0.02   0.01
  21   1    -0.00  -0.00   0.00    -0.18   0.02  -0.09    -0.08   0.01  -0.04
  22   1     0.01  -0.00   0.01     0.03  -0.05   0.01     0.01  -0.02   0.01
  23   1     0.01  -0.00   0.01     0.05  -0.02   0.03     0.02  -0.01   0.01
  24   1    -0.02  -0.00  -0.00     0.02  -0.01   0.03     0.01  -0.00   0.01
  25   1    -0.18   0.22  -0.13    -0.02  -0.04   0.02    -0.00  -0.01   0.00
  26   1    -0.09  -0.27   0.13     0.02  -0.10  -0.03     0.00  -0.02  -0.01
  27   1    -0.16   0.25  -0.02    -0.01  -0.04  -0.05    -0.00  -0.01  -0.01
  28   1    -0.07  -0.26   0.04     0.01  -0.07  -0.05     0.00  -0.01  -0.01
  29   1    -0.09  -0.06   0.01    -0.06   0.28  -0.05    -0.01   0.05  -0.01
  30   1    -0.00   0.01  -0.01    -0.01   0.01  -0.01     0.01   0.00   0.01
  31   1    -0.00  -0.00   0.01    -0.01  -0.00   0.01     0.00   0.00  -0.01
  32   1    -0.31  -0.19   0.05    -0.00   0.01  -0.00     0.02  -0.03  -0.00
  33   1     0.33  -0.09   0.11    -0.02  -0.01  -0.02     0.07   0.04   0.07
  34   1     0.07  -0.07   0.07     0.05   0.02   0.02    -0.22  -0.09  -0.07
  35   1    -0.26  -0.22  -0.06     0.00  -0.00  -0.01    -0.01   0.00   0.05
  36   1     0.26  -0.03   0.14    -0.02  -0.01  -0.02     0.05   0.04   0.07
  37   1    -0.02  -0.00   0.02     0.00  -0.00   0.00    -0.00   0.02  -0.02
  38   1     0.00   0.02  -0.01    -0.01  -0.01   0.01     0.05   0.04  -0.02
  39   1    -0.02  -0.00   0.01    -0.01  -0.01  -0.01     0.03   0.03   0.03
  40   1     0.01   0.02  -0.01    -0.01  -0.01  -0.00     0.06   0.03   0.01
  41   1    -0.00   0.01   0.00     0.03   0.02  -0.03    -0.13  -0.11   0.12
                     55                     56                     57
                        a                      a                      a 
 Frequencies --   927.7933               946.5807              1032.3112
 Red. masses --    11.7542                12.5092                 8.2227
 Frc consts  --     0.0000                 0.0000                 0.0000
 IR Inten    --   138.4100               137.0222               175.8876
 Raman Activ --     0.0000                 0.0000                 0.0000
 Depolar     --     0.0000                 0.0000                 0.0000
 Atom AN      X      Y      Z        X      Y      Z        X      Y      Z
   1   6    -0.17   0.25  -0.09    -0.01   0.01  -0.00    -0.06   0.08  -0.03
   2   6     0.12   0.28   0.09     0.01   0.00   0.00     0.05  -0.12   0.03
   3   8    -0.02  -0.56   0.13    -0.00  -0.01   0.00     0.01   0.07   0.01
   4  15    -0.02   0.01  -0.17    -0.00  -0.00  -0.00    -0.00  -0.00  -0.00
   5  16    -0.01   0.00   0.01    -0.00  -0.00  -0.00    -0.00  -0.01  -0.01
   6   8     0.11   0.21   0.29     0.01   0.01   0.02    -0.01   0.05   0.28
   7   6     0.02   0.02  -0.17     0.00   0.00  -0.01     0.08  -0.41  -0.37
   8   6     0.02  -0.12  -0.09     0.00  -0.01  -0.01    -0.06   0.37   0.22
   9  16    -0.01   0.01  -0.02     0.00  -0.00  -0.00    -0.00  -0.00  -0.00
  10   6     0.01   0.00   0.02     0.00   0.02  -0.01    -0.00   0.00   0.00
  11  16     0.00   0.00  -0.00    -0.01  -0.01   0.02     0.00  -0.00  -0.00
  12  15     0.02   0.01   0.01    -0.01  -0.15   0.15     0.00   0.00   0.00
  13  16    -0.00   0.00  -0.00    -0.01   0.01  -0.00     0.00  -0.00   0.00
  14   8    -0.00  -0.01  -0.04    -0.09  -0.15  -0.44    -0.01   0.01   0.02
  15   6    -0.01   0.01   0.02    -0.13   0.08   0.12    -0.02  -0.03  -0.04
  16   6     0.00   0.01   0.01     0.05   0.08   0.15     0.02   0.02   0.03
  17   8    -0.05  -0.03  -0.03     0.44   0.27   0.21     0.00  -0.00   0.00
  18   6     0.02  -0.00   0.03    -0.10   0.03  -0.23    -0.01  -0.01  -0.00
  19   6     0.02   0.01   0.01    -0.22  -0.12  -0.07     0.01   0.01   0.00
  20   1     0.02  -0.09   0.03     0.00  -0.00   0.00     0.00  -0.03   0.01
  21   1    -0.35   0.05  -0.18    -0.01   0.00  -0.01    -0.10   0.01  -0.05
  22   1     0.05  -0.09   0.02    -0.00  -0.00  -0.00     0.01  -0.03  -0.00
  23   1     0.10  -0.06   0.06     0.00  -0.00   0.00     0.03  -0.05   0.02
  24   1     0.05  -0.02   0.05     0.00  -0.00   0.00     0.03  -0.03   0.01
  25   1     0.01   0.01  -0.02     0.00   0.00  -0.00     0.06  -0.18  -0.10
  26   1    -0.02   0.08   0.03    -0.00   0.01   0.00     0.02  -0.19  -0.11
  27   1     0.01   0.02   0.04     0.00   0.00   0.00    -0.02  -0.05  -0.11
  28   1    -0.01   0.05   0.03    -0.00   0.00   0.00     0.04  -0.06  -0.11
  29   1     0.05  -0.18   0.03     0.00  -0.01   0.00    -0.09   0.46  -0.09
  30   1    -0.00  -0.00   0.00     0.01   0.00   0.01    -0.00  -0.00   0.00
  31   1     0.01   0.00   0.00     0.00   0.00  -0.01     0.01   0.01   0.00
  32   1    -0.00   0.00  -0.00    -0.02   0.01  -0.00    -0.01  -0.01  -0.02
  33   1    -0.01  -0.00  -0.00    -0.05  -0.05  -0.07    -0.01  -0.01  -0.02
  34   1     0.02   0.01   0.00     0.20   0.08   0.06     0.04   0.01   0.01
  35   1     0.00   0.00  -0.00     0.01  -0.00  -0.05     0.01   0.00  -0.01
  36   1    -0.00  -0.00  -0.00    -0.04  -0.04  -0.06     0.01  -0.01  -0.00
  37   1    -0.00  -0.00   0.00     0.04   0.05  -0.02    -0.01  -0.00  -0.00
  38   1    -0.01  -0.01   0.00     0.09   0.06  -0.02    -0.01  -0.00  -0.00
  39   1    -0.01  -0.00  -0.00     0.07   0.05   0.04    -0.00  -0.00  -0.00
  40   1    -0.01  -0.01  -0.00     0.10   0.04   0.02    -0.00  -0.00  -0.00
  41   1     0.02   0.02  -0.02    -0.21  -0.19   0.19     0.01   0.01  -0.01
                     58                     59                     60
                        a                      a                      a 
 Frequencies --  1033.4270              1046.2348              1049.6645
 Red. masses --     8.2048                 9.3077                 9.5664
 Frc consts  --     0.0000                 0.0000                 0.0000
 IR Inten    --   128.2332               154.4362                91.0722
 Raman Activ --     0.0000                 0.0000                 0.0000
 Depolar     --     0.0000                 0.0000                 0.0000
 Atom AN      X      Y      Z        X      Y      Z        X      Y      Z
   1   6     0.00  -0.00   0.00     0.22  -0.29   0.13     0.00  -0.00   0.00
   2   6    -0.00   0.01  -0.00    -0.22   0.54  -0.13    -0.00   0.00  -0.00
   3   8    -0.00  -0.01   0.00    -0.05  -0.38   0.00     0.00  -0.00  -0.00
   4  15     0.00  -0.00  -0.00    -0.01   0.01  -0.01    -0.00  -0.00  -0.00
   5  16    -0.00  -0.00  -0.00     0.00  -0.00  -0.01     0.00   0.00   0.00
   6   8    -0.00   0.01   0.04     0.02   0.04   0.08    -0.00  -0.00  -0.00
   7   6     0.01  -0.04  -0.04     0.03  -0.10  -0.10     0.00  -0.00   0.00
   8   6    -0.01   0.04   0.02    -0.02   0.08   0.05    -0.00   0.00  -0.00
   9  16    -0.00   0.00   0.00    -0.01   0.01  -0.01    -0.00   0.00   0.00
  10   6     0.00   0.00  -0.00     0.00  -0.00   0.01     0.00  -0.00   0.00
  11  16    -0.00   0.00   0.01     0.00   0.00  -0.00     0.01   0.00  -0.01
  12  15    -0.01   0.00  -0.02     0.00  -0.00   0.00    -0.01  -0.00  -0.02
  13  16     0.00  -0.00   0.00    -0.00   0.00  -0.00    -0.00   0.00  -0.00
  14   8     0.14  -0.12  -0.20    -0.01   0.00   0.00    -0.01   0.07   0.13
  15   6     0.11   0.29   0.45    -0.02  -0.01  -0.01    -0.03  -0.11  -0.16
  16   6    -0.18  -0.22  -0.33     0.02   0.01   0.01     0.06   0.07   0.08
  17   8    -0.04   0.00  -0.06     0.00   0.00   0.00    -0.22  -0.04  -0.25
  18   6     0.15   0.07   0.05    -0.01  -0.00  -0.00     0.52   0.25   0.15
  19   6    -0.12  -0.07  -0.01     0.01   0.00  -0.00    -0.36  -0.22   0.02
  20   1    -0.00   0.00  -0.00     0.01   0.10  -0.03     0.00   0.00  -0.00
  21   1     0.00  -0.00   0.00     0.36  -0.05   0.20     0.00  -0.00   0.00
  22   1     0.00   0.00   0.00    -0.02   0.11   0.02     0.00   0.00   0.00
  23   1    -0.00   0.00  -0.00    -0.10   0.18  -0.06     0.00   0.00   0.00
  24   1    -0.00   0.00  -0.00    -0.14   0.14  -0.04     0.00   0.00   0.00
  25   1     0.01  -0.02  -0.01     0.01  -0.05  -0.04    -0.00   0.00   0.00
  26   1     0.00  -0.02  -0.01    -0.00  -0.03  -0.01    -0.00  -0.00   0.00
  27   1    -0.00  -0.01  -0.01    -0.00  -0.02  -0.02    -0.00   0.00   0.00
  28   1     0.00  -0.01  -0.01     0.01  -0.00  -0.02    -0.00   0.00   0.00
  29   1    -0.01   0.05  -0.01    -0.01   0.10  -0.02    -0.00  -0.00   0.00
[...]
  33   1    -0.44  -0.64   0.55     0.07   0.10  -0.09     0.00   0.00  -0.00
  34   1     0.00  -0.01  -0.01    -0.00   0.00   0.00    -0.00   0.00   0.00
  35   1    -0.01   0.00   0.00     0.01  -0.01   0.00     0.00  -0.00   0.00
  36   1     0.03   0.05  -0.04     0.00   0.00  -0.00     0.00   0.00  -0.00
  37   1     0.00  -0.00   0.00    -0.00   0.00  -0.00     0.00  -0.00   0.00
  38   1    -0.01   0.01   0.01     0.00  -0.00  -0.00    -0.00   0.00   0.00
  39   1    -0.00   0.00   0.00    -0.00   0.00  -0.00    -0.00   0.00  -0.00
  40   1     0.00  -0.00  -0.00     0.00   0.00   0.00     0.00  -0.00  -0.00
  41   1    -0.00  -0.00  -0.00    -0.00  -0.00  -0.00     0.00   0.00   0.00
                    103                    104                    105
                        a                      a                      a 
 Frequencies --  2971.9329              2975.7619              2984.7248
 Red. masses --     1.4665                 1.7151                 2.0630
 Frc consts  --     0.0000                 0.0000                 0.0000
 IR Inten    --     0.2202                11.9982                 8.7861
 Raman Activ --     0.0000                 0.0000                 0.0000
 Depolar     --     0.0000                 0.0000                 0.0000
 Atom AN      X      Y      Z        X      Y      Z        X      Y      Z
   1   6    -0.00  -0.00   0.00    -0.02  -0.01   0.02    -0.00  -0.00  -0.00
   2   6    -0.00  -0.00  -0.00     0.21   0.08  -0.11     0.00   0.00   0.00
   3   8    -0.00   0.00  -0.00     0.00   0.01  -0.00    -0.00  -0.00   0.00
   4  15     0.00  -0.00   0.00    -0.00  -0.00   0.00     0.00  -0.00   0.00
   5  16    -0.00  -0.00   0.00    -0.00  -0.00   0.00     0.00  -0.00  -0.00
   6   8    -0.00   0.00   0.00     0.00   0.00   0.00    -0.00   0.00   0.00
   7   6     0.00  -0.00   0.00    -0.00  -0.00   0.00     0.00  -0.00   0.00
   8   6    -0.00   0.00  -0.00     0.00   0.00  -0.00    -0.00   0.00  -0.00
   9  16     0.00   0.00   0.00     0.00  -0.00  -0.00    -0.00   0.00   0.00
  10   6     0.03  -0.08   0.18     0.00  -0.00   0.00    -0.26   0.14   0.09
  11  16    -0.00  -0.00   0.00     0.00   0.00  -0.00    -0.00   0.00   0.00
  12  15    -0.00  -0.00   0.00    -0.00  -0.00   0.00     0.00  -0.00  -0.00
  13  16     0.00   0.00   0.00    -0.00   0.00  -0.00     0.00  -0.00  -0.00
  14   8     0.00  -0.00  -0.00     0.00   0.00  -0.00    -0.00   0.00  -0.00
  15   6    -0.00  -0.00   0.00    -0.00  -0.00   0.00     0.00   0.00  -0.00
  16   6    -0.00  -0.00  -0.00     0.00   0.00  -0.00    -0.00  -0.00   0.00
  17   8     0.00  -0.00  -0.00    -0.00   0.00  -0.00    -0.00   0.00   0.00
  18   6    -0.00   0.00  -0.00    -0.00   0.00   0.00     0.00   0.00  -0.00
  19   6     0.00  -0.00   0.00     0.00  -0.00  -0.00    -0.00   0.00   0.00
  20   1    -0.00  -0.00  -0.00    -0.01  -0.01  -0.01    -0.00   0.00   0.00
  21   1    -0.00   0.00   0.00    -0.00   0.02   0.00    -0.00  -0.00  -0.00
  22   1     0.00   0.00  -0.00     0.11   0.05  -0.07     0.00   0.00  -0.00
  23   1     0.00   0.00  -0.00    -0.78  -0.31   0.46    -0.00  -0.00   0.00
  24   1     0.00   0.00   0.00     0.03  -0.00  -0.05     0.00  -0.00  -0.00
  25   1     0.00   0.00  -0.00     0.01   0.01  -0.01     0.00  -0.00  -0.00
  26   1    -0.01   0.00  -0.01    -0.00   0.00  -0.00    -0.00   0.00  -0.00
  27   1     0.00   0.00  -0.00    -0.00  -0.00   0.00     0.00   0.00  -0.00
  28   1     0.01  -0.00   0.00    -0.00   0.00  -0.00     0.00  -0.00   0.00
  29   1    -0.00   0.00   0.00     0.00  -0.00  -0.00    -0.00  -0.00  -0.00
  30   1     0.45  -0.12  -0.47    -0.00  -0.00   0.00     0.46  -0.11  -0.52
  31   1    -0.54   0.43  -0.20    -0.00   0.00  -0.00     0.47  -0.39   0.21
  32   1     0.00  -0.00   0.00     0.00  -0.00   0.00     0.00  -0.00   0.00
  33   1     0.00   0.01  -0.00     0.00   0.00  -0.00    -0.00  -0.00   0.00
  34   1    -0.00   0.00   0.00    -0.00   0.00   0.00     0.00  -0.00  -0.00
  35   1     0.00  -0.00   0.00     0.00  -0.00   0.00     0.00  -0.00   0.00
  36   1     0.00   0.00  -0.00    -0.00  -0.00   0.00     0.00   0.00  -0.00
  37   1     0.00  -0.00   0.00    -0.00   0.00   0.00     0.00  -0.00   0.00
  38   1    -0.00   0.00   0.00     0.00  -0.00  -0.00    -0.00   0.00   0.00
  39   1    -0.00   0.00  -0.00    -0.00   0.00  -0.00     0.00  -0.00   0.00
  40   1     0.00   0.00   0.00    -0.00   0.00   0.00     0.00  -0.00  -0.00
  41   1    -0.00  -0.00  -0.00     0.00  -0.00   0.00    -0.00  -0.00  -0.00
                    106                    107                    108
                        a                      a                      a 
 Frequencies --  3017.1830              3031.2981              3044.0788
 Red. masses --     1.7539                 1.7484                 1.7654
 Frc consts  --     0.0000                 0.0000                 0.0000
 IR Inten    --    43.3184                58.7499                30.8181
 Raman Activ --     0.0000                 0.0000                 0.0000
 Depolar     --     0.0000                 0.0000                 0.0000
 Atom AN      X      Y      Z        X      Y      Z        X      Y      Z
   1   6     0.20   0.08  -0.14     0.00  -0.00   0.00    -0.00  -0.01  -0.03
   2   6     0.04   0.01  -0.02    -0.00   0.00  -0.00    -0.00  -0.00  -0.00
   3   8    -0.00   0.00  -0.00    -0.00  -0.00   0.00     0.00   0.00  -0.00
   4  15     0.00  -0.00   0.00     0.00  -0.00  -0.00    -0.00  -0.00   0.00
   5  16    -0.00   0.00  -0.00     0.00  -0.00  -0.00    -0.00   0.00   0.00
   6   8    -0.00   0.00  -0.00    -0.00   0.00   0.00     0.00   0.00  -0.00
   7   6    -0.00  -0.00   0.00     0.03  -0.00   0.01     0.00   0.00  -0.00
   8   6     0.00   0.00  -0.00     0.23  -0.04   0.10     0.01   0.00   0.01
   9  16     0.00  -0.00   0.00     0.00   0.00   0.00    -0.00  -0.00  -0.00
  10   6     0.00  -0.00   0.00    -0.00   0.00   0.00    -0.00   0.00   0.00
  11  16     0.00   0.00  -0.00     0.00  -0.00   0.00    -0.00   0.00   0.00
  12  15    -0.00   0.00   0.00    -0.00   0.00   0.00     0.00   0.00  -0.00
  13  16    -0.00  -0.00   0.00    -0.00   0.00  -0.00     0.00  -0.00  -0.00
  14   8     0.00  -0.00   0.00     0.00   0.00   0.00    -0.00  -0.00  -0.00
  15   6    -0.00   0.00  -0.00     0.00  -0.00   0.00     0.01   0.02  -0.01
  16   6    -0.00   0.00  -0.00     0.00  -0.01   0.00     0.08   0.20  -0.14
  17   8     0.00  -0.00   0.00    -0.00  -0.00  -0.00     0.00   0.00   0.00
  18   6     0.00   0.00  -0.00     0.00   0.00  -0.00    -0.00   0.00  -0.00
  19   6     0.00  -0.00   0.00    -0.00   0.00   0.00     0.00   0.00   0.00
  20   1     0.03   0.04   0.04     0.00  -0.00  -0.00     0.00   0.05   0.13
  21   1     0.02   0.02  -0.02    -0.00   0.00   0.00     0.00  -0.01  -0.00
  22   1    -0.75  -0.34   0.48    -0.00  -0.00   0.00     0.01   0.00  -0.01
  23   1    -0.11  -0.04   0.07     0.00   0.00   0.00     0.00   0.00  -0.00
  24   1     0.00   0.01   0.01     0.00   0.00   0.00    -0.00   0.00   0.01
  25   1     0.01   0.00  -0.00    -0.02  -0.01   0.01    -0.01  -0.00   0.01
  26   1    -0.00   0.00  -0.00    -0.08   0.01  -0.04    -0.00   0.00  -0.00
  27   1    -0.00  -0.00   0.00    -0.03  -0.04   0.06    -0.01  -0.00   0.00
  28   1     0.00  -0.00   0.00    -0.82   0.17  -0.45    -0.01   0.00  -0.01
  29   1     0.00   0.00   0.00     0.03   0.01   0.05     0.00  -0.01  -0.02
  30   1     0.00  -0.00  -0.00     0.00  -0.00  -0.00     0.00  -0.00  -0.00
  31   1    -0.00   0.00  -0.00    -0.00   0.00  -0.00     0.00  -0.00   0.00
  32   1     0.00  -0.00   0.00    -0.00   0.00  -0.00     0.01  -0.01   0.00
  33   1    -0.00  -0.00   0.00     0.00   0.00  -0.00    -0.03  -0.04   0.04
  34   1     0.00   0.00  -0.00     0.00  -0.00  -0.00     0.02  -0.00  -0.07
  35   1     0.00  -0.00   0.00    -0.02   0.02  -0.00     0.09  -0.08   0.00
  36   1    -0.00  -0.00   0.00     0.00   0.01  -0.01    -0.42  -0.62   0.57
  37   1     0.00  -0.00   0.00     0.00  -0.00   0.00     0.00  -0.00   0.00
  38   1    -0.00   0.00   0.00    -0.00   0.00   0.00    -0.00   0.00   0.00
  39   1    -0.00   0.00  -0.00     0.00  -0.00   0.00     0.00  -0.00   0.00
  40   1    -0.00   0.00   0.00     0.00  -0.00  -0.00     0.00  -0.00  -0.00
  41   1    -0.00  -0.00  -0.00    -0.00   0.00  -0.00    -0.00  -0.00  -0.00
                    109                    110                    111
                        a                      a                      a 
 Frequencies --  3044.6398              3048.2165              3052.3725
 Red. masses --     1.6629                 1.6063                 1.8991
 Frc consts  --     0.0000                 0.0000                 0.0000
 IR Inten    --    18.8134                16.4141                24.3873
 Raman Activ --     0.0000                 0.0000                 0.0000
 Depolar     --     0.0000                 0.0000                 0.0000
 Atom AN      X      Y      Z        X      Y      Z        X      Y      Z
   1   6     0.02   0.08   0.23    -0.00  -0.00  -0.01    -0.00   0.00   0.00
   2   6    -0.00   0.00   0.02     0.00   0.00  -0.00    -0.00  -0.00   0.00
   3   8    -0.00  -0.00  -0.00     0.00  -0.00  -0.00     0.00  -0.00   0.00
   4  15     0.00   0.00   0.00    -0.00   0.00   0.00    -0.00   0.00   0.00
   5  16    -0.00   0.00   0.00    -0.00   0.00   0.00     0.00   0.00  -0.00
   6   8    -0.00   0.00   0.00     0.00  -0.00  -0.00    -0.00  -0.00  -0.00
   7   6     0.00  -0.00   0.00     0.00   0.00  -0.00    -0.00  -0.00   0.00
   8   6    -0.00   0.00   0.00    -0.00   0.00  -0.01    -0.00  -0.00   0.00
   9  16     0.00  -0.00   0.00     0.00  -0.00   0.00     0.00  -0.00   0.00
  10   6    -0.00   0.00  -0.00    -0.00  -0.00   0.00    -0.00   0.00  -0.00
  11  16    -0.00   0.00   0.00    -0.00  -0.00   0.00     0.00  -0.00  -0.00
  12  15    -0.00   0.00  -0.00    -0.00  -0.00  -0.00     0.00  -0.00  -0.00
  13  16     0.00  -0.00  -0.00     0.00  -0.00   0.00    -0.00  -0.00  -0.00
  14   8    -0.00  -0.00   0.00    -0.00  -0.00   0.00    -0.00  -0.00  -0.00
  15   6     0.00   0.00  -0.00     0.01  -0.01   0.01    -0.00   0.00  -0.00
  16   6     0.02   0.02  -0.02     0.17  -0.15   0.05    -0.00   0.00  -0.00
  17   8     0.00   0.00   0.00     0.00   0.00   0.00    -0.00   0.00   0.00
  18   6     0.00   0.00  -0.00     0.00  -0.00  -0.00     0.01  -0.02  -0.01
  19   6     0.00   0.00   0.00     0.00  -0.00  -0.00     0.15  -0.20  -0.14
  20   1    -0.01  -0.34  -0.89     0.00   0.01   0.03    -0.00  -0.00  -0.00
  21   1    -0.00   0.07   0.03     0.00   0.00  -0.00     0.00  -0.00   0.00
  22   1    -0.05  -0.01   0.06     0.00  -0.00  -0.00     0.00   0.00  -0.00
  23   1     0.01   0.00  -0.00    -0.00  -0.00   0.00     0.00   0.00  -0.00
  24   1     0.00  -0.01  -0.04     0.00   0.00   0.00    -0.00  -0.00   0.00
  25   1     0.00   0.00  -0.00    -0.01  -0.01   0.01     0.00   0.00  -0.00
  26   1    -0.00   0.00  -0.00     0.01  -0.00   0.00    -0.00   0.00  -0.00
  27   1     0.00   0.00  -0.00    -0.02  -0.01   0.01     0.01   0.00  -0.00
  28   1     0.00  -0.00   0.00     0.03  -0.00   0.01    -0.00   0.00  -0.00
  29   1     0.00  -0.00  -0.00    -0.00   0.00   0.00     0.00  -0.00  -0.01
  30   1     0.00  -0.00  -0.00     0.00  -0.00  -0.00     0.00   0.00  -0.00
  31   1     0.00  -0.00   0.00    -0.00   0.00  -0.00     0.00  -0.00   0.00
  32   1     0.00  -0.00  -0.00    -0.02   0.03  -0.01     0.00  -0.00   0.00
  33   1    -0.00  -0.01   0.00     0.00   0.00  -0.00    -0.00  -0.00   0.00
  34   1     0.01  -0.01  -0.02     0.05  -0.07  -0.08    -0.00   0.00   0.00
  35   1    -0.01   0.01  -0.01    -0.60   0.72  -0.18     0.01  -0.01   0.00
  36   1    -0.06  -0.09   0.09    -0.03  -0.11   0.08    -0.00  -0.00   0.00
  37   1     0.00  -0.00   0.00     0.00  -0.00   0.00    -0.01   0.02  -0.01
  38   1    -0.00   0.00   0.00    -0.00   0.00   0.00    -0.02   0.02   0.04
  39   1    -0.00   0.00   0.00    -0.00   0.00  -0.00    -0.16   0.32  -0.15
  40   1     0.00   0.00   0.00    -0.01   0.01   0.01    -0.36   0.42   0.68
  41   1    -0.00  -0.00  -0.00    -0.00  -0.00  -0.00     0.00  -0.03  -0.04
                    112                    113                    114
                        a                      a                      a 
 Frequencies --  3054.8342              3055.3348              3058.0622
 Red. masses --     1.5126                 1.4512                 1.9109
 Frc consts  --     0.0000                 0.0000                 0.0000
 IR Inten    --    11.8764                13.3131                12.5651
 Raman Activ --     0.0000                 0.0000                 0.0000
 Depolar     --     0.0000                 0.0000                 0.0000
 Atom AN      X      Y      Z        X      Y      Z        X      Y      Z
   1   6     0.00  -0.00  -0.00     0.00  -0.00  -0.00     0.00  -0.01  -0.00
   2   6     0.00   0.00   0.00     0.00  -0.00   0.00    -0.00  -0.00   0.00
   3   8    -0.00  -0.00  -0.00     0.00   0.00  -0.00     0.00   0.00  -0.00
   4  15     0.00  -0.00   0.00    -0.00  -0.00   0.00    -0.00  -0.00   0.00
   5  16     0.00  -0.00  -0.00     0.00   0.00  -0.00     0.00   0.00  -0.00
   6   8    -0.00  -0.00   0.00     0.00   0.00  -0.00     0.00   0.00  -0.00
   7   6    -0.02  -0.01   0.00    -0.00  -0.00   0.00    -0.00  -0.00   0.01
   8   6    -0.15  -0.15   0.03    -0.00   0.00   0.01    -0.07   0.03   0.28
   9  16    -0.00  -0.00  -0.00    -0.00   0.00  -0.00     0.00   0.00  -0.00
  10   6     0.00   0.00   0.00     0.00  -0.00   0.00     0.00  -0.00   0.00
  11  16    -0.00   0.00   0.00     0.00   0.00  -0.00    -0.00  -0.00   0.00
  12  15     0.00   0.00   0.00    -0.00  -0.00  -0.00    -0.00  -0.00   0.00
  13  16    -0.00  -0.00  -0.00     0.00   0.00  -0.00     0.00  -0.00   0.00
  14   8    -0.00  -0.00  -0.00    -0.00  -0.00   0.00    -0.00   0.00   0.00
  15   6     0.00  -0.00  -0.00     0.00  -0.00  -0.00     0.00  -0.00  -0.00
  16   6     0.01  -0.00  -0.01    -0.00  -0.00   0.00     0.01  -0.01  -0.01
  17   8    -0.00  -0.00   0.00     0.00   0.00   0.00     0.00  -0.00  -0.00
  18   6    -0.00   0.00  -0.00    -0.00   0.01  -0.01    -0.00  -0.00   0.00
  19   6    -0.00   0.00  -0.00    -0.03   0.15  -0.13    -0.00  -0.00   0.00
  20   1     0.00   0.00   0.00    -0.00  -0.00   0.00     0.00   0.00   0.00
  21   1    -0.00   0.00  -0.00    -0.00   0.01  -0.00    -0.00   0.02  -0.00
  22   1    -0.00  -0.00   0.00    -0.00  -0.00   0.00    -0.00  -0.00   0.00
  23   1    -0.00  -0.00   0.00    -0.00  -0.00  -0.00     0.00   0.00  -0.00
  24   1     0.00  -0.00  -0.00    -0.00  -0.00  -0.00    -0.00   0.00   0.00
  25   1     0.04   0.02  -0.02     0.00   0.00  -0.00     0.03   0.02  -0.01
  26   1     0.01  -0.00   0.01     0.00  -0.00   0.00    -0.01   0.00  -0.01
  27   1     0.66   0.41  -0.44     0.00   0.00  -0.00     0.27   0.18  -0.15
  28   1    -0.08  -0.00  -0.03    -0.00   0.00   0.00    -0.07   0.01   0.00
  29   1    -0.04   0.12   0.37     0.00  -0.01  -0.02     0.04  -0.31  -0.83
  30   1    -0.00   0.00   0.00     0.00  -0.00  -0.00     0.00   0.00   0.00
  31   1     0.00   0.00   0.00    -0.00   0.00  -0.00    -0.00   0.00  -0.00
  32   1    -0.00   0.00  -0.00    -0.00   0.00  -0.00    -0.00   0.00  -0.00
  33   1    -0.00  -0.00   0.00    -0.00  -0.00   0.00    -0.00  -0.00   0.00
  34   1    -0.00   0.01   0.01    -0.00   0.00   0.00    -0.01   0.02   0.03
  35   1    -0.01   0.02  -0.00     0.00  -0.00   0.00    -0.01   0.02  -0.00
  36   1    -0.01  -0.01   0.01     0.00   0.00  -0.00     0.01   0.00  -0.01
  37   1     0.00  -0.00   0.00     0.01  -0.03   0.01    -0.00   0.00  -0.00
  38   1     0.00  -0.00  -0.00    -0.00   0.01   0.01     0.00  -0.00  -0.00
  39   1     0.00  -0.00   0.00     0.38  -0.74   0.28    -0.01   0.01  -0.00
  40   1     0.00  -0.00  -0.00    -0.17   0.21   0.29     0.01  -0.01  -0.01
  41   1     0.00   0.00   0.00    -0.12  -0.01  -0.12     0.01   0.00   0.01
                    115                    116                    117
                        a                      a                      a 
 Frequencies --  3059.9005              3061.6828              3062.9305
 Red. masses --     1.7524                 1.8015                 1.8231
 Frc consts  --     0.0000                 0.0000                 0.0000
 IR Inten    --     9.9490                12.1188                11.4610
 Raman Activ --     0.0000                 0.0000                 0.0000
 Depolar     --     0.0000                 0.0000                 0.0000
 Atom AN      X      Y      Z        X      Y      Z        X      Y      Z
   1   6     0.01  -0.26  -0.01    -0.00   0.00  -0.00     0.00   0.00   0.00
   2   6    -0.00  -0.01  -0.00     0.00   0.00  -0.00     0.00   0.00   0.00
   3   8     0.00   0.00   0.00    -0.00   0.00   0.00    -0.00   0.00  -0.00
   4  15     0.00   0.00  -0.00     0.00   0.00  -0.00     0.00  -0.00   0.00
   5  16    -0.00   0.00  -0.00    -0.00  -0.00  -0.00     0.00  -0.00  -0.00
   6   8     0.00  -0.00  -0.00     0.00  -0.00  -0.00    -0.00  -0.00  -0.00
   7   6    -0.00   0.00  -0.00    -0.00  -0.00   0.00     0.00   0.00  -0.00
   8   6     0.00  -0.00  -0.01    -0.01  -0.00   0.01     0.00   0.00  -0.00
   9  16    -0.00  -0.00   0.00    -0.00   0.00  -0.00    -0.00   0.00  -0.00
  10   6    -0.00   0.00  -0.00     0.00  -0.00  -0.00    -0.00   0.00   0.00
  11  16    -0.00  -0.00  -0.00     0.00  -0.00  -0.00    -0.00  -0.00  -0.00
  12  15    -0.00  -0.00   0.00    -0.00   0.00  -0.00     0.00   0.00  -0.00
  13  16     0.00  -0.00   0.00     0.00   0.00  -0.00     0.00  -0.00   0.00
  14   8     0.00   0.00  -0.00     0.00  -0.00  -0.00    -0.00  -0.00  -0.00
  15   6    -0.00   0.00   0.00    -0.01   0.00   0.01     0.00   0.00  -0.00
  16   6    -0.00   0.00   0.00    -0.09   0.12   0.22     0.00   0.00   0.00
  17   8    -0.00  -0.00  -0.00     0.00   0.00   0.00     0.00  -0.00   0.00
  18   6     0.00  -0.00  -0.00     0.00  -0.00  -0.00    -0.00   0.00  -0.01
  19   6    -0.00  -0.00  -0.00     0.00  -0.00  -0.00    -0.18  -0.04  -0.20
  20   1    -0.00  -0.01   0.05     0.00   0.00   0.01    -0.00  -0.00  -0.00
  21   1    -0.04   0.96  -0.02     0.00  -0.01  -0.00     0.00  -0.01   0.00
  22   1     0.01  -0.03  -0.01     0.00   0.00  -0.00    -0.00  -0.00   0.00
  23   1     0.01   0.00  -0.01    -0.00  -0.00   0.00    -0.00  -0.00   0.00
  24   1    -0.00   0.00   0.01     0.00   0.00   0.00    -0.00  -0.00  -0.00
  25   1    -0.00  -0.00   0.00     0.00   0.00  -0.00    -0.00  -0.00   0.00
  26   1     0.00  -0.00   0.00    -0.00  -0.00   0.00    -0.00   0.00  -0.00
  27   1    -0.01  -0.00   0.00     0.02   0.02  -0.01    -0.01  -0.00   0.00
  28   1     0.00  -0.00   0.00    -0.00   0.00   0.00     0.00   0.00  -0.00
  29   1    -0.00   0.01   0.02     0.00  -0.01  -0.03     0.00   0.00   0.00
  30   1    -0.00   0.00   0.00    -0.00   0.00   0.00     0.00  -0.00  -0.00
  31   1     0.00  -0.00   0.00    -0.00   0.00  -0.00     0.00  -0.00  -0.00
  32   1     0.00  -0.00   0.00     0.01  -0.01   0.00    -0.00   0.00  -0.00
  33   1     0.00   0.00  -0.00     0.01   0.01  -0.01    -0.00  -0.00   0.00
  34   1     0.00  -0.00  -0.00     0.26  -0.43  -0.82     0.00  -0.00  -0.00
  35   1     0.00  -0.00   0.00     0.05  -0.06   0.05    -0.00   0.00  -0.00
  36   1     0.00   0.00  -0.00     0.02   0.06  -0.02    -0.00  -0.00   0.00
  37   1    -0.00   0.00  -0.00    -0.00  -0.00   0.00     0.01  -0.01   0.00
  38   1    -0.00   0.00   0.00    -0.00   0.00   0.00    -0.01   0.01   0.01
  39   1    -0.00   0.01  -0.00    -0.00   0.00  -0.00     0.03  -0.12   0.02
  40   1    -0.00  -0.00   0.00    -0.00   0.00   0.00    -0.06   0.04   0.04
  41   1     0.01   0.00   0.01    -0.00  -0.00  -0.00     0.67   0.21   0.65
