41
 energy: -65.026687215563 gnorm: 0.054233792682 xtb: 6.7.1 (edcfbbe)
C            1.65679698938634        2.76879889088519       -1.40408026378666
C            2.01467033800980        2.41609464012986        0.01984217049000
O            3.04215197810714        1.36328265068462        0.01130703095208
P            2.74623296766334       -0.00937669793989        0.80171310523410
S            2.38321522313050        0.10135450933220        2.71082859129855
O            4.10145564538185       -0.73595440383258        0.33804280842058
C            4.65855445120325       -1.89541671466468        1.04575526739300
C            3.87586686025375       -3.16345990429609        0.79664516329684
S            1.21707865681387       -0.92719415904033       -0.37389579251848
C           -0.09803780669788       -1.31444240934607        0.83867812794050
S           -1.43373628230313       -0.06629923266133        0.99717480935536
P           -2.30731985067240       -0.15251799751509       -0.95051916260291
S           -2.03694458871597       -1.85073723697734       -1.86291444332969
O           -1.73208927181746        1.07725409985805       -1.79767723662759
C           -2.25656337851233        2.45398067730681       -1.76501114680692
C           -2.10125095024725        3.13183271515333       -0.42409911408923
O           -3.81879238169808        0.32399892113493       -0.67725129622240
C           -4.76661432613794       -0.54052470463766        0.04116316063518
C           -6.15529550146463       -0.02898769151883       -0.24589627086744
H            0.95188641261996        3.60674749000869       -1.38947228613928
H            2.54605703068680        3.07327647771878       -1.96827602451024
H            1.18192448024287        1.91956284024774       -1.90986392929239
H            1.13508134052271        2.07610335651429        0.58186530598782
H            2.46165232237210        3.26155176923511        0.55300395056579
H            5.67178550529411       -1.97001994924396        0.64550812695914
H            4.71550124969534       -1.65157709021707        2.11199179395302
H            2.88647634934097       -3.13230225380532        1.26323251417021
H            3.76000900322311       -3.35026241725614       -0.27539063623704
H            4.43295360659930       -3.99917139984936        1.23426445904107
H            0.34439835669432       -1.40897314197821        1.83620250115225
H           -0.53376162975024       -2.26746228028987        0.53135429324909
H           -1.66501519775409        2.95608786603888       -2.53321738241965
H           -3.30117286980683        2.42164969272591       -2.08596032938532
H           -2.34958125778151        4.19047786687410       -0.55282381200658
H           -2.77994196801833        2.71728050640970        0.32705437400371
H           -1.07259411251378        3.06323708962513       -0.05799172947162
H           -4.63857543475520       -1.56913193116061       -0.31126364021461
H           -4.52557362035033       -0.48816293322149        1.10683166711037
H           -6.39221158414182       -0.11000283909189       -1.31037530395205
H           -6.87115831561021       -0.63888445541963        0.31477076707949
H           -6.26626772915193        1.01216637636665        0.07078942757554
41
 energy: -65.030761820142 gnorm: 0.030073692203 xtb: 6.7.1 (edcfbbe)
C            1.65555887516704        2.76441284697157       -1.39891277207984
C            2.01702848576521        2.40221075294453        0.02472083323059
O            3.02430231393134        1.34810991225982        0.02414305478965
P            2.71474047744465       -0.03309092951158        0.77862823908104
S            2.37582500741006        0.08185846215287        2.70677670832366
O            4.07941754738796       -0.73849156556849        0.33749775847208
C            4.64283596189286       -1.87872218212748        1.04499098102123
C            3.87175464054478       -3.15528262724899        0.79872153346417
S            1.17588130756358       -0.92047289848285       -0.41576767214353
C           -0.09244581905408       -1.30485987384534        0.83610330076265
S           -1.38187906946108       -0.02549383151506        1.00111740333266
P           -2.29500810885212       -0.14065685315648       -0.92905540838355
S           -2.05113212869412       -1.85131389570778       -1.84920242335419
O           -1.73278880423540        1.08001658069339       -1.78428320551730
C           -2.25381706702193        2.44644530011487       -1.76301803656404
C           -2.10266963284854        3.12712104358396       -0.42278691702552
O           -3.80748281667854        0.31977052982430       -0.67031027779301
C           -4.75176720284621       -0.53947644164140        0.03390255141420
C           -6.14822021283782       -0.03344620098188       -0.24757131960987
H            0.96107586261715        3.60309963061938       -1.38982595012164
H            2.54640282944616        3.05211156681809       -1.95394742544841
H            1.18572883367597        1.92003501144801       -1.90349366169444
H            1.14116634439337        2.05809575305650        0.58640293591563
H            2.46782770962290        3.24492116706929        0.55475051437723
H            5.65635358117927       -1.94472680020500        0.64449107497249
H            4.68435291721592       -1.63673086849210        2.11149084412848
H            2.88545432570061       -3.11202967953796        1.26008917015438
H            3.75411233899084       -3.33344376519146       -0.26887448934077
H            4.42294703598339       -3.98722257952070        1.23549918359761
H            0.36396497170180       -1.38598172691108        1.82519285520364
H           -0.55137952136829       -2.24256154127039        0.52319173512751
H           -1.65707331376543        2.93961516556089       -2.53268579064900
H           -3.29909466815652        2.40952929032097       -2.07469342530110
H           -2.35359438008193        4.18046714948802       -0.54248924346811
H           -2.76992130115181        2.69288460188028        0.32023239685148
H           -1.07940685812098        3.05153949564592       -0.06077714309376
H           -4.61538818822932       -1.56519855068819       -0.32070486588545
H           -4.51173226467138       -0.48659664120339        1.09847213154736
H           -6.37667323178098       -0.10571139620187       -1.30876500160774
H           -6.86240411266717       -0.63995157952906        0.30680351518265
H           -6.25160195577105        1.00309476037237        0.06598592351453
41
 energy: -65.032549362050 gnorm: 0.011689229331 xtb: 6.7.1 (edcfbbe)
C            1.65534121678174        2.75426666872901       -1.39459521054802
C            2.01743429467131        2.38952577462360        0.03186853376270
O            3.00914841006223        1.34057690252233        0.03622203338918
P            2.69638400409890       -0.04707663522210        0.75486218526739
S            2.33598561817492        0.03189678224067        2.68472812456925
O            4.05943209326615       -0.73925510506696        0.32937465413197
C            4.62566661094815       -1.85747249917921        1.03898835675914
C            3.86056758350607       -3.14201320349718        0.79765482670935
S            1.15246397289414       -0.91946875641675       -0.43510430890390
C           -0.10356397831568       -1.28642208167902        0.82384363327975
S           -1.35547949490544        0.01424997972149        1.01106244000119
P           -2.27937110417816       -0.12448008783768       -0.91324279499895
S           -2.04955612414942       -1.85661730452986       -1.80149162261781
O           -1.73225356954387        1.08334688956524       -1.77764025792540
C           -2.24892687877277        2.43861966468596       -1.76433639547934
C           -2.10104482549537        3.11694506541610       -0.41983618777729
O           -3.78919995429446        0.31721021645507       -0.65746478473422
C           -4.72684578096928       -0.53998864589648        0.03072999803130
C           -6.12906093769185       -0.03630631126417       -0.25143128521627
H            0.97366927228471        3.59737337901506       -1.38771640315725
H            2.55141188970464        3.02420025305428       -1.94176405817522
H            1.18323833793656        1.91285791427754       -1.89414674400207
H            1.14062626236218        2.05273492413385        0.59572659843160
H            2.47170440987338        3.23358978945709        0.55366892870229
H            5.64107656027058       -1.91914106832440        0.64404383405229
H            4.65319399235971       -1.61610703754353        2.10600497413733
H            2.87556879713274       -3.08444826516801        1.25550782468835
H            3.74316317856980       -3.31592303293394       -0.26730110519884
H            4.40556404707975       -3.96990881145873        1.23758980378105
H            0.37192559401836       -1.36438466298618        1.80188184829152
H           -0.58316706182732       -2.21315675188293        0.51499712501105
H           -1.64978002452215        2.92914422190231       -2.53298658028593
H           -3.29517155327744        2.40286726590778       -2.06872521322816
H           -2.36134615601430        4.16473919185724       -0.52657852162782
H           -2.75819742055420        2.65886291909813        0.31458168871706
H           -1.07970360263127        3.03985376635508       -0.06254158588952
H           -4.58853481328150       -1.56342111884333       -0.32949410895912
H           -4.49618613844806       -0.49481434860428        1.09747792157592
H           -6.34776744467252       -0.10089136100429       -1.31210908425660
H           -6.84053664246240       -0.64418484861119        0.29542260224320
H           -6.22662193064827        0.99649696121883        0.06430793283262
41
 energy: -65.032978800824 gnorm: 0.006576882139 xtb: 6.7.1 (edcfbbe)
C            1.65323528282115        2.74463331571897       -1.39111640584744
C            2.01034641924171        2.38653768940817        0.03999469437879
O            2.99307577641407        1.33541800659881        0.04849034535481
P            2.68068210060716       -0.05346553740098        0.75156174925164
S            2.32432168891048        0.00734588915447        2.68334035171851
O            4.03775540723212       -0.74002037722032        0.32194824657352
C            4.61177602908472       -1.84638802846211        1.03380938710985
C            3.84762136722890       -3.13419790253127        0.79563535921481
S            1.14566552979718       -0.92128912373036       -0.45887871749428
C           -0.09791269656459       -1.27099526966378        0.81727883242311
S           -1.33304308962695        0.03983262066643        1.00862339785528
P           -2.27205969890353       -0.11614119717259       -0.90874181052720
S           -2.04413531601025       -1.85963619440572       -1.77333711580541
O           -1.73124296060667        1.08102790387113       -1.78187038023734
C           -2.24392433377817        2.43433304214258       -1.76852366297964
C           -2.09775807513321        3.10697576447479       -0.41872260448272
O           -3.77829229640881        0.31916538336318       -0.64819554070946
C           -4.71072621682688       -0.54193705180097        0.03226398891286
C           -6.11289364940795       -0.03698068769289       -0.25393721309156
H            0.98206047343214        3.59643376692687       -1.38957015551081
H            2.55577111806877        2.99969640023814       -1.93737764072592
H            1.17196806539679        1.90374315093972       -1.88469951902772
H            1.12851252897981        2.06415866463560        0.60612924366998
H            2.46904482275437        3.23332744107011        0.55446878502803
H            5.62895315558603       -1.90717284297272        0.64357915390069
H            4.63632597858467       -1.60442336371349        2.10120400790578
H            2.86149987716425       -3.07084910240980        1.25219611080722
H            3.73154027916907       -3.30958684447794       -0.26987769023592
H            4.39052078997773       -3.96076705048116        1.24009814201454
H            0.38761595524410       -1.36061245281522        1.78996068370084
H           -0.59633282230919       -2.18997211203521        0.51373071107736
H           -1.64539944383913        2.92959862465335       -2.53430431822866
H           -3.29083903429285        2.40456005778693       -2.07246187251087
H           -2.36971631825529        4.15272026935960       -0.51512979018287
H           -2.74934137284471        2.63449777001407        0.31285077333983
H           -1.07393303384787        3.03591237595507       -0.06490147716009
H           -4.57285118291063       -1.56462648438402       -0.33237253957805
H           -4.48731494953874       -0.50571701749286        1.10160464178707
H           -6.32461437861629       -0.09719827867427       -1.31703305926680
H           -6.82513455500333       -0.64906967025243        0.28721186179826
H           -6.20957651162979        0.99500504509847        0.06711066116382
41
 energy: -65.033150358153 gnorm: 0.005352286340 xtb: 6.7.1 (edcfbbe)
C            1.65001537234526        2.73921062051029       -1.38840317647863
C            2.00523727199308        2.39205624835152        0.04628750779575
O            2.98813205104630        1.34155307855666        0.05983041156891
P            2.67903446592717       -0.05147483305131        0.74895837096254
S            2.31911638035023       -0.01007614146775        2.68033715657125
O            4.03154793119034       -0.73644905605734        0.31403762577152
C            4.60463301445845       -1.84087390582152        1.02846846361834
C            3.83741833762966       -3.12810794928839        0.79210904079616
S            1.14182085956863       -0.92420095826561       -0.45500653600543
C           -0.10738014450820       -1.26808571724741        0.81522444751140
S           -1.32102677552778        0.06143656654393        1.00870018505861
P           -2.26415567158352       -0.11168823605995       -0.90680907081278
S           -2.04147228089730       -1.86055035995678       -1.76151954707197
O           -1.72859817837330        1.07700087807350       -1.79017414667125
C           -2.23849094149106        2.43193193070621       -1.77287082551254
C           -2.09414600457610        3.09832774105671       -0.41890611411790
O           -3.76741820943287        0.32194158774004       -0.63911127723965
C           -4.69837902635756       -0.54455876652963        0.03503095071298
C           -6.09924430896591       -0.03849997186001       -0.25451803013225
H            0.98626631620192        3.59809696429339       -1.39512736271825
H            2.55575314933971        2.98101296405992       -1.93801534862008
H            1.16017888443474        1.89709223035210       -1.87414315247475
H            1.12113751051614        2.07726869551578        0.61447275803989
H            2.46443924975891        3.24245912887590        0.55558187377609
H            5.62329745499612       -1.90459985953631        0.64300842722581
H            4.62763603110722       -1.59785536653068        2.09615872561848
H            2.84933414141491       -3.06043741916680        1.24613366156256
H            3.72305119144034       -3.30687047846003       -0.27401203547042
H            4.37612806742806       -3.95606797136710        1.24127220220787
H            0.38157371240242       -1.37000099481625        1.78539237649850
H           -0.61697780183631       -2.18154261551179        0.51252666605944
H           -1.63990860138081        2.93246843829762       -2.53527675307896
H           -3.28548644312588        2.40722763998033       -2.07920557844423
H           -2.37823069792662        4.14252010593687       -0.50706692694859
H           -2.73973865970708        2.61523850214384        0.31236297701713
H           -1.06747702037081        3.03637688707950       -0.06844648861744
H           -4.55931513432036       -1.56632001195691       -0.33356691798184
H           -4.47929015535659       -0.51579603381363        1.10598239675947
H           -6.30548850923502       -0.09383620621366       -1.31988442459021
H           -6.81474358090727       -0.65413527660287        0.28030124497657
H           -6.19753253832878        0.99268451379390        0.07192585826175
41
 energy: -65.033242115931 gnorm: 0.003984747522 xtb: 6.7.1 (edcfbbe)
C            1.64452089564835        2.73499763401602       -1.38614306868506
C            1.99840431039377        2.39874696592890        0.05104485571470
O            2.98299327423725        1.34760546197812        0.07201268581839
P            2.67790316813143       -0.04887528171462        0.75329528535313
S            2.32112920119481       -0.01821708873891        2.68477602879585
O            4.02819559983740       -0.73265264890240        0.31082569893174
C            4.59938316215266       -1.84013402822736        1.02544416342354
C            3.82877996264073       -3.12488849426697        0.78894888774715
S            1.14640037389061       -0.92753121503706       -0.45354167027725
C           -0.10481048382428       -1.26670989985776        0.81658244176576
S           -1.31321437169512        0.06582918750421        1.00491037090625
P           -2.26037769432918       -0.10719641717861       -0.90835324577769
S           -2.04005112003798       -1.85993958057073       -1.75488002069330
O           -1.72784827563541        1.07523325408496       -1.80114051000281
C           -2.23413255714487        2.43343033453377       -1.77750122390541
C           -2.09101502265737        3.09312963051131       -0.42061598834282
O           -3.76220019677740        0.32614210225246       -0.63414083409827
C           -4.69171829639383       -0.54602609443059        0.03716204290304
C           -6.09147885434522       -0.04090126782901       -0.25394034353927
H            0.98715678304741        3.59952966556083       -1.40173092309053
H            2.55130318888776        2.96509990759880       -1.94015118179448
H            1.14713249768677        1.89202488450831       -1.86401297728022
H            1.11464920441841        2.08785493475719        0.62192278370183
H            2.45847756431435        3.25204402665603        0.55542932592955
H            5.61827748751347       -1.90632360666777        0.64121616850402
H            4.62281277291485       -1.59632957082520        2.09314464052035
H            2.83931741649900       -3.05490054425753        1.24055260810048
H            3.71614427946164       -3.30631195014935       -0.27744371363331
H            4.36386236397221       -3.95444377438955        1.24114591298836
H            0.38098364136075       -1.37681550247159        1.78752501968941
H           -0.61962294176533       -2.17670377419214        0.51281490179090
H           -1.63322894616996        2.93667924865347       -2.53647618875645
H           -3.28047783603311        2.41198458976793       -2.08755083043664
H           -2.38515846259339        4.13563794616966       -0.50293061163819
H           -2.73061910412920        2.60232723221358        0.31120444363504
H           -1.06232406783401        3.03987721650365       -0.07322334973129
H           -4.54899502038203       -1.56649239900961       -0.33441182754676
H           -4.47317767610795       -0.52080874657426        1.10837081553221
H           -6.29416220675034       -0.09180162586844       -1.32057920802913
H           -6.80945426577510       -0.65941840202817        0.27556205325767
H           -6.19250903848205        0.98912428227465        0.07691619763337
41
 energy: -65.033300541645 gnorm: 0.002687908733 xtb: 6.7.1 (edcfbbe)
C            1.63696420073482        2.72957812087220       -1.38354607995100
C            1.99112340813191        2.40522510232492        0.05555296272871
O            2.97872862868304        1.35434671588694        0.08549256112979
P            2.67817821091457       -0.04641298472560        0.75961576479324
S            2.32507754850097       -0.02392843432917        2.69174501871313
O            4.02940184393367       -0.72728593755908        0.31135790375629
C            4.59601315421150       -1.84106683635133        1.02408269506511
C            3.82061644189518       -3.12156669348258        0.78533727498784
S            1.15213814866136       -0.92901452409684       -0.45153281035596
C           -0.10391752491561       -1.26374660800058        0.81566043608499
S           -1.30555491821802        0.07436908002112        1.00201003170639
P           -2.25648010117890       -0.10551881702190       -0.90970713513086
S           -2.04041221177500       -1.85943021007503       -1.75501369087157
O           -1.72637428254367        1.07292510576167       -1.80988067146269
C           -2.22854782588396        2.43495639453110       -1.78089897536459
C           -2.08797444873881        3.08931288489886       -0.42249265671720
O           -3.75741734950954        0.32919476770629       -0.63057856198502
C           -4.68646181040711       -0.54732821889739        0.03879453599326
C           -6.08584004933275       -0.04467275745410       -0.25301860024757
H            0.98630615864866        3.59900857727154       -1.40741846735679
H            2.54364416709349        2.94779654617270       -1.94214997219183
H            1.13205497691572        1.88625409897020       -1.85276799293648
H            1.10949781943931        2.09628966354913        0.63000929948100
H            2.45197475579726        3.26189359957840        0.55346971699510
H            5.61434769474239       -1.91008835225624        0.63912283541601
H            4.62016776654402       -1.59805337918230        2.09186027454236
H            2.83022850017318       -3.04899337942650        1.23431978594648
H            3.70991272689084       -3.30400775905166       -0.28107734767901
H            4.35141677368736       -3.95309531451115        1.23930159484525
H            0.37791997835176       -1.37820416646399        1.78811085353385
H           -0.62062853842422       -2.17183105820524        0.50959073752505
H           -1.62293008752249        2.93860833840162       -2.53599928140234
H           -3.27341889067967        2.41630152054109       -2.09612581505880
H           -2.39194109082886        4.12933739969124       -0.50069144351679
H           -2.72121894841057        2.59079778849305        0.30930678753311
H           -1.05812226733272        3.04506136770576       -0.07774106118467
H           -4.53897841426597       -1.56617892339724       -0.33514091396371
H           -4.46724015389703       -0.52315647284311        1.10966560863433
H           -6.28587894529473       -0.09093304594816       -1.32023976050515
H           -6.80475747095213       -0.66644958669519        0.27145179012643
H           -6.19036686449874        0.98358297988273        0.08220238372818
41
 energy: -65.033330189629 gnorm: 0.002093161383 xtb: 6.7.1 (edcfbbe)
C            1.63048810202333        2.72378069586024       -1.38122536646305
C            1.98696918445011        2.40850157916880        0.05894075386117
O            2.97748530240397        1.35953246623236        0.09523232015890
P            2.67948809723648       -0.04491558492043        0.76342891999122
S            2.32388908550997       -0.02938310193117        2.69560355932558
O            4.03418842132271       -0.72174523302629        0.31490788350056
C            4.59532280572213       -1.84160347946141        1.02434366337213
C            3.81526983282129       -3.11810974532912        0.78214446838717
S            1.15651557689096       -0.92902081054461       -0.44934249087602
C           -0.10147345954483       -1.26284274511117        0.81623635879794
S           -1.30056093101310        0.07703876694455        0.99768375312868
P           -2.25532818051574       -0.10355885255212       -0.91137625036781
S           -2.03910706815450       -1.85939639414865       -1.75322072513544
O           -1.72596902124599        1.07322722285213       -1.81471664095247
C           -2.22416792981720        2.43749303958364       -1.78382719582341
C           -2.08637181046960        3.08842943478608       -0.42437335545954
O           -3.75653876815427        0.33129037470127       -0.63117170110371
C           -4.68394764199782       -0.54739427200270        0.03878694501968
C           -6.08432913260005       -0.04823494099333       -0.25236269755577
H            0.98510503521704        3.59646522092602       -1.40977417487312
H            2.53664179934762        2.93280307548737       -1.94320964607679
H            1.11990967835494        1.88049870174567       -1.84341352791707
H            1.10773802281461        2.10037969052550        0.63681914634110
H            2.44812549958622        3.26829543429724        0.55057893874230
H            5.61289391234642       -1.91314587297943        0.63801378978505
H            4.62009290233453       -1.60135890954721        2.09249459190084
H            2.82460304595070       -3.04251974449808        1.22935138279425
H            3.70579904031206       -3.29902738632659       -0.28431918228361
H            4.34210972101164       -3.95181640745393        1.23609946822534
H            0.37798325404362       -1.37625451355370        1.78987982085238
H           -0.61830013754935       -2.16998855090720        0.50760308796587
H           -1.61353567213461        2.93942938120074       -2.53599432301659
H           -3.26760928000197        2.42072689157849       -2.10299612849042
H           -2.39710328479048        4.12623834534645       -0.49993469276037
H           -2.71519007746400        2.58368865928880        0.30643246955175
H           -1.05639027316428        3.04995282918743       -0.08072450326296
H           -4.53304128109731       -1.56538883070177       -0.33542547899703
H           -4.46375437404268       -0.52173641815304        1.10922402880246
H           -6.28314657545693       -0.09149788310065       -1.31957356940878
H           -6.80167382027347       -0.67338421826156        0.26940246432045
H           -6.19182889087161        0.97842867807748        0.08581345138299
41
 energy: -65.033350171175 gnorm: 0.001771666411 xtb: 6.7.1 (edcfbbe)
C            1.62451020352953        2.71670642065373       -1.37863550459643
C            1.98462167395854        2.40927801762142        0.06241132308116
O            2.97701652191449        1.36237702141714        0.10313984820073
P            2.68006058104935       -0.04417837793057        0.76771978311399
S            2.32401622048701       -0.03179201748336        2.70002780421385
O            4.03877434388412       -0.71645838000607        0.32078399602317
C            4.59573733300525       -1.84155456359876        1.02547848231133
C            3.81100001726576       -3.11431283519385        0.77896529965367
S            1.16084104845558       -0.92818579246098       -0.44947701017334
C           -0.10011750630642       -1.25962713525631        0.81413483190394
S           -1.29818351012857        0.08100875059570        0.99588506498230
P           -2.25367974316486       -0.10301869815227       -0.91238881791556
S           -2.03844548181184       -1.85898153493839       -1.75421609933249
O           -1.72503581737473        1.07372354659448       -1.81654676725355
C           -2.22007546936301        2.43917268850040       -1.78636746027347
C           -2.08573355936125        3.08873148722682       -0.42616054360543
O           -3.75556336100308        0.33170658346026       -0.63297730944896
C           -4.68164478418930       -0.54738047973984        0.03834305348977
C           -6.08374129316649       -0.05173532318264       -0.25191943605997
H            0.98424565571819        3.59266475531056       -1.41029483469481
H            2.53007880778409        2.91694443062598       -1.94423357308985
H            1.10812120887071        1.87359037024915       -1.83393727669750
H            1.10759917577399        2.10292317625715        0.64433519135160
H            2.44646030100342        3.27227214106665        0.54725550578160
H            5.61245153410108       -1.91521942821905        0.63731668209137
H            4.62197269898973       -1.60554860957736        2.09430959244808
H            2.82042736261761       -3.03560665265593        1.22530657986241
H            3.70206219076456       -3.29188950202399       -0.28786636825155
H            4.33418394586521       -3.95073041370343        1.23149447045345
H            0.37832283638948       -1.37160467337157        1.78843824760153
H           -0.61664352519169       -2.16663761830488        0.50441016164092
H           -1.60504184219760        2.93921158938525       -2.53609063771745
H           -3.26225528412233        2.42451600493303       -2.10895449248380
H           -2.40227459277344        4.12456092704267       -0.49992408219896
H           -2.71154435878808        2.57866871197824        0.30312355830031
H           -1.05595503627286        3.05505442182105       -0.08233544213429
H           -4.52911391984009       -1.56525932019021       -0.33486253406478
H           -4.46100567001186       -0.51954700137699        1.10857190497971
H           -6.28214363090765       -0.09283044177766       -1.31906224023325
H           -6.79859731464563       -0.68064806842296        0.26808505304803
H           -6.19445725146637        0.97351241511345        0.08875361107643
41
 energy: -65.033366387774 gnorm: 0.001478647864 xtb: 6.7.1 (edcfbbe)
C            1.61728741989368        2.70549232546402       -1.37459274738868
C            1.98501529531075        2.40876035516429        0.06743181048178
O            2.97967665859104        1.36556695438814        0.11179404226445
P            2.68241683929193       -0.04221580507473        0.77369709398051
S            2.32007181511974       -0.03391970406645        2.70513058542327
O            4.04598628362476       -0.70905712211557        0.33083246214078