
                                 *****************
                                 * O   R   C   A *
                                 *****************

                                            #,                                       
                                            ###                                      
                                            ####                                     
                                            #####                                    
                                            ######                                   
                                           ########,                                 
                                     ,,################,,,,,                         
                               ,,#################################,,                 
                          ,,##########################################,,             
                       ,#########################################, ''#####,          
                    ,#############################################,,   '####,        
                  ,##################################################,,,,####,       
                ,###########''''           ''''###############################       
              ,#####''   ,,,,##########,,,,          '''####'''          '####       
            ,##' ,,,,###########################,,,                        '##       
           ' ,,###''''                  '''############,,,                           
         ,,##''                                '''############,,,,        ,,,,,,###''
      ,#''                                            '''#######################'''  
     '                                                          ''''####''''         
             ,#######,   #######,   ,#######,      ##                                
            ,#'     '#,  ##    ##  ,#'     '#,    #''#        ,####,   ,####,        
            ##       ##  ##   ,#'  ##            #'  '#       #'       #'  '#        
            ##       ##  #######   ##           ,######,      #####,   #    #        
            '#,     ,#'  ##    ##  '#,     ,#' ,#      #,     #,   #   #,  ,#        
             '#######'   ##     ##  '#######'  #'      '#     '####' # '####'        



                #########################################################
                #                        -***-                          #
                #          Department of theory and spectroscopy        #
                #                                                       #
                #                      Frank Neese                      #
                #                                                       #
                #     Directorship, Architecture, Infrastructure        #
                #                    SHARK, DRIVERS                     #
                #        Core code/Algorithms in most modules           #
                #                                                       #
                #        Max Planck Institute fuer Kohlenforschung      #
                #                Kaiser Wilhelm Platz 1                 #
                #                 D-45470 Muelheim/Ruhr                 #
                #                      Germany                          #
                #                                                       #
                #                  All rights reserved                  #
                #                        -***-                          #
                #########################################################


                         Program Version 6.0.0  -   RELEASE  -


 With contributions from (in alphabetic order):
   Daniel Aravena         : Magnetic Suceptibility
   Michael Atanasov       : Ab Initio Ligand Field Theory (pilot matlab implementation)
   Alexander A. Auer      : GIAO ZORA, VPT2 properties, NMR spectrum
   Ute Becker             : All parallelization in ORCA, NUMFREQ, NUMCALC
   Giovanni Bistoni       : ED, misc. LED, open-shell LED, HFLD
   Martin Brehm           : Molecular dynamics
   Dmytro Bykov           : pre 5.0 version of the SCF Hessian
   Marcos Casanova-Páez   : Triplet and SCS-CIS(D). UHF-(DLPNO)-IP/EA/STEOM-CCSD. UHF-CVS-IP/STEOM-CCSD
   Vijay G. Chilkuri      : MRCI spin determinant printing, contributions to CSF-ICE
   Pauline Colinet        : FMM embedding
   Dipayan Datta          : RHF DLPNO-CCSD density
   Achintya Kumar Dutta   : EOM-CC, STEOM-CC
   Nicolas Foglia         : Exact transition moments, OPA infrastructure, MCD improvements
   Dmitry Ganyushin       : Spin-Orbit,Spin-Spin,Magnetic field MRCI
   Miquel Garcia          : C-PCM and meta-GGA Hessian, CCSD/C-PCM, Gaussian charge scheme
   Tiago L. C. Gouveia    : GS-ROHF, GS-ROCIS
   Yang Guo               : DLPNO-NEVPT2, F12-NEVPT2, CIM, IAO-localization
   Andreas Hansen         : Spin unrestricted coupled pair/coupled cluster methods
   Ingolf Harden          : AUTO-CI MPn and infrastructure 
   Benjamin Helmich-Paris : MC-RPA, TRAH-(SCF,CASSCF), AVAS, COSX integrals, SCF dyn. polar.
   Lee Huntington         : MR-EOM, pCC
   Robert Izsak           : Overlap fitted RIJCOSX, COSX-SCS-MP3, EOM
   Riya Kayal             : Wick's Theorem for AUTO-CI, AUTO-CI UHF-CCSDT
   Emily Kempfer          : AUTO-CI, RHF CISDT and CCSDT
   Christian Kollmar      : KDIIS, OOCD, Brueckner-CCSD(T), CCSD density, CASPT2, CASPT2-K, improved NEVPT2
   Axel Koslowski         : Symmetry handling
   Simone Kossmann        : Meta GGA functionals, TD-DFT gradient, OOMP2, (MP2 Hessian; deprecated post 5.0)
   Lucas Lang             : DCDCAS
   Marvin Lechner         : AUTO-CI (C++ implementation), FIC-MRCC
   Spencer Leger          : CASSCF response
   Dagmar Lenk            : GEPOL surface, SMD, ORCA-2-JSON
   Dimitrios Liakos       : Extrapolation schemes; Compound Job, initial MDCI parallelization
   Dimitrios Manganas     : Further ROCIS development; embedding schemes. LFT, Crystal Embedding
   Dimitrios Pantazis     : SARC Basis sets
   Anastasios Papadopoulos: AUTO-CI, single reference methods and gradients
   Taras Petrenko         : pre 6.0 DFT Hessian and TD-DFT gradient, (ASA, deprecated), ECA, 1-Electron XAS/XES, NRVS
   Peter Pinski           : DLPNO-MP2, DLPNO-MP2 Gradient
   Christoph Reimann      : Effective Core Potentials
   Marius Retegan         : Local ZFS, SOC
   Christoph Riplinger    : Optimizer, TS searches, QM/MM, DLPNO-CCSD(T), (RO)-DLPNO pert. Triples
   Michael Roemelt        : Original ROCIS implementation
   Masaaki Saitow         : Open-shell DLPNO-CCSD energy and density
   Barbara Sandhoefer     : DKH picture change effects
   Kantharuban Sivalingam : CASSCF convergence/infrastructure, NEVPT2 and variants, FIC-MRCI
   Bernardo de Souza      : ESD, SOC TD-DFT
   Georgi Stoychev        : AutoAux, RI-MP2 NMR, DLPNO-MP2 response, X2C
   Van Anh Tran           : RI-MP2 g-tensors
   Willem Van den Heuvel  : Paramagnetic NMR
   Zikuan Wang            : NOTCH, Electric field optimization 
   Frank Wennmohs         : Technical directorship and infrastructure
   Hang Xu                : AUTO-CI-Response properties 


 We gratefully acknowledge several colleagues who have allowed us to
 interface, adapt or use parts of their codes:
   Stefan Grimme, W. Hujo, H. Kruse, P. Pracht,  : VdW corrections, initial TS optimization,
                  C. Bannwarth, S. Ehlert,         DFT functionals, gCP, sTDA/sTD-DF
                  L. Wittmann, M. Mueller
   Ed Valeev, F. Pavosevic, A. Kumar             : LibInt (2-el integral package), F12 methods
   Garnet Chan, S. Sharma, J. Yang, R. Olivares  : DMRG
   Ulf Ekstrom                                   : XCFun DFT Library
   Mihaly Kallay                                 : mrcc  (arbitrary order and MRCC methods)
   Frank Weinhold                                : gennbo (NPA and NBO analysis)
   Simon Mueller                                 : openCOSMO-RS
   Christopher J. Cramer and Donald G. Truhlar   : smd solvation model
   Lars Goerigk                                  : TD-DFT with DH, B97 family of functionals
   V. Asgeirsson, H. Jonsson                     : NEB implementation
   FAccTs GmbH                                   : IRC, NEB, NEB-TS, DLPNO-Multilevel, CI-OPT
                                                   MM, QMMM, 2- and 3-layer-ONIOM, Crystal-QMMM,
                                                   LR-CPCM, SF, NACMEs, symmetry and pop. for TD-DFT,
                                                   nearIR, NL-DFT gradient (VV10), updates on ESD,
                                                   ML-optimized integration grids, MBIS, APM,
                                                   GOAT, DOCKER, SOLVATOR, interface openCOSMO-RS
   S Lehtola, MJT Oliveira, MAL Marques          : LibXC Library
   Liviu Ungur et al                             : ANISO software


 Your calculation uses the libint2 library for the computation of 2-el integrals
 For citations please refer to: http://libint.valeyev.net

 Your ORCA version has been built with support for libXC version: 6.2.2
 For citations please refer to: https://libxc.gitlab.io

 This ORCA versions uses:
   CBLAS   interface :  Fast vector & matrix operations
   LAPACKE interface :  Fast linear algebra routines
   SCALAPACK package :  Parallel linear algebra routines
   Shared memory     :  Shared parallel matrices
   BLAS/LAPACK       :  OpenBLAS 0.3.27  USE64BITINT DYNAMIC_ARCH NO_AFFINITY SapphireRapids SINGLE_THREADED
        Core in use  :  SapphireRapids
   Copyright (c) 2011-2014, The OpenBLAS Project


Your calculation utilizes the geometrical counterpoise correction gCP
Please cite in your paper:
H.Kruse, S. Grimme J.Chem.Phys., 136, (2012), 154101 
   

Your calculation utilizes the atom-pairwise dispersion correction
based on EEQ partial charges (D4)


================================================================================

----- Orbital basis set information -----
Your calculation utilizes the basis: def2-SV(P)
   F. Weigend and R. Ahlrichs, Phys. Chem. Chem. Phys. 7, 3297 (2005).

----- AuxJ basis set information -----
Your calculation utilizes the auxiliary basis: def2/J
   F. Weigend, Phys. Chem. Chem. Phys. 8, 1057 (2006).

================================================================================
                                        WARNINGS
                       Please study these warnings very carefully!
================================================================================


================================================================================
                                       INPUT FILE
================================================================================
NAME = sp.inp
|  1> ! pbe def2-sv(p) def2/J RI DEFGRID1 loosescf d4 GCP(DFT/SV(P)) printgap
|  2> %output
|  3>     printlevel normal
|  4> end
|  5> * xyz 0 1
|  6> C 1.2935953398 3.3663955049 1.094087211
|  7> C 2.0156000468 2.0844141453 0.7358642136
|  8> O 1.3202281675 0.9922801457 1.3837388449
|  9> P 1.5960971976 -0.5205102395 1.0359700406
| 10> S 0.6266171454 -1.7109792899 2.2481083948
| 11> O 3.1891905549 -0.5290512962 1.1468357631
| 12> C 4.0683208948 -1.5489514304 0.6395012978
| 13> C 3.7413185836 -2.9307301028 1.1663890629
| 14> S 1.3164587454 -0.8503592205 -1.0518404188
| 15> C -0.160736894 -1.8941362684 -1.0126183722
| 16> S -1.641888273 -1.1676742214 -1.7844340351
| 17> P -1.8087224603 0.6590836023 -0.7201661172
| 18> S -3.5168563964 1.5950927445 -0.9023937519
| 19> O -0.5364692826 1.5257927179 -1.1194562995
| 20> C -0.5440685158 2.3907392832 -2.2709057789
| 21> C -0.4145121101 1.6144016255 -3.5668100623
| 22> O -1.3406775103 0.3017611066 0.7586005079
| 23> C -2.3125788634 0.0910085061 1.7991915253
| 24> C -3.023764174 -1.238860991 1.6513824427
| 25> H 1.2907863611 3.5031208335 2.1717856577
| 26> H 1.7976424026 4.2056620169 0.6254666522
| 27> H 0.2639414722 3.3225684287 0.747881307
| 28> H 3.0465647359 2.0895559844 1.0958154716
| 29> H 2.0083196602 1.9065938862 -0.3432987456
| 30> H 4.0200709152 -1.5295728554 -0.4527521594
| 31> H 5.0549977314 -1.2214053179 0.9721434787
| 32> H 3.7174541735 -2.9269211528 2.2536110512
| 33> H 2.7670670285 -3.2547746462 0.8041970309
| 34> H 4.4966610753 -3.6317876864 0.8262553846
| 35> H -0.3664040599 -2.1532769858 0.0295757101
| 36> H 0.0422433511 -2.7826304541 -1.6057464794
| 37> H -1.4694245466 2.9763318524 -2.2581004873
| 38> H 0.3108504808 3.0501679398 -2.1122785787
| 39> H 0.4465771153 0.9510616946 -3.525080964
| 40> H -1.3098012396 1.0191659443 -3.740824288
| 41> H -0.2914004285 2.3126509616 -4.3884506758
| 42> H -1.7280337727 0.130753974 2.7197583375
| 43> H -3.0289499814 0.9179101048 1.7739917809
| 44> H -2.3096349379 -2.0576460938 1.7027792216
| 45> H -3.7423657674 -1.3478775554 2.4571958519
| 46> H -3.5517517258 -1.2753170634 0.6984397712
| 47> *
| 48> 
| 49>                          ****END OF INPUT****
================================================================================

                       ****************************
                       * Single Point Calculation *
                       ****************************

---------------------------------
CARTESIAN COORDINATES (ANGSTROEM)
---------------------------------
  C      1.293595    3.366396    1.094087
  C      2.015600    2.084414    0.735864
  O      1.320228    0.992280    1.383739
  P      1.596097   -0.520510    1.035970
  S      0.626617   -1.710979    2.248108
  O      3.189191   -0.529051    1.146836
  C      4.068321   -1.548951    0.639501
  C      3.741319   -2.930730    1.166389
  S      1.316459   -0.850359   -1.051840
  C     -0.160737   -1.894136   -1.012618
  S     -1.641888   -1.167674   -1.784434
  P     -1.808722    0.659084   -0.720166
  S     -3.516856    1.595093   -0.902394
  O     -0.536469    1.525793   -1.119456
  C     -0.544069    2.390739   -2.270906
  C     -0.414512    1.614402   -3.566810
  O     -1.340678    0.301761    0.758601
  C     -2.312579    0.091009    1.799192
  C     -3.023764   -1.238861    1.651382
  H      1.290786    3.503121    2.171786
  H      1.797642    4.205662    0.625467
  H      0.263941    3.322568    0.747881
  H      3.046565    2.089556    1.095815
  H      2.008320    1.906594   -0.343299
  H      4.020071   -1.529573   -0.452752
  H      5.054998   -1.221405    0.972143
  H      3.717454   -2.926921    2.253611
  H      2.767067   -3.254775    0.804197
  H      4.496661   -3.631788    0.826255
  H     -0.366404   -2.153277    0.029576
  H      0.042243   -2.782630   -1.605746
  H     -1.469425    2.976332   -2.258100
  H      0.310850    3.050168   -2.112279
  H      0.446577    0.951062   -3.525081
  H     -1.309801    1.019166   -3.740824
  H     -0.291400    2.312651   -4.388451
  H     -1.728034    0.130754    2.719758
  H     -3.028950    0.917910    1.773992
  H     -2.309635   -2.057646    1.702779
  H     -3.742366   -1.347878    2.457196
  H     -3.551752   -1.275317    0.698440

----------------------------
CARTESIAN COORDINATES (A.U.)
----------------------------
  NO LB      ZA    FRAG     MASS         X           Y           Z
   0 C     6.0000    0    12.011    2.444541    6.361566    2.067525
   1 C     6.0000    0    12.011    3.808932    3.938972    1.390582
   2 O     8.0000    0    15.999    2.494870    1.875138    2.614887
   3 P    15.0000    0    30.974    3.016187   -0.983622    1.957700
   4 S    16.0000    0    32.060    1.184135   -3.233282    4.248309
   5 O     8.0000    0    15.999    6.026697   -0.999762    2.167206
   6 C     6.0000    0    12.011    7.688012   -2.927094    1.208482
   7 C     6.0000    0    12.011    7.070068   -5.538277    2.204156
   8 S    16.0000    0    32.060    2.487746   -1.606946   -1.987690
   9 C     6.0000    0    12.011   -0.303749   -3.579399   -1.913571
  10 S    16.0000    0    32.060   -3.102719   -2.206584   -3.372092
  11 P    15.0000    0    30.974   -3.417990    1.245488   -1.360917
  12 S    16.0000    0    32.060   -6.645895    3.014288   -1.705277
  13 O     8.0000    0    15.999   -1.013780    2.883330   -2.115466
  14 C     6.0000    0    12.011   -1.028140    4.517843   -4.291390
  15 C     6.0000    0    12.011   -0.783314    3.050777   -6.740294
  16 O     8.0000    0    15.999   -2.533513    0.570246    1.433547
  17 C     6.0000    0    12.011   -4.370141    0.171981    3.399979
  18 C     6.0000    0    12.011   -5.714086   -2.341108    3.120661
  19 H     1.0000    0     1.008    2.439233    6.619939    4.104080
  20 H     1.0000    0     1.008    3.397052    7.947549    1.181961
  21 H     1.0000    0     1.008    0.498777    6.278744    1.413291
  22 H     1.0000    0     1.008    5.757173    3.948689    2.070791
  23 H     1.0000    0     1.008    3.795174    3.602940   -0.648741
  24 H     1.0000    0     1.008    7.596833   -2.890474   -0.855578
  25 H     1.0000    0     1.008    9.552561   -2.308122    1.837085
  26 H     1.0000    0     1.008    7.024970   -5.531079    4.258708
  27 H     1.0000    0     1.008    5.228999   -6.150633    1.519712
  28 H     1.0000    0     1.008    8.497458   -6.863084    1.561396
  29 H     1.0000    0     1.008   -0.692403   -4.069104    0.055890
  30 H     1.0000    0     1.008    0.079828   -5.258409   -3.034421
  31 H     1.0000    0     1.008   -2.776810    5.624452   -4.267192
  32 H     1.0000    0     1.008    0.587422    5.763982   -3.991628
  33 H     1.0000    0     1.008    0.843908    1.797246   -6.661438
  34 H     1.0000    0     1.008   -2.475166    1.925945   -7.069133
  35 H     1.0000    0     1.008   -0.550667    4.370277   -8.292970
  36 H     1.0000    0     1.008   -3.265511    0.247089    5.139598
  37 H     1.0000    0     1.008   -5.723886    1.734599    3.352359
  38 H     1.0000    0     1.008   -4.364578   -3.888388    3.217786
  39 H     1.0000    0     1.008   -7.072046   -2.547119    4.643427
  40 H     1.0000    0     1.008   -6.711838   -2.410000    1.319860

--------------------------------
INTERNAL COORDINATES (ANGSTROEM)
--------------------------------
 C      0   0   0     0.000000000000     0.00000000     0.00000000
 C      1   0   0     1.514295453060     0.00000000     0.00000000
 O      2   1   0     1.447770790383   107.68360562     0.00000000
 P      3   2   1     1.576572742555   122.75730654   167.95335029
 S      4   3   2     1.956115416149   111.13428717   173.49079987
 O      4   3   2     1.596969192924    99.46086216    50.02111072
 C      6   4   3     1.438907466780   126.07200879   195.57019125
 C      7   6   4     1.514547301355   113.08492578   304.13291600
 S      4   3   2     2.132123478740   109.96810203   304.11244486
 C      9   4   3     1.809175461840   100.08527866   248.03379585
 S     10   9   4     1.821333558342   115.13128596   115.62856213
 P     11  10   9     2.120741378286   101.23800360   304.62981074
 S     12  11  10     1.956282589195   115.72677187   194.41393518
 O     12  11  10     1.590360175845   106.29015992    66.09724338
 C     14  12  11     1.440147982945   121.58937361    87.86798511
 C     15  14  12     1.516196864776   112.04873528   284.12985842
 O     12  11  10     1.591696005104   104.46142730   324.27559092
 C     17  12  11     1.439388260432   120.39554515   258.71524193
 C     18  17  12     1.515316782138   112.01703535    73.93451848
 H      1   2   3     1.086340484315   110.02694143    59.50388004
 H      1   2   3     1.085374105003   109.33336171   179.67619733
 H      1   2   3     1.087182794031   110.00508536   299.93229618
 H      2   1   3     1.092007113904   111.60328526   241.59841207
 H      2   1   3     1.093739338730   111.58446730   118.84687758
 H      7   6   4     1.093490376942   108.21985730    67.19699513
 H      7   6   4     1.091544069752   103.42257459   183.64826475
 H      8   7   6     1.087490537896   110.44702840   305.89412457
 H      8   7   6     1.088739650590   110.42701757    65.65946273
 H      8   7   6     1.085225752737   109.27242810   185.59884775
 H     10   9   4     1.093444740133   108.11774324   351.91882137
 H     10   9   4     1.087393143934   107.88857049   231.57871632
 H     15  14  12     1.095155886773   108.43661284    46.80455110
 H     15  14  12     1.091281463480   104.03819677   163.52690859
 H     16  15  14     1.087766443531   110.30994884   307.68652938
 H     16  15  14     1.089095538656   110.25302964    67.97367614
 H     16  15  14     1.085265828847   109.10776908   187.52687017
 H     18  17  12     1.091199303979   104.05489662   194.45480803
 H     18  17  12     1.094344031717   108.34411232   311.52360818
 H     19  18  17     1.087672395210   110.35908919    60.39613378
 H     19  18  17     1.085176534854   109.05787990   179.99299976
 H     19  18  17     1.090045703279   109.99614789   299.44398367

---------------------------
INTERNAL COORDINATES (A.U.)
---------------------------
 C      0   0   0     0.000000000000     0.00000000     0.00000000
 C      1   0   0     2.861603692126     0.00000000     0.00000000
 O      2   1   0     2.735890298514   107.68360562     0.00000000
 P      3   2   1     2.979290713633   122.75730654   167.95335029
 S      4   3   2     3.696522422863   111.13428717   173.49079987
 O      4   3   2     3.017834418936    99.46086216    50.02111072
 C      6   4   3     2.719141044269   126.07200879   195.57019125
 C      7   6   4     2.862079616430   113.08492578   304.13291600
 S      4   3   2     4.029129458523   109.96810203   304.11244486
 C      9   4   3     3.418846151088   100.08527866   248.03379585
 S     10   9   4     3.441821623787   115.13128596   115.62856213
 P     11  10   9     4.007620405834   101.23800360   304.62981074
 S     12  11  10     3.696838334137   115.72677187   194.41393518
 O     12  11  10     3.005345186641   106.29015992    66.09724338
 C     14  12  11     2.721485280085   121.58937361    87.86798511
 C     15  14  12     2.865196839536   112.04873528   284.12985842
 O     12  11  10     3.007869538103   104.46142730   324.27559092
 C     17  12  11     2.720049612597   120.39554515   258.71524193
 C     18  17  12     2.863533724376   112.01703535    73.93451848
 H      1   2   3     2.052886003547   110.02694143    59.50388004
 H      1   2   3     2.051059811306   109.33336171   179.67619733
 H      1   2   3     2.054477738229   110.00508536   299.93229618
 H      2   1   3     2.063594381572   111.60328526   241.59841207
 H      2   1   3     2.066867812095   111.58446730   118.84687758
 H      7   6   4     2.066397342500   108.21985730    67.19699513
 H      7   6   4     2.062719354937   103.42257459   183.64826475
 H      8   7   6     2.055059289853   110.44702840   305.89412457
 H      8   7   6     2.057419770756   110.42701757    65.65946273
 H      8   7   6     2.050779466152   109.27242810   185.59884775
 H     10   9   4     2.066311101429   108.11774324   351.91882137
 H     10   9   4     2.054875241938   107.88857049   231.57871632
 H     15  14  12     2.069544699952   108.43661284    46.80455110
 H     15  14  12     2.062223101003   104.03819677   163.52690859
 H     16  15  14     2.055580675942   110.30994884   307.68652938
 H     16  15  14     2.058092301735   110.25302964    67.97367614
 H     16  15  14     2.050855199024   109.10776908   187.52687017
 H     18  17  12     2.062067842046   104.05489662   194.45480803
 H     18  17  12     2.068010516237   108.34411232   311.52360818
 H     19  18  17     2.055402950373   110.35908919    60.39613378
 H     19  18  17     2.050686457831   109.05787990   179.99299976
 H     19  18  17     2.059887852654   109.99614789   299.44398367

---------------------
BASIS SET INFORMATION
---------------------
There are 5 groups of distinct atoms

 Group   1 Type C   : 7s4p1d contracted to 3s2p1d pattern {511/31/1}
 Group   2 Type O   : 7s4p1d contracted to 3s2p1d pattern {511/31/1}
 Group   3 Type P   : 10s7p1d contracted to 4s3p1d pattern {5311/511/1}
 Group   4 Type S   : 10s7p1d contracted to 4s3p1d pattern {5311/511/1}
 Group   5 Type H   : 4s contracted to 2s pattern {31}

Atom   0C    basis set group =>   1
Atom   1C    basis set group =>   1
Atom   2O    basis set group =>   2
Atom   3P    basis set group =>   3
Atom   4S    basis set group =>   4
Atom   5O    basis set group =>   2
Atom   6C    basis set group =>   1
Atom   7C    basis set group =>   1
Atom   8S    basis set group =>   4
Atom   9C    basis set group =>   1
Atom  10S    basis set group =>   4
Atom  11P    basis set group =>   3
Atom  12S    basis set group =>   4
Atom  13O    basis set group =>   2
Atom  14C    basis set group =>   1
Atom  15C    basis set group =>   1
Atom  16O    basis set group =>   2
Atom  17C    basis set group =>   1
Atom  18C    basis set group =>   1
Atom  19H    basis set group =>   5
Atom  20H    basis set group =>   5
Atom  21H    basis set group =>   5
Atom  22H    basis set group =>   5
Atom  23H    basis set group =>   5
Atom  24H    basis set group =>   5
Atom  25H    basis set group =>   5
Atom  26H    basis set group =>   5
Atom  27H    basis set group =>   5
Atom  28H    basis set group =>   5
Atom  29H    basis set group =>   5
Atom  30H    basis set group =>   5
Atom  31H    basis set group =>   5
Atom  32H    basis set group =>   5
Atom  33H    basis set group =>   5
Atom  34H    basis set group =>   5
Atom  35H    basis set group =>   5
Atom  36H    basis set group =>   5
Atom  37H    basis set group =>   5
Atom  38H    basis set group =>   5
Atom  39H    basis set group =>   5
Atom  40H    basis set group =>   5
---------------------------------
AUXILIARY/J BASIS SET INFORMATION
---------------------------------
There are 5 groups of distinct atoms

 Group   1 Type C   : 12s5p4d2f1g contracted to 6s4p3d1f1g pattern {711111/2111/211/2/1}
 Group   2 Type O   : 12s5p4d2f1g contracted to 6s4p3d1f1g pattern {711111/2111/211/2/1}
 Group   3 Type P   : 14s5p5d2f1g contracted to 8s4p3d1f1g pattern {71111111/2111/311/2/1}
 Group   4 Type S   : 14s5p5d2f1g contracted to 8s4p3d1f1g pattern {71111111/2111/311/2/1}
 Group   5 Type H   : 5s2p1d contracted to 3s1p1d pattern {311/2/1}

Atom   0C    basis set group =>   1
Atom   1C    basis set group =>   1
Atom   2O    basis set group =>   2
Atom   3P    basis set group =>   3
Atom   4S    basis set group =>   4
Atom   5O    basis set group =>   2
Atom   6C    basis set group =>   1
Atom   7C    basis set group =>   1
Atom   8S    basis set group =>   4
Atom   9C    basis set group =>   1
Atom  10S    basis set group =>   4
Atom  11P    basis set group =>   3
Atom  12S    basis set group =>   4
Atom  13O    basis set group =>   2
Atom  14C    basis set group =>   1
Atom  15C    basis set group =>   1
Atom  16O    basis set group =>   2
Atom  17C    basis set group =>   1
Atom  18C    basis set group =>   1
Atom  19H    basis set group =>   5
Atom  20H    basis set group =>   5
Atom  21H    basis set group =>   5
Atom  22H    basis set group =>   5
Atom  23H    basis set group =>   5
Atom  24H    basis set group =>   5
Atom  25H    basis set group =>   5
Atom  26H    basis set group =>   5
Atom  27H    basis set group =>   5
Atom  28H    basis set group =>   5
Atom  29H    basis set group =>   5
Atom  30H    basis set group =>   5
Atom  31H    basis set group =>   5
Atom  32H    basis set group =>   5
Atom  33H    basis set group =>   5
Atom  34H    basis set group =>   5
Atom  35H    basis set group =>   5
Atom  36H    basis set group =>   5
Atom  37H    basis set group =>   5
Atom  38H    basis set group =>   5
Atom  39H    basis set group =>   5
Atom  40H    basis set group =>   5
------------------------------------------------------------------------------
                             ORCA STARTUP CALCULATIONS
                           -- RI-GTO INTEGRALS CHOSEN --
------------------------------------------------------------------------------
------------------------------------------------------------------------------
                   ___                                                        
                  /   \      - P O W E R E D   B Y -                         
                 /     \                                                     
                 |  |  |   _    _      __       _____    __    __             
                 |  |  |  | |  | |    /  \     |  _  \  |  |  /  |          
                  \  \/   | |  | |   /    \    | | | |  |  | /  /          
                 / \  \   | |__| |  /  /\  \   | |_| |  |  |/  /          
                |  |  |   |  __  | /  /__\  \  |    /   |      \           
                |  |  |   | |  | | |   __   |  |    \   |  |\   \          
                \     /   | |  | | |  |  |  |  | |\  \  |  | \   \       
                 \___/    |_|  |_| |__|  |__|  |_| \__\ |__|  \__/        
                                                                              
                      - O R C A' S   B I G   F R I E N D -                    
                                      &                                       
                       - I N T E G R A L  F E E D E R -                       
                                                                              
 v1 FN, 2020, v2 2021, v3 2022-2024                                           
------------------------------------------------------------------------------


----------------------
SHARK INTEGRAL PACKAGE
----------------------

Number of atoms                             ...     41
Number of basis functions                   ...    334
Number of shells                            ...    170
Maximum angular momentum                    ...      2
Integral batch strategy                     ... SHARK/LIBINT Hybrid
RI-J (if used) integral strategy            ... SPLIT-RIJ (Revised 2003 algorithm where possible)
Printlevel                                  ...      1
Contraction scheme used                     ... SEGMENTED contraction
Prescreening option                         ... SCHWARTZ
   Thresh                                   ... 1.000e-09
   Tcut                                     ... 1.000e-10
   Tpresel                                  ... 1.000e-10 
Coulomb Range Separation                    ... NOT USED
Exchange Range Separation                   ... NOT USED
Multipole approximations                    ... NOT USED
Finite Nucleus Model                        ... NOT USED
CABS basis                                  ... NOT available
Auxiliary Coulomb fitting basis             ... AVAILABLE
   # of basis functions in Aux-J            ...   1185
   # of shells in Aux-J                     ...    407
   Maximum angular momentum in Aux-J        ...      4
Auxiliary J/K fitting basis                 ... NOT available
Auxiliary Correlation fitting basis         ... NOT available
Auxiliary 'external' fitting basis          ... NOT available

Checking pre-screening integrals            ... done (  0.0 sec) Dimension = 170
Check shell pair data                       ... done (  0.0 sec)
Shell pair information
Shell pair cut-off parameter TPreSel        ...   1.0e-10
Total number of shell pairs                 ...     14535
Shell pairs after pre-screening             ...     11179
Total number of primitive shell pairs       ...     62501
Primitive shell pairs kept                  ...     27737
          la=0 lb=0:   4353 shell pairs
          la=1 lb=0:   3777 shell pairs
          la=1 lb=1:    859 shell pairs
          la=2 lb=0:   1424 shell pairs
          la=2 lb=1:    642 shell pairs
          la=2 lb=2:    124 shell pairs

Calculating one electron integrals          ... done (  0.1 sec)
Calculating RI/J V-Matrix + Cholesky decomp.... done (  0.1 sec)
Calculating Nuclear repulsion               ... done (  0.0 sec) ENN=   2874.957946782248 Eh

Diagonalization of the overlap matrix:
Smallest eigenvalue                        ... 3.291e-03
Time for diagonalization                   ...    0.010 sec
Threshold for overlap eigenvalues          ... 1.000e-07
Number of eigenvalues below threshold      ... 0
Time for construction of square roots      ...    0.025 sec
Total time needed                          ...    0.044 sec

-------------------
DFT GRID GENERATION
-------------------

General Integration Accuracy     IntAcc      ... 4.159
Radial Grid Type                 RadialGrid  ... OptM3 with GC (2021)
Angular Grid (max. ang.)         AngularGrid ... 3 (Lebedev-194)
Angular grid pruning method      GridPruning ... 4 (adaptive)
Weight generation scheme         WeightScheme... mBecke (2022)
Basis function cutoff            BFCut       ... 1.0000e-10
Integration weight cutoff        WCut        ... 1.0000e-14
Partially contracted basis set               ... off
Rotationally invariant grid construction     ... off
Angular grids for H and He will be reduced by one unit

Total number of grid points                  ...    97048
Total number of batches                      ...     1536
Average number of points per batch           ...       63
Average number of grid points per atom       ...     2367
Initializing property integral containers    ... done (  0.0 sec)

SHARK setup successfully completed in   1.6 seconds

Maximum memory used throughout the entire STARTUP-calculation: 53.1 MB
-------------------------------------------------------------------------------
                                 ORCA GUESS
                   Start orbitals & Density for SCF / CASSCF
-------------------------------------------------------------------------------

------------
SCF SETTINGS
------------
Hamiltonian:
 Density Functional     Method          .... DFT(GTOs)
 Exchange Functional    Exchange        .... PBE
   PBE kappa parameter   XKappa         ....  0.804000
   PBE mue parameter    XMuePBE         ....  0.219520
 Correlation Functional Correlation     .... PBE
   PBE beta parameter  CBetaPBE         ....  0.066725
 LDA part of GGA corr.  LDAOpt          .... PW91-LDA
 Gradients option       PostSCFGGA      .... off
   NL short-range parameter             ....  6.400000
 RI-approximation to the Coulomb term is turned on
   Number of AuxJ basis functions       .... 1185


General Settings:
 Integral files         IntName         .... sp
 Hartree-Fock type      HFTyp           .... RHF
 Total Charge           Charge          ....    0
 Multiplicity           Mult            ....    1
 Number of Electrons    NEL             ....  202
 Basis Dimension        Dim             ....  334
 Nuclear Repulsion      ENuc            ....   2874.9579467822 Eh

Convergence Acceleration:
 AO-DIIS                CNVDIIS         .... on
   Start iteration      DIISMaxIt       ....    12
   Startup error        DIISStart       ....  0.200000
   # of expansion vecs  DIISMaxEq       ....     5
   Bias factor          DIISBfac        ....   1.050
   Max. coefficient     DIISMaxC        ....  10.000
 MO-DIIS                CNVKDIIS        .... off
 Trust-Rad. Augm. Hess. CNVTRAH         .... auto
   Auto Start mean grad. ratio tolernc. ....  1.125000
   Auto Start start iteration           ....    50
   Auto Start num. interpolation iter.  ....    10
   Max. Number of Micro iterations      ....    24
   Max. Number of Macro iterations      .... Maxiter - #DIIS iter
   Number of Davidson start vectors     ....     2
   Converg. threshold    (grad. norm)   ....   1.000e-04
   Grad. Scal. Fac. for Micro threshold ....   0.100
   Minimum threshold for Micro iter.    ....   1.000e-02
   NR start threshold (gradient norm)   ....   1.000e-04
   Initial trust radius                 ....   0.400
   Minimum AH scaling param. (alpha)    ....   1.000
   Maximum AH scaling param. (alpha)    .... 1000.000
   Quad. conv. algorithm                .... NR
   White noise on init. David. guess    .... on
   Maximum white noise                  ....   0.010
   Pseudo random numbers                .... off
   Inactive MOs                         .... canonical
   Orbital update algorithm             .... Taylor
   Preconditioner                       .... Diag
   Full preconditioner red. dimension   ....   250
 SOSCF                  CNVSOSCF        .... on
   Start iteration      SOSCFMaxIt      ....   150
   Startup grad/error   SOSCFStart      ....  0.003300
   Hessian update       SOSCFHessUp     .... L-BFGS
 Level Shifting         CNVShift        .... on
   Level shift para.    LevelShift      ....    0.2500
   Turn off err/grad.   ShiftErr        ....    0.0010
 Zerner damping         CNVZerner       .... off
 Static damping         CNVDamp         .... on
   Fraction old density DampFac         ....    0.7000
   Max. Damping (<1)    DampMax         ....    0.9800
   Min. Damping (>=0)   DampMin         ....    0.0000
   Turn off err/grad.   DampErr         ....    0.1000

SCF Procedure:
 Maximum # iterations   MaxIter         ....   125
 SCF integral mode      SCFMode         .... Direct
   Integral package                     .... SHARK and LIBINT hybrid scheme
 Reset frequency        DirectResetFreq ....    20
 Integral Threshold     Thresh          ....  1.000e-09 Eh
 Primitive CutOff       TCut            ....  1.000e-10 Eh

Convergence Tolerance:
 Convergence Check Mode ConvCheckMode   .... Total+1el-Energy
 Convergence forced     ConvForced      .... 0
 Energy Change          TolE            ....  1.000e-05 Eh
 1-El. energy change                    ....  1.000e-02 Eh
 Orbital Gradient       TolG            ....  1.000e-04
 Orbital Rotation angle TolX            ....  1.000e-04
 DIIS Error             TolErr          ....  5.000e-04

------------------------------
INITIAL GUESS: MODEL POTENTIAL
------------------------------
Loading Hartree-Fock densities                     ... done
Calculating cut-offs                               ... done
Initializing the effective Hamiltonian             ... done
Setting up the integral package (SHARK)            ... done
Starting the Coulomb interaction                   ... done (   0.7 sec)
Making the grid                                    ... done (   0.6 sec)
Mapping shells                                     ... done
Starting the XC term evaluation                    ... done (   0.4 sec)
  promolecular density results
     # of electrons  =    201.990843543
     EX              =   -229.998210646
     EC              =     -7.295523936
     EX+EC           =   -237.293734582
Transforming the Hamiltonian                       ... done (   0.0 sec)
Diagonalizing the Hamiltonian                      ... done (   0.0 sec)
Back transforming the eigenvectors                 ... done (   0.0 sec)
Now organizing SCF variables                       ... done
                      ------------------
                      INITIAL GUESS DONE (   1.8 sec)
                      ------------------
             **** ENERGY FILE WAS UPDATED (sp.en.tmp) ****
Finished Guess after   2.1 sec
Maximum memory used throughout the entire GUESS-calculation: 40.4 MB

-------------------------------------------------------------------------------------------
                                      ORCA LEAN-SCF
                              memory conserving SCF solver
-------------------------------------------------------------------------------------------

----------------------------------------D-I-I-S--------------------------------------------
Iteration    Energy (Eh)           Delta-E    RMSDP     MaxDP     DIISErr   Damp  Time(sec)
-------------------------------------------------------------------------------------------
               ***  Starting incremental Fock matrix formation  ***
    1    -2929.1852948690002449     0.00e+00  2.73e-03  1.41e-01  1.80e-01  0.700   2.3
    2    -2929.4129198783912216    -2.28e-01  1.75e-03  7.37e-02  7.50e-02  0.700   2.3
                               ***Turning on AO-DIIS***
    3    -2929.4838866602422058    -7.10e-02  6.78e-04  1.87e-02  2.09e-02  0.700   2.2
    4    -2929.5291490459767374    -4.53e-02  1.02e-03  3.59e-02  1.02e-02  0.000   2.1
    5    -2929.6352337249409175    -1.06e-01  3.16e-04  1.26e-02  7.51e-03  0.000   2.1
                              *** Initializing SOSCF ***
---------------------------------------S-O-S-C-F--------------------------------------
Iteration    Energy (Eh)           Delta-E    RMSDP     MaxDP     MaxGrad    Time(sec)
--------------------------------------------------------------------------------------
    6    -2929.6363375536648164    -1.10e-03  1.13e-04  3.43e-03  1.94e-03     2.0
               *** Restarting incremental Fock matrix formation ***
    7    -2929.6364757184774135    -1.38e-04  7.20e-05  1.90e-03  1.96e-04     2.4
    8    -2929.6364775030251622    -1.78e-06  3.57e-05  9.27e-04  2.48e-04     1.9
                 **** Energy Check signals convergence ****

               *****************************************************
               *                     SUCCESS                       *
               *           SCF CONVERGED AFTER   8 CYCLES          *
               *****************************************************

             **** ENERGY FILE WAS UPDATED (sp.en.tmp) ****

----------------
TOTAL SCF ENERGY
----------------

Total Energy       :      -2929.63647750302516 Eh          -79719.46141 eV

Components:
Nuclear Repulsion  :       2874.95794678224775 Eh           78231.58295 eV
Electronic Energy  :      -5804.59442428527291 Eh         -157951.04436 eV
One Electron Energy:      -9768.41327305426967 Eh         -265812.03878 eV
Two Electron Energy:       3963.81884876899676 Eh          107860.99442 eV

Virial components:
Potential Energy   :      -5848.90117357749477 Eh         -159156.69230 eV
Kinetic Energy     :       2919.26469607446961 Eh           79437.23089 eV
Virial Ratio       :          2.00355287461343

DFT components:
N(Alpha)           :      101.000063772475 electrons
N(Beta)            :      101.000063772475 electrons
N(Total)           :      202.000127544951 electrons
E(X)               :     -231.801319289546 Eh       
E(C)               :       -7.299494397801 Eh       
E(XC)              :     -239.100813687347 Eh       

---------------
SCF CONVERGENCE
---------------

  Last Energy change         ...    1.7845e-06  Tolerance :   1.0000e-05
  Last MAX-Density change    ...    9.2651e-04  Tolerance :   1.0000e-03
  Last RMS-Density change    ...    3.5700e-05  Tolerance :   1.0000e-04
  Last DIIS Error            ...    1.9434e-03  Tolerance :   5.0000e-04
  Last Orbital Gradient      ...    2.4827e-04  Tolerance :   1.0000e-04
  Last Orbital Rotation      ...    4.9322e-04  Tolerance :   1.0000e-04


----------------
ORBITAL ENERGIES
----------------

  NO   OCC          E(Eh)            E(eV) 
   0   2.0000     -88.050289     -2395.9702 
   1   2.0000     -88.044237     -2395.8055 
   2   2.0000     -87.988711     -2394.2945 
   3   2.0000     -87.988383     -2394.2856 
   4   2.0000     -76.429925     -2079.7640 
   5   2.0000     -76.425544     -2079.6448 
   6   2.0000     -18.796349      -511.4747 
   7   2.0000     -18.790058      -511.3035 
   8   2.0000     -18.789786      -511.2961 
   9   2.0000     -18.786409      -511.2042 
  10   2.0000      -9.959253      -271.0051 
  11   2.0000      -9.958870      -270.9946 
  12   2.0000      -9.954461      -270.8747 
  13   2.0000      -9.953664      -270.8530 
  14   2.0000      -9.940629      -270.4983 
  15   2.0000      -9.885917      -269.0095 
  16   2.0000      -9.885422      -268.9960 
  17   2.0000      -9.884376      -268.9676 
  18   2.0000      -9.872858      -268.6541 
  19   2.0000      -7.694686      -209.3830 
  20   2.0000      -7.689262      -209.2355 
  21   2.0000      -7.633787      -207.7259 
  22   2.0000      -7.633517      -207.7186 
  23   2.0000      -6.426827      -174.8828 
  24   2.0000      -6.423180      -174.7836 
  25   2.0000      -5.722479      -155.7166 
  26   2.0000      -5.719149      -155.6260 
  27   2.0000      -5.717488      -155.5808 
  28   2.0000      -5.713446      -155.4708 
  29   2.0000      -5.711832      -155.4268 
  30   2.0000      -5.706239      -155.2747 
  31   2.0000      -5.662844      -154.0938 
  32   2.0000      -5.662478      -154.0838 
  33   2.0000      -5.654434      -153.8650 
  34   2.0000      -5.654128      -153.8566 
  35   2.0000      -5.653675      -153.8443 
  36   2.0000      -5.653650      -153.8436 
  37   2.0000      -4.649505      -126.5194 
  38   2.0000      -4.648794      -126.5001 
  39   2.0000      -4.647129      -126.4548 
  40   2.0000      -4.645428      -126.4085 
  41   2.0000      -4.645392      -126.4075 
  42   2.0000      -4.643471      -126.3553 
  43   2.0000      -0.989842       -26.9350 
  44   2.0000      -0.985050       -26.8046 
  45   2.0000      -0.943645       -25.6779 
  46   2.0000      -0.942528       -25.6475 
  47   2.0000      -0.764289       -20.7974 
  48   2.0000      -0.722071       -19.6485 
  49   2.0000      -0.710001       -19.3201 
  50   2.0000      -0.690894       -18.8002 
  51   2.0000      -0.683180       -18.5903 
  52   2.0000      -0.675985       -18.3945 
  53   2.0000      -0.654585       -17.8122 
  54   2.0000      -0.640867       -17.4389 
  55   2.0000      -0.599156       -16.3039 
  56   2.0000      -0.590920       -16.0798 
  57   2.0000      -0.572204       -15.5705 
  58   2.0000      -0.567960       -15.4550 
  59   2.0000      -0.564205       -15.3528 
  60   2.0000      -0.509487       -13.8638 
  61   2.0000      -0.492068       -13.3899 
  62   2.0000      -0.476464       -12.9652 
  63   2.0000      -0.465374       -12.6635 
  64   2.0000      -0.461018       -12.5449 
  65   2.0000      -0.449874       -12.2417 
  66   2.0000      -0.440818       -11.9953 
  67   2.0000      -0.431029       -11.7289 
  68   2.0000      -0.425572       -11.5804 
  69   2.0000      -0.418898       -11.3988 
  70   2.0000      -0.417389       -11.3577 
  71   2.0000      -0.403933       -10.9916 
  72   2.0000      -0.395975       -10.7750 
  73   2.0000      -0.389840       -10.6081 
  74   2.0000      -0.384496       -10.4627 
  75   2.0000      -0.369503       -10.0547 
  76   2.0000      -0.361012        -9.8236 
  77   2.0000      -0.354440        -9.6448 
  78   2.0000      -0.350907        -9.5487 
  79   2.0000      -0.350325        -9.5328 
  80   2.0000      -0.347367        -9.4523 
  81   2.0000      -0.344893        -9.3850 
  82   2.0000      -0.338033        -9.1983 
  83   2.0000      -0.332874        -9.0580 
  84   2.0000      -0.328686        -8.9440 
  85   2.0000      -0.322155        -8.7663 
  86   2.0000      -0.321375        -8.7450 
  87   2.0000      -0.300423        -8.1749 
  88   2.0000      -0.299282        -8.1439 
  89   2.0000      -0.295683        -8.0459 
  90   2.0000      -0.285247        -7.7620 
  91   2.0000      -0.271308        -7.3827 
  92   2.0000      -0.269728        -7.3397 
  93   2.0000      -0.262833        -7.1521 
  94   2.0000      -0.258486        -7.0338 
  95   2.0000      -0.230402        -6.2696 
  96   2.0000      -0.224560        -6.1106 
  97   2.0000      -0.212015        -5.7692 
  98   2.0000      -0.207395        -5.6435 
  99   2.0000      -0.201768        -5.4904 
 100   2.0000      -0.199567        -5.4305 
 101   0.0000      -0.042512        -1.1568 
 102   0.0000      -0.034377        -0.9354 
 103   0.0000      -0.023251        -0.6327 
 104   0.0000      -0.000581        -0.0158 
 105   0.0000       0.012700         0.3456 
 106   0.0000       0.018098         0.4925 
 107   0.0000       0.028531         0.7764 
 108   0.0000       0.032775         0.8919 
 109   0.0000       0.041056         1.1172 
 110   0.0000       0.048763         1.3269 
 111   0.0000       0.056729         1.5437 
*Only the first 10 virtual orbitals were printed.

                    ********************************
                    * MULLIKEN POPULATION ANALYSIS *
                    ********************************

-----------------------
MULLIKEN ATOMIC CHARGES
-----------------------
   0 C :   -0.291830
   1 C :   -0.012238
   2 O :   -0.352723
   3 P :    0.629559
   4 S :   -0.306866
   5 O :   -0.386711
   6 C :   -0.005845
   7 C :   -0.305626
   8 S :   -0.119860
   9 C :   -0.349802
  10 S :   -0.090368
  11 P :    0.604456
  12 S :   -0.319400
  13 O :   -0.361424
  14 C :   -0.014004
  15 C :   -0.308021
  16 O :   -0.367856
  17 C :    0.004719
  18 C :   -0.324950
  19 H :    0.119605
  20 H :    0.105560
  21 H :    0.134482
  22 H :    0.106510
  23 H :    0.102497
  24 H :    0.107783
  25 H :    0.106468
  26 H :    0.127052
  27 H :    0.118192
  28 H :    0.110389
  29 H :    0.208079
  30 H :    0.180073
  31 H :    0.114012
  32 H :    0.102396
  33 H :    0.117115
  34 H :    0.126588
  35 H :    0.110709
  36 H :    0.111784
  37 H :    0.110686
  38 H :    0.129145
  39 H :    0.108847
  40 H :    0.120819
Sum of atomic charges:   -0.0000000

--------------------------------
MULLIKEN REDUCED ORBITAL CHARGES
--------------------------------
  0 C s       :     3.095563  s :     3.095563
      pz      :     1.082189  p :     3.168615
      px      :     1.077367
      py      :     1.009059
      dz2     :     0.008102  d :     0.027652
      dxz     :     0.003091
      dyz     :     0.004625
      dx2y2   :     0.006186
      dxy     :     0.005648

  1 C s       :     3.069752  s :     3.069752
      pz      :     1.012549  p :     2.882656
      px      :     1.008737
      py      :     0.861370
      dz2     :     0.014121  d :     0.059831
      dxz     :     0.006039
      dyz     :     0.011683
      dx2y2   :     0.015385
      dxy     :     0.012603

  2 O s       :     3.766680  s :     3.766680
      pz      :     1.668346  p :     4.572665
      px      :     1.678644
      py      :     1.225675
      dz2     :     0.002013  d :     0.013378
      dxz     :     0.002038
      dyz     :     0.003331
      dx2y2   :     0.002822
      dxy     :     0.003173

  3 P s       :     5.203656  s :     5.203656
      pz      :     2.912238  p :     8.581069
      px      :     2.807793
      py      :     2.861039
      dz2     :     0.125899  d :     0.585716
      dxz     :     0.088915
      dyz     :     0.097833
      dx2y2   :     0.163804
      dxy     :     0.109265

  4 S s       :     5.914195  s :     5.914195
      pz      :     3.349659  p :    10.349853
      px      :     3.543749
      py      :     3.456445
      dz2     :     0.007257  d :     0.042818
      dxz     :     0.009468
      dyz     :     0.012176
      dx2y2   :     0.005171
      dxy     :     0.008747

  5 O s       :     3.757596  s :     3.757596
      pz      :     1.730930  p :     4.616589
      px      :     1.293800
      py      :     1.591859
      dz2     :     0.001853  d :     0.012527
      dxz     :     0.002374
      dyz     :     0.001836
      dx2y2   :     0.003839
      dxy     :     0.002625

  6 C s       :     3.076529  s :     3.076529
      pz      :     1.033658  p :     2.868683
      px      :     0.944043
      py      :     0.890982
      dz2     :     0.015341  d :     0.060633
      dxz     :     0.006415
      dyz     :     0.009633
      dx2y2   :     0.013451
      dxy     :     0.015792

  7 C s       :     3.103959  s :     3.103959
      pz      :     1.085588  p :     3.173660
      px      :     1.075434
      py      :     1.012638
      dz2     :     0.008944  d :     0.028007
      dxz     :     0.002908
      dyz     :     0.004011
      dx2y2   :     0.004802
      dxy     :     0.007342

  8 S s       :     5.878839  s :     5.878839
      pz      :     3.269640  p :    10.166054
      px      :     3.320265
      py      :     3.576149
      dz2     :     0.026739  d :     0.074966
      dxz     :     0.010985
      dyz     :     0.009710
      dx2y2   :     0.010244
      dxy     :     0.017288

  9 C s       :     3.212755  s :     3.212755
      pz      :     1.159455  p :     3.097445
      px      :     0.895388
      py      :     1.042602
      dz2     :     0.008305  d :     0.039603
      dxz     :     0.005670
      dyz     :     0.007309
      dx2y2   :     0.009996
      dxy     :     0.008323

 10 S s       :     5.881943  s :     5.881943
      pz      :     3.562154  p :    10.134358
      px      :     3.322194
      py      :     3.250010
      dz2     :     0.008840  d :     0.074067
      dxz     :     0.014542
      dyz     :     0.017463
      dx2y2   :     0.019118
      dxy     :     0.014105

 11 P s       :     5.212101  s :     5.212101
      pz      :     2.845983  p :     8.598674
      px      :     2.851734
      py      :     2.900956
      dz2     :     0.117050  d :     0.584770
      dxz     :     0.113730
      dyz     :     0.115373
      dx2y2   :     0.119842
      dxy     :     0.118775

 12 S s       :     5.919644  s :     5.919644
      pz      :     3.662909  p :    10.356843
      px      :     3.200519
      py      :     3.493415
      dz2     :     0.006023  d :     0.042913
      dxz     :     0.007792
      dyz     :     0.002517
      dx2y2   :     0.011560
      dxy     :     0.015021

 13 O s       :     3.764603  s :     3.764603
      pz      :     1.514617  p :     4.583731
      px      :     1.552474
      py      :     1.516640
      dz2     :     0.002940  d :     0.013090
      dxz     :     0.002370
      dyz     :     0.002060
      dx2y2   :     0.002407
      dxy     :     0.003313

 14 C s       :     3.080237  s :     3.080237
      pz      :     0.827546  p :     2.873155
      px      :     1.088858
      py      :     0.956751
      dz2     :     0.018157  d :     0.060613
      dxz     :     0.007228
      dyz     :     0.016716
      dx2y2   :     0.004707
      dxy     :     0.013805

 15 C s       :     3.101518  s :     3.101518
      pz      :     1.020157  p :     3.178552
      px      :     1.096064
      py      :     1.062331
      dz2     :     0.005916  d :     0.027951
      dxz     :     0.002657
      dyz     :     0.007918
      dx2y2   :     0.002306
      dxy     :     0.009153

 16 O s       :     3.766261  s :     3.766261
      pz      :     1.260080  p :     4.588175
      px      :     1.566577
      py      :     1.761519
      dz2     :     0.003225  d :     0.013420
      dxz     :     0.004226
      dyz     :     0.001988
      dx2y2   :     0.002115
      dxy     :     0.001866

 17 C s       :     3.068858  s :     3.068858
      pz      :     0.894676  p :     2.866020
      px      :     0.913287
      py      :     1.058056
      dz2     :     0.012417  d :     0.060404
      dxz     :     0.018277
      dyz     :     0.007108
      dx2y2   :     0.008293
      dxy     :     0.014310

 18 C s       :     3.107871  s :     3.107871
      pz      :     1.078928  p :     3.189162
      px      :     1.069320
      py      :     1.040914
      dz2     :     0.005789  d :     0.027918
      dxz     :     0.008285
      dyz     :     0.001699
      dx2y2   :     0.004367
      dxy     :     0.007777

 19 H s       :     0.880395  s :     0.880395

 20 H s       :     0.894440  s :     0.894440

 21 H s       :     0.865518  s :     0.865518

 22 H s       :     0.893490  s :     0.893490

 23 H s       :     0.897503  s :     0.897503

 24 H s       :     0.892217  s :     0.892217

 25 H s       :     0.893532  s :     0.893532

 26 H s       :     0.872948  s :     0.872948

 27 H s       :     0.881808  s :     0.881808

 28 H s       :     0.889611  s :     0.889611

 29 H s       :     0.791921  s :     0.791921

 30 H s       :     0.819927  s :     0.819927

 31 H s       :     0.885988  s :     0.885988

 32 H s       :     0.897604  s :     0.897604

 33 H s       :     0.882885  s :     0.882885

 34 H s       :     0.873412  s :     0.873412

 35 H s       :     0.889291  s :     0.889291

 36 H s       :     0.888216  s :     0.888216

 37 H s       :     0.889314  s :     0.889314

 38 H s       :     0.870855  s :     0.870855

 39 H s       :     0.891153  s :     0.891153

 40 H s       :     0.879181  s :     0.879181


------------------------
MULLIKEN OVERLAP CHARGES
------------------------
B(  0-C ,  1-C ) :   0.8659 B(  0-C ,  2-O ) :  -0.1037 B(  0-C , 19-H ) :   0.7400 
B(  0-C , 20-H ) :   0.6985 B(  0-C , 21-H ) :   0.7335 B(  0-C , 22-H ) :  -0.0512 
B(  0-C , 23-H ) :  -0.0519 B(  1-C ,  2-O ) :   0.5154 B(  1-C , 22-H ) :   0.7330 
B(  1-C , 23-H ) :   0.7179 B(  2-O ,  3-P ) :   0.6501 B(  2-O ,  4-S ) :  -0.0666 
B(  2-O ,  5-O ) :  -0.0705 B(  2-O ,  8-S ) :  -0.0562 B(  2-O , 22-H ) :  -0.0594 
B(  2-O , 23-H ) :  -0.0630 B(  3-P ,  4-S ) :   0.9287 B(  3-P ,  5-O ) :   0.6262 
B(  3-P ,  6-C ) :  -0.0901 B(  3-P ,  8-S ) :   0.5510 B(  3-P ,  9-C ) :  -0.0771 
B(  4-S ,  5-O ) :  -0.0560 B(  4-S ,  8-S ) :  -0.0826 B(  4-S ,  9-C ) :  -0.0594 
B(  4-S , 29-H ) :   0.1239 B(  5-O ,  6-C ) :   0.5749 B(  5-O ,  7-C ) :  -0.0968 
B(  5-O ,  8-S ) :  -0.0800 B(  5-O , 24-H ) :  -0.0628 B(  5-O , 25-H ) :  -0.0588 
B(  6-C ,  7-C ) :   0.9252 B(  6-C , 24-H ) :   0.7393 B(  6-C , 25-H ) :   0.7278 
B(  7-C , 24-H ) :  -0.0758 B(  7-C , 26-H ) :   0.7404 B(  7-C , 27-H ) :   0.7322 
B(  7-C , 28-H ) :   0.6875 B(  8-S ,  9-C ) :   0.5042 B(  8-S , 10-S ) :  -0.1400 
B(  8-S , 29-H ) :  -0.0714 B(  8-S , 30-H ) :  -0.0558 B(  9-C , 10-S ) :   0.3790 
B(  9-C , 29-H ) :   0.6241 B(  9-C , 30-H ) :   0.7136 B( 10-S , 11-P ) :   0.5287 
B( 10-S , 12-S ) :  -0.0714 B( 10-S , 13-O ) :  -0.0661 B( 10-S , 16-O ) :  -0.0877 
B( 10-S , 30-H ) :  -0.0635 B( 11-P , 12-S ) :   0.9391 B( 11-P , 13-O ) :   0.5971 
B( 11-P , 14-C ) :  -0.0865 B( 11-P , 16-O ) :   0.6174 B( 11-P , 17-C ) :  -0.0958 
B( 12-S , 13-O ) :  -0.0665 B( 12-S , 16-O ) :  -0.0589 B( 12-S , 31-H ) :   0.0734 
B( 12-S , 37-H ) :   0.0625 B( 13-O , 14-C ) :   0.5693 B( 13-O , 15-C ) :  -0.0890 
B( 13-O , 16-O ) :  -0.0662 B( 13-O , 31-H ) :  -0.0669 B( 13-O , 32-H ) :  -0.0695 
B( 14-C , 15-C ) :   0.9297 B( 14-C , 31-H ) :   0.7185 B( 14-C , 32-H ) :   0.7155 
B( 15-C , 31-H ) :  -0.0650 B( 15-C , 32-H ) :  -0.0562 B( 15-C , 33-H ) :   0.7385 
B( 15-C , 34-H ) :   0.7304 B( 15-C , 35-H ) :   0.6964 B( 16-O , 17-C ) :   0.5544 
B( 16-O , 18-C ) :  -0.0829 B( 16-O , 36-H ) :  -0.0606 B( 16-O , 37-H ) :  -0.0628 
B( 17-C , 18-C ) :   0.9179 B( 17-C , 36-H ) :   0.7048 B( 17-C , 37-H ) :   0.7222 
B( 18-C , 37-H ) :  -0.0632 B( 18-C , 38-H ) :   0.7328 B( 18-C , 39-H ) :   0.6953 
B( 18-C , 40-H ) :   0.7234 B( 22-H , 23-H ) :  -0.0845 B( 24-H , 25-H ) :  -0.0693 
B( 26-H , 27-H ) :  -0.0536 B( 31-H , 32-H ) :  -0.0670 B( 33-H , 34-H ) :  -0.0505 
B( 36-H , 37-H ) :  -0.0667 


                     *******************************
                     * LOEWDIN POPULATION ANALYSIS *
                     *******************************

----------------------
LOEWDIN ATOMIC CHARGES
----------------------
   0 C :   -0.352796
   1 C :   -0.115576
   2 O :   -0.225885
   3 P :    0.580216
   4 S :   -0.284364
   5 O :   -0.249326
   6 C :   -0.117944
   7 C :   -0.368438
   8 S :    0.079804
   9 C :   -0.482543
  10 S :    0.080077
  11 P :    0.566744
  12 S :   -0.313717
  13 O :   -0.237610
  14 C :   -0.120988
  15 C :   -0.368308
  16 O :   -0.234770
  17 C :   -0.124028
  18 C :   -0.369825
  19 H :    0.129557
  20 H :    0.127700
  21 H :    0.130033
  22 H :    0.112239
  23 H :    0.103659
  24 H :    0.104964
  25 H :    0.119874
  26 H :    0.130400
  27 H :    0.118817
  28 H :    0.129461
  29 H :    0.122424
  30 H :    0.138451
  31 H :    0.109872
  32 H :    0.113341
  33 H :    0.120945
  34 H :    0.121325
  35 H :    0.129545
  36 H :    0.118210
  37 H :    0.107948
  38 H :    0.121203
  39 H :    0.130392
  40 H :    0.118917

-------------------------------
LOEWDIN REDUCED ORBITAL CHARGES
-------------------------------
  0 C s       :     2.949437  s :     2.949437
      pz      :     1.132249  p :     3.334648
      px      :     1.126642
      py      :     1.075756
      dz2     :     0.020259  d :     0.068711
      dxz     :     0.007236
      dyz     :     0.010720
      dx2y2   :     0.015559
      dxy     :     0.014937

  1 C s       :     2.928968  s :     2.928968
      pz      :     1.069266  p :     3.054193
      px      :     1.059344
      py      :     0.925582
      dz2     :     0.033349  d :     0.132415
      dxz     :     0.012317
      dyz     :     0.024287
      dx2y2   :     0.033344
      dxy     :     0.029119

  2 O s       :     3.503137  s :     3.503137
      pz      :     1.689812  p :     4.698657
      px      :     1.691173
      py      :     1.317672
      dz2     :     0.003134  d :     0.024092
      dxz     :     0.002675
      dyz     :     0.006306
      dx2y2   :     0.006166
      dxy     :     0.005812

  3 P s       :     5.059447  s :     5.059447
      pz      :     2.919595  p :     8.549168
      px      :     2.798697
      py      :     2.830876
      dz2     :     0.183100  d :     0.811169
      dxz     :     0.117275
      dyz     :     0.132526
      dx2y2   :     0.237783
      dxy     :     0.140486

  4 S s       :     5.757871  s :     5.757871
      pz      :     3.419702  p :    10.469193
      px      :     3.557862
      py      :     3.491629
      dz2     :     0.007924  d :     0.057299
      dxz     :     0.013647
      dyz     :     0.018064
      dx2y2   :     0.005638
      dxy     :     0.012027

  5 O s       :     3.495650  s :     3.495650
      pz      :     1.739486  p :     4.730364
      px      :     1.386270
      py      :     1.604608
      dz2     :     0.003187  d :     0.023312
      dxz     :     0.004045
      dyz     :     0.002714
      dx2y2   :     0.008212
      dxy     :     0.005154

  6 C s       :     2.925745  s :     2.925745
      pz      :     1.091388  p :     3.056429
      px      :     0.997150
      py      :     0.967891
      dz2     :     0.035934  d :     0.135770
      dxz     :     0.013136
      dyz     :     0.021040
      dx2y2   :     0.031638
      dxy     :     0.034021

  7 C s       :     2.953127  s :     2.953127
      pz      :     1.134026  p :     3.346046
      px      :     1.135446
      py      :     1.076575
      dz2     :     0.021743  d :     0.069264
      dxz     :     0.006653
      dyz     :     0.009828
      dx2y2   :     0.013433
      dxy     :     0.017607

  8 S s       :     5.637135  s :     5.637135
      pz      :     3.282961  p :    10.188301
      px      :     3.341710
      py      :     3.563631
      dz2     :     0.035155  d :     0.094760
      dxz     :     0.012703
      dyz     :     0.011520
      dx2y2   :     0.012591
      dxy     :     0.022792

  9 C s       :     3.062397  s :     3.062397
      pz      :     1.196945  p :     3.332341
      px      :     1.029390
      py      :     1.106007
      dz2     :     0.018808  d :     0.087805
      dxz     :     0.012025
      dyz     :     0.016053
      dx2y2   :     0.021699
      dxy     :     0.019219

 10 S s       :     5.647068  s :     5.647068
      pz      :     3.571692  p :    10.178936
      px      :     3.353326
      py      :     3.253918
      dz2     :     0.010362  d :     0.093919
      dxz     :     0.018141
      dyz     :     0.022026
      dx2y2   :     0.024852
      dxy     :     0.018537

 11 P s       :     5.062400  s :     5.062400
      pz      :     2.810435  p :     8.559393
      px      :     2.866756
      py      :     2.882201
      dz2     :     0.169262  d :     0.811463
      dxz     :     0.151681
      dyz     :     0.158505
      dx2y2   :     0.161898
      dxy     :     0.170117

 12 S s       :     5.764374  s :     5.764374
      pz      :     3.663935  p :    10.491206
      px      :     3.290468
      py      :     3.536803
      dz2     :     0.009295  d :     0.058137
      dxz     :     0.008742
      dyz     :     0.002763
      dx2y2   :     0.014801
      dxy     :     0.022535

 13 O s       :     3.503521  s :     3.503521
      pz      :     1.534926  p :     4.710250
      px      :     1.612663
      py      :     1.562661
      dz2     :     0.005643  d :     0.023839
      dxz     :     0.003631
      dyz     :     0.004152
      dx2y2   :     0.004075
      dxy     :     0.006339

 14 C s       :     2.927642  s :     2.927642
      pz      :     0.915088  p :     3.058522
      px      :     1.142620
      py      :     1.000815
      dz2     :     0.041319  d :     0.134824
      dxz     :     0.012739
      dyz     :     0.039577
      dx2y2   :     0.009245
      dxy     :     0.031944

 15 C s       :     2.953449  s :     2.953449
      pz      :     1.083970  p :     3.345682
      px      :     1.138760
      py      :     1.122952
      dz2     :     0.015791  d :     0.069178
      dxz     :     0.005202
      dyz     :     0.020895
      dx2y2   :     0.005336
      dxy     :     0.021953

 16 O s       :     3.504299  s :     3.504299
      pz      :     1.346747  p :     4.706260
      px      :     1.606198
      py      :     1.753315
      dz2     :     0.006851  d :     0.024211
      dxz     :     0.008555
      dyz     :     0.003625
      dx2y2   :     0.002808
      dxy     :     0.002372

 17 C s       :     2.928311  s :     2.928311
      pz      :     0.955000  p :     3.061143
      px      :     0.994374
      py      :     1.111770
      dz2     :     0.028396  d :     0.134573
      dxz     :     0.040857
      dyz     :     0.013092
      dx2y2   :     0.017302
      dxy     :     0.034926

 18 C s       :     2.953193  s :     2.953193
      pz      :     1.134456  p :     3.347559
      px      :     1.119075
      py      :     1.094028
      dz2     :     0.015023  d :     0.069072
      dxz     :     0.019897
      dyz     :     0.003684
      dx2y2   :     0.010208
      dxy     :     0.020260

 19 H s       :     0.870443  s :     0.870443

 20 H s       :     0.872300  s :     0.872300

 21 H s       :     0.869967  s :     0.869967

 22 H s       :     0.887761  s :     0.887761

 23 H s       :     0.896341  s :     0.896341

 24 H s       :     0.895036  s :     0.895036

 25 H s       :     0.880126  s :     0.880126

 26 H s       :     0.869600  s :     0.869600

 27 H s       :     0.881183  s :     0.881183

 28 H s       :     0.870539  s :     0.870539

 29 H s       :     0.877576  s :     0.877576

 30 H s       :     0.861549  s :     0.861549

 31 H s       :     0.890128  s :     0.890128

 32 H s       :     0.886659  s :     0.886659

 33 H s       :     0.879055  s :     0.879055

 34 H s       :     0.878675  s :     0.878675

 35 H s       :     0.870455  s :     0.870455

 36 H s       :     0.881790  s :     0.881790

 37 H s       :     0.892052  s :     0.892052

 38 H s       :     0.878797  s :     0.878797

 39 H s       :     0.869608  s :     0.869608

 40 H s       :     0.881083  s :     0.881083


---------------------------------
LOEWDIN BOND ORDERS (THRESH 0.050000)
---------------------------------
B(  0-C ,  1-C ) :   1.1552 B(  0-C ,  2-O ) :   0.0575 B(  0-C , 19-H ) :   0.9354 
B(  0-C , 20-H ) :   0.9288 B(  0-C , 21-H ) :   0.9317 B(  1-C ,  2-O ) :   1.0694 
B(  1-C ,  3-P ) :   0.0652 B(  1-C , 22-H ) :   0.9165 B(  1-C , 23-H ) :   0.9112 
B(  2-O ,  3-P ) :   1.3071 B(  2-O ,  4-S ) :   0.0709 B(  2-O ,  5-O ) :   0.0564 
B(  2-O ,  8-S ) :   0.0657 B(  3-P ,  4-S ) :   1.7233 B(  3-P ,  5-O ) :   1.2513 
B(  3-P ,  6-C ) :   0.0575 B(  3-P ,  8-S ) :   1.0334 B(  4-S ,  5-O ) :   0.0796 
B(  4-S ,  8-S ) :   0.1327 B(  4-S , 29-H ) :   0.0765 B(  5-O ,  6-C ) :   1.0972 
B(  5-O ,  7-C ) :   0.0570 B(  5-O ,  8-S ) :   0.0655 B(  6-C ,  7-C ) :   1.1581 
B(  6-C , 24-H ) :   0.9125 B(  6-C , 25-H ) :   0.9163 B(  7-C , 26-H ) :   0.9338 
B(  7-C , 27-H ) :   0.9282 B(  7-C , 28-H ) :   0.9242 B(  8-S ,  9-C ) :   1.1752 
B(  8-S , 10-S ) :   0.0915 B(  9-C , 10-S ) :   1.1602 B(  9-C , 29-H ) :   0.8907 
B(  9-C , 30-H ) :   0.9231 B( 10-S , 11-P ) :   1.0616 B( 10-S , 12-S ) :   0.1066 
B( 10-S , 13-O ) :   0.0694 B( 10-S , 16-O ) :   0.0710 B( 11-P , 12-S ) :   1.7595 
B( 11-P , 13-O ) :   1.2577 B( 11-P , 14-C ) :   0.0667 B( 11-P , 16-O ) :   1.2659 
B( 11-P , 17-C ) :   0.0683 B( 12-S , 13-O ) :   0.0919 B( 12-S , 16-O ) :   0.0903 
B( 13-O , 14-C ) :   1.0904 B( 13-O , 15-C ) :   0.0581 B( 14-C , 15-C ) :   1.1564 
B( 14-C , 31-H ) :   0.9051 B( 14-C , 32-H ) :   0.9159 B( 15-C , 33-H ) :   0.9338 
B( 15-C , 34-H ) :   0.9297 B( 15-C , 35-H ) :   0.9257 B( 16-O , 17-C ) :   1.0800 
B( 16-O , 18-C ) :   0.0585 B( 17-C , 18-C ) :   1.1549 B( 17-C , 36-H ) :   0.9096 
B( 17-C , 37-H ) :   0.9078 B( 18-C , 38-H ) :   0.9307 B( 18-C , 39-H ) :   0.9256 
B( 18-C , 40-H ) :   0.9278 

------------------------------------------
LOEWDIN REDUCED ORBITAL POPULATIONS PER MO
-------------------------------------------
THRESHOLD FOR PRINTING IS 0.1%%
                      0         1         2         3         4         5   
                 -88.05029 -88.04424 -87.98871 -87.98838 -76.42993 -76.42554
                   2.00000   2.00000   2.00000   2.00000   2.00000   2.00000
                  --------  --------  --------  --------  --------  --------
 3 P  s               0.0       0.0       0.0       0.0     100.0       0.0
 4 S  s               0.0       0.0     100.0       0.0       0.0       0.0
 8 S  s             100.0       0.0       0.0       0.0       0.0       0.0
10 S  s               0.0     100.0       0.0       0.0       0.0       0.0
11 P  s               0.0       0.0       0.0       0.0       0.0     100.0
12 S  s               0.0       0.0       0.0     100.0       0.0       0.0

                      6         7         8         9        10        11   
                 -18.79635 -18.79006 -18.78979 -18.78641  -9.95925  -9.95887
                   2.00000   2.00000   2.00000   2.00000   2.00000   2.00000
                  --------  --------  --------  --------  --------  --------
 2 O  s               0.0      99.6       0.3       0.0       0.0       0.0
 5 O  s              99.9       0.0       0.0       0.0       0.0       0.0
 6 C  s               0.0       0.0       0.0       0.0       0.0      99.6
 9 C  s               0.0       0.0       0.0       0.0      99.8       0.0
13 O  s               0.0       0.3      99.6       0.0       0.0       0.0
16 O  s               0.0       0.0       0.0      99.9       0.0       0.0

                     12        13        14        15        16        17   
                  -9.95446  -9.95366  -9.94063  -9.88592  -9.88542  -9.88438
                   2.00000   2.00000   2.00000   2.00000   2.00000   2.00000
                  --------  --------  --------  --------  --------  --------
 0 C  s               0.0       0.0       0.0      99.7       0.0       0.0
 1 C  s              99.6       0.0       0.0       0.0       0.0       0.0
 7 C  s               0.0       0.0       0.0       0.0      99.7       0.0
14 C  s               0.0      99.6       0.0       0.0       0.0       0.0
15 C  s               0.0       0.0       0.0       0.0       0.0      99.7
17 C  s               0.0       0.0      99.7       0.0       0.0       0.0

                     18        19        20        21        22        23   
                  -9.87286  -7.69469  -7.68926  -7.63379  -7.63352  -6.42683
                   2.00000   2.00000   2.00000   2.00000   2.00000   2.00000
                  --------  --------  --------  --------  --------  --------
 2 O  py              0.0       0.0       0.0       0.0       0.0       0.2
 3 P  s               0.0       0.0       0.0       0.0       0.0      99.3
 4 S  s               0.0       0.0       0.0      99.9       0.0       0.0
 5 O  px              0.0       0.0       0.0       0.0       0.0       0.2
 8 S  s               0.0      99.7       0.0       0.0       0.0       0.0
 9 C  px              0.0       0.1       0.1       0.0       0.0       0.0
10 S  s               0.0       0.0      99.7       0.0       0.0       0.0
12 S  s               0.0       0.0       0.0       0.0      99.9       0.0
18 C  s              99.7       0.0       0.0       0.0       0.0       0.0

                     24        25        26        27        28        29   
                  -6.42318  -5.72248  -5.71915  -5.71749  -5.71345  -5.71183
                   2.00000   2.00000   2.00000   2.00000   2.00000   2.00000
                  --------  --------  --------  --------  --------  --------
 8 S  pz              0.0      39.0      60.2       0.0       0.0       0.8
 8 S  px              0.0      37.5      31.0       0.0       0.0      31.5
 8 S  py              0.0      23.5       8.8       0.0       0.0      67.7
10 S  pz              0.0       0.0       0.0       0.2      52.0       0.0
10 S  px              0.0       0.0       0.0      35.9      32.7       0.0
10 S  py              0.0       0.0       0.0      63.9      15.3       0.0
11 P  s              99.3       0.0       0.0       0.0       0.0       0.0
13 O  px              0.2       0.0       0.0       0.0       0.0       0.0
16 O  pz              0.2       0.0       0.0       0.0       0.0       0.0

                     30        31        32        33        34        35   
                  -5.70624  -5.66284  -5.66248  -5.65443  -5.65413  -5.65367
                   2.00000   2.00000   2.00000   2.00000   2.00000   2.00000
                  --------  --------  --------  --------  --------  --------
 4 S  pz              0.0      48.5       0.0      51.5       0.0       0.0
 4 S  px              0.0      18.9       0.0      19.1       0.0      62.0
 4 S  py              0.0      32.6       0.0      29.4       0.0      38.0
10 S  pz             47.8       0.0       0.0       0.0       0.0       0.0
10 S  px             31.4       0.0       0.0       0.0       0.0       0.0
10 S  py             20.8       0.0       0.0       0.0       0.0       0.0
12 S  pz              0.0       0.0       0.1       0.0      98.3       0.0
12 S  px              0.0       0.0      70.8       0.0       0.9       0.0
12 S  py              0.0       0.0      29.1       0.0       0.8       0.0

                     36        37        38        39        40        41   
                  -5.65365  -4.64950  -4.64879  -4.64713  -4.64543  -4.64539
                   2.00000   2.00000   2.00000   2.00000   2.00000   2.00000
                  --------  --------  --------  --------  --------  --------
 3 P  pz              0.0       3.0      52.0      45.0       0.0       0.0
 3 P  px              0.0      58.3      27.9      13.7       0.0       0.0
 3 P  py              0.0      38.6      20.1      41.3       0.0       0.0
11 P  pz              0.0       0.0       0.0       0.0      83.2       9.7
11 P  px              0.0       0.0       0.0       0.0      16.6      54.9
11 P  py              0.0       0.0       0.0       0.0       0.1      35.3
12 S  pz              1.6       0.0       0.0       0.0       0.0       0.0
12 S  px             28.3       0.0       0.0       0.0       0.0       0.0
12 S  py             70.1       0.0       0.0       0.0       0.0       0.0

                     42        43        44        45        46        47   
                  -4.64347  -0.98984  -0.98505  -0.94365  -0.94253  -0.76429
                   2.00000   2.00000   2.00000   2.00000   2.00000   2.00000
                  --------  --------  --------  --------  --------  --------
 0 C  s               0.0       0.2       0.0       0.2       0.1       0.2
 0 C  py              0.0       0.3       0.0       0.4       0.2       0.1
 1 C  s               0.0       2.9       0.3       3.1       1.4       0.4
 1 C  pz              0.0       0.5       0.1       0.5       0.2       0.0
 1 C  px              0.0       0.6       0.0       0.7       0.3       0.0
 1 C  py              0.0       2.3       0.2       1.5       0.7       0.0
 1 C  dxy             0.0       0.1       0.0       0.1       0.0       0.0
 2 O  s               0.0      24.2       2.6      22.5       9.3       0.2
 2 O  pz              0.0       0.5       0.0       0.4       0.2       0.0
 2 O  px              0.0       0.6       0.1       0.3       0.1       0.0
 2 O  py              0.0       0.5       0.1       0.0       0.0       0.5
 3 P  s               0.0      12.5       1.4       0.0       0.0       2.8
 3 P  pz              0.0       0.1       0.0       0.1       0.0       1.4
 3 P  px              0.0       1.9       0.6       4.2       1.2       0.4
 3 P  py              0.0       2.5       0.2       3.4       1.4       0.4
 3 P  dz2             0.0       0.7       0.1       0.0       0.0       0.2
 3 P  dx2y2           0.0       0.0       0.0       2.3       0.9       0.0
 4 S  s               0.0       0.3       0.0       0.0       0.0       0.6
 4 S  pz              0.0       0.1       0.0       0.0       0.0       0.1
 4 S  py              0.0       0.2       0.0       0.0       0.0       0.1
 5 O  s               0.0      25.9       4.3      21.3       8.0       0.2
 5 O  pz              0.0       0.2       0.0       0.2       0.1       0.0
 5 O  px              0.0       0.8       0.1       0.0       0.0       0.4
 5 O  py              0.0       0.3       0.0       0.7       0.3       0.0
 6 C  s               0.0       2.9       0.5       3.5       1.3       0.3
 6 C  pz              0.0       0.4       0.1       0.4       0.1       0.0
 6 C  px              0.0       1.5       0.2       1.3       0.5       0.0
 6 C  py              0.0       1.4       0.2       1.3       0.5       0.0
 6 C  dxy             0.0       0.2       0.0       0.2       0.1       0.0
 7 C  s               0.0       0.2       0.0       0.3       0.1       0.1
 7 C  py              0.0       0.4       0.1       0.4       0.1       0.0
 8 S  s               0.0       0.3       0.0       0.0       0.0      20.9
 8 S  pz              0.0       0.3       0.0       0.0       0.0       0.3
 8 S  px              0.0       0.0       0.0       0.0       0.0       1.9
 8 S  py              0.0       0.0       0.0       0.0       0.0       0.7
 8 S  dxy             0.0       0.0       0.0       0.0       0.0       0.2
 9 C  s               0.0       0.0       0.0       0.0       0.0      27.3
 9 C  pz              0.0       0.0       0.0       0.0       0.0       0.2
 9 C  py              0.0       0.0       0.0       0.0       0.0       2.1
10 S  s               0.0       0.0       0.3       0.0       0.0      16.9
10 S  pz              0.0       0.0       0.1       0.0       0.0       0.9
10 S  px              0.0       0.0       0.0       0.0       0.0       1.9
10 S  py              0.0       0.0       0.2       0.0       0.0       0.0
10 S  dxz             0.0       0.0       0.0       0.0       0.0       0.1
11 P  s               0.0       1.6      12.5       0.0       0.1       1.7
11 P  pz              7.0       0.1       0.9       1.8       4.9       0.6
11 P  px             28.4       0.5       3.3       0.3       0.7       0.0
11 P  py             64.5       0.0       0.3       0.8       1.8       1.4
11 P  dz2             0.0       0.0       0.1       0.5       1.3       0.0
11 P  dxz             0.0       0.0       0.0       0.2       0.5       0.0
11 P  dyz             0.0       0.0       0.3       0.0       0.0       0.1
11 P  dxy             0.0       0.0       0.4       0.2       0.6       0.0
12 S  s               0.0       0.0       0.3       0.0       0.0       0.2
12 S  px              0.0       0.0       0.3       0.0       0.0       0.0
13 O  s               0.0       3.4      27.9       8.8      18.6       0.2
13 O  pz              0.0       0.0       0.1       0.2       0.6       0.1
13 O  px              0.0       0.2       1.3       0.2       0.3       0.0
13 O  py              0.0       0.0       0.1       0.0       0.1       0.3
[...]
 1 C  pz              0.4       0.0       0.1       0.0
 1 C  px              0.4       0.0       0.1       0.0
 1 C  py              1.5       0.2       0.8       0.1
 1 C  dz2             0.1       0.0       0.2       0.0
 1 C  dxz             1.6       0.0       0.1       0.0
 1 C  dyz             2.8       0.4       1.1       0.1
 1 C  dx2y2           0.3       0.2       0.5       0.1
 1 C  dxy             3.9       0.4       1.5       0.2
 2 O  s               4.9       0.1       0.0       0.0
 2 O  pz              0.4       0.0       0.1       0.0
 2 O  px              0.4       0.0       0.0       0.0
 2 O  py              0.8       1.1       3.1       0.4
 2 O  dz2             4.8       0.5       0.8       0.1
 2 O  dxz             6.2       0.3       1.4       0.2
 2 O  dyz            10.9       3.6      11.2       1.2
 2 O  dx2y2          12.4       1.5       2.1       0.2
 2 O  dxy            13.1       4.5      13.3       1.5
 3 P  s               0.4       0.1       0.1       0.0
 3 P  px              1.3       0.2       0.4       0.0
 3 P  py              0.1       0.5       1.2       0.1
 3 P  dz2             0.1       0.0       0.0       0.0
 3 P  dyz             0.2       0.0       0.1       0.0
 3 P  dx2y2           0.4       0.5       1.0       0.1
 5 O  s               0.1       0.1       0.2       0.0
 5 O  px              2.3       0.7       1.3       0.2
 5 O  py              0.5       0.2       0.4       0.1
 5 O  dz2             0.5       0.0       0.1       0.0
 5 O  dxz             1.9       1.3       2.7       0.3
 5 O  dyz             2.4       1.3       2.4       0.3
 5 O  dx2y2          14.3       2.3       4.0       0.6
 5 O  dxy             4.6       4.9       9.8       1.3
 6 C  s               0.4       0.2       0.5       0.1
 6 C  px              0.3       0.2       0.3       0.0
 6 C  py              0.3       0.2       0.5       0.1
 6 C  dz2             0.2       0.1       0.2       0.0
 6 C  dxz             0.3       0.2       0.4       0.1
 6 C  dyz             0.1       0.2       0.4       0.1
 6 C  dx2y2           0.2       0.0       0.0       0.0
 6 C  dxy             1.4       0.9       1.7       0.2
11 P  pz              0.0       0.1       0.1       2.0
11 P  px              0.0       0.1       0.0       0.3
11 P  py              0.0       0.1       0.0       0.8
11 P  dz2             0.0       0.0       0.1       1.2
11 P  dxz             0.0       0.5       0.1       0.4
11 P  dx2y2           0.0       0.1       0.1       0.1
11 P  dxy             0.0       0.1       0.0       0.4
13 O  s               0.0       1.1       0.6       0.1
13 O  pz              0.0       1.4       0.1       1.2
13 O  px              0.0       0.3       0.0       0.7
13 O  py              0.0       1.1       0.1       1.4
13 O  dz2             0.0      11.2       1.4       8.6
13 O  dxz             0.1       0.0       0.1       1.8
13 O  dyz             0.3      21.3       5.4       2.3
13 O  dx2y2           0.0       4.9       0.7       3.7
13 O  dxy             0.1       1.0       0.1       8.2
14 C  s               0.0       1.1       0.2       0.5
14 C  pz              0.0       1.3       0.3       0.5
14 C  py              0.0       0.6       0.1       0.3
14 C  dz2             0.0       1.1       0.3       0.3
14 C  dxz             0.0       0.0       0.0       0.1
14 C  dyz             0.0       4.7       0.9       1.4
14 C  dx2y2           0.0       0.6       0.1       0.3
15 C  dz2             0.0       0.1       0.0       0.0
16 O  s               0.0       1.4       0.6       0.0
16 O  pz              0.0       0.1       1.0       4.5
16 O  px              0.0       0.2       0.2       0.3
16 O  py              0.0       0.0       0.0       0.2
16 O  dz2             0.1       3.4       0.3       3.9
16 O  dxz             0.0       7.0      14.4      34.2
16 O  dyz             0.0       2.2       0.5       0.2
16 O  dx2y2           0.0       1.3       1.3       3.0
16 O  dxy             0.0       0.3       0.9       1.4
17 C  s               0.0       0.3       0.5       1.0
17 C  pz              0.0       0.3       0.4       0.9
17 C  px              0.0       0.3       0.4       0.6
17 C  dz2             0.0       0.1       0.2       0.9
17 C  dxz             0.0       1.6       2.1       3.3
17 C  dyz             0.0       0.0       0.1       0.2
17 C  dx2y2           0.0       0.5       0.4       0.3
17 C  dxy             0.0       0.0       0.0       0.1


                      *****************************
                      * MAYER POPULATION ANALYSIS *
                      *****************************

  NA   - Mulliken gross atomic population
  ZA   - Total nuclear charge
  QA   - Mulliken gross atomic charge
  VA   - Mayer's total valence
  BVA  - Mayer's bonded valence
  FA   - Mayer's free valence

  ATOM       NA         ZA         QA         VA         BVA        FA
  0 C      6.2918     6.0000    -0.2918     4.0057     4.0057    -0.0000
  1 C      6.0122     6.0000    -0.0122     4.0078     4.0078     0.0000
  2 O      8.3527     8.0000    -0.3527     2.1766     2.1766    -0.0000
  3 P     14.3704    15.0000     0.6296     4.9565     4.9565    -0.0000
  4 S     16.3069    16.0000    -0.3069     2.0652     2.0652     0.0000
  5 O      8.3867     8.0000    -0.3867     2.1703     2.1703     0.0000
  6 C      6.0058     6.0000    -0.0058     4.0183     4.0183     0.0000
  7 C      6.3056     6.0000    -0.3056     3.9921     3.9921    -0.0000
  8 S     16.1199    16.0000    -0.1199     2.3251     2.3251     0.0000
  9 C      6.3498     6.0000    -0.3498     3.8152     3.8152    -0.0000
 10 S     16.0904    16.0000    -0.0904     2.2437     2.2437     0.0000
 11 P     14.3955    15.0000     0.6045     4.9375     4.9375     0.0000
 12 S     16.3194    16.0000    -0.3194     2.0397     2.0397    -0.0000
 13 O      8.3614     8.0000    -0.3614     2.1838     2.1838     0.0000
 14 C      6.0140     6.0000    -0.0140     3.9982     3.9982     0.0000
 15 C      6.3080     6.0000    -0.3080     4.0022     4.0022     0.0000
 16 O      8.3679     8.0000    -0.3679     2.1944     2.1944     0.0000
 17 C      5.9953     6.0000     0.0047     3.9730     3.9730    -0.0000
 18 C      6.3250     6.0000    -0.3250     4.0038     4.0038     0.0000
 19 H      0.8804     1.0000     0.1196     0.9585     0.9585    -0.0000
 20 H      0.8944     1.0000     0.1056     0.9541     0.9541    -0.0000
 21 H      0.8655     1.0000     0.1345     0.9754     0.9754    -0.0000
 22 H      0.8935     1.0000     0.1065     0.9571     0.9571    -0.0000
 23 H      0.8975     1.0000     0.1025     0.9653     0.9653     0.0000
 24 H      0.8922     1.0000     0.1078     0.9628     0.9628    -0.0000
 25 H      0.8935     1.0000     0.1065     0.9478     0.9478    -0.0000
 26 H      0.8729     1.0000     0.1271     0.9657     0.9657    -0.0000
 27 H      0.8818     1.0000     0.1182     0.9864     0.9864    -0.0000
 28 H      0.8896     1.0000     0.1104     0.9527     0.9527    -0.0000
 29 H      0.7919     1.0000     0.2081     0.9895     0.9895    -0.0000
 30 H      0.8199     1.0000     0.1801     0.9324     0.9324    -0.0000
 31 H      0.8860     1.0000     0.1140     0.9868     0.9868     0.0000
 32 H      0.8976     1.0000     0.1024     0.9463     0.9463    -0.0000
 33 H      0.8829     1.0000     0.1171     0.9706     0.9706     0.0000
 34 H      0.8734     1.0000     0.1266     0.9734     0.9734     0.0000
 35 H      0.8893     1.0000     0.1107     0.9541     0.9541     0.0000
 36 H      0.8882     1.0000     0.1118     0.9697     0.9697    -0.0000
 37 H      0.8893     1.0000     0.1107     0.9797     0.9797     0.0000
 38 H      0.8709     1.0000     0.1291     0.9705     0.9705     0.0000
 39 H      0.8912     1.0000     0.1088     0.9556     0.9556    -0.0000
 40 H      0.8792     1.0000     0.1208     0.9803     0.9803    -0.0000

  Mayer bond orders larger than 0.100000
B(  0-C ,  1-C ) :   1.1683 B(  0-C , 19-H ) :   0.9484 B(  0-C , 20-H ) :   0.9404 
B(  0-C , 21-H ) :   0.9420 B(  1-C ,  2-O ) :   0.8903 B(  1-C , 22-H ) :   0.9271 
B(  1-C , 23-H ) :   0.9135 B(  2-O ,  3-P ) :   1.1404 B(  3-P ,  4-S ) :   1.6138 
B(  3-P ,  5-O ) :   1.0739 B(  3-P ,  8-S ) :   0.9480 B(  4-S ,  8-S ) :   0.1148 
B(  4-S , 29-H ) :   0.1118 B(  5-O ,  6-C ) :   0.9175 B(  6-C ,  7-C ) :   1.1666 
B(  6-C , 24-H ) :   0.9230 B(  6-C , 25-H ) :   0.9329 B(  7-C , 26-H ) :   0.9437 
B(  7-C , 27-H ) :   0.9354 B(  7-C , 28-H ) :   0.9354 B(  8-S ,  9-C ) :   1.0135 
B(  9-C , 10-S ) :   0.9808 B(  9-C , 29-H ) :   0.8433 B(  9-C , 30-H ) :   0.9094 
B( 10-S , 11-P ) :   0.9690 B( 11-P , 12-S ) :   1.6428 B( 11-P , 13-O ) :   1.0793 
B( 11-P , 16-O ) :   1.1010 B( 13-O , 14-C ) :   0.9110 B( 14-C , 15-C ) :   1.1687 
B( 14-C , 31-H ) :   0.9120 B( 14-C , 32-H ) :   0.9278 B( 15-C , 33-H ) :   0.9432 
B( 15-C , 34-H ) :   0.9379 B( 15-C , 35-H ) :   0.9384 B( 16-O , 17-C ) :   0.8939 
B( 17-C , 18-C ) :   1.1697 B( 17-C , 36-H ) :   0.9182 B( 17-C , 37-H ) :   0.9155 
B( 18-C , 38-H ) :   0.9348 B( 18-C , 39-H ) :   0.9390 B( 18-C , 40-H ) :   0.9357 


-------
TIMINGS
-------

Total SCF time: 0 days 0 hours 0 min 18 sec 

Total time                  ....      18.059 sec
Sum of individual times     ....      17.552 sec  ( 97.2%)

SCF preparation             ....       0.235 sec  (  1.3%)
Fock matrix formation       ....      16.131 sec  ( 89.3%)
  Startup                   ....       0.056 sec  (  0.3% of F)
  Split-RI-J                ....       9.686 sec  ( 60.0% of F)
  XC integration            ....       5.862 sec  ( 36.3% of F)
    XC Preparation          ....       0.000 sec  (  0.0% of XC)
    Basis function eval.    ....       2.253 sec  ( 38.4% of XC)
    Density eval.           ....       1.194 sec  ( 20.4% of XC)
    XC-Functional eval.     ....       0.407 sec  (  6.9% of XC)
    XC-Potential eval.      ....       1.339 sec  ( 22.8% of XC)
Diagonalization             ....       0.000 sec  (  0.0%)
Density matrix formation    ....       0.243 sec  (  1.3%)
Total Energy calculation    ....       0.030 sec  (  0.2%)
Population analysis         ....       0.217 sec  (  1.2%)
Orbital Transformation      ....       0.101 sec  (  0.6%)
Orbital Orthonormalization  ....       0.000 sec  (  0.0%)
DIIS solution               ....       0.450 sec  (  2.5%)
  MO trafo                  ....       0.000 sec  (  0.0 % of DIIS)
  Orb grad                  ....       0.000 sec  (  0.0 % of DIIS)
  Energy W gradient         ....       0.000 sec  (  0.0 % of DIIS)
  DIIS error                ....       0.022 sec  (  4.9 % of DIIS)
  DIIS work                 ....       0.364 sec  ( 80.8 % of DIIS)
  Form Q                    ....       0.000 sec  (  0.0 % of DIIS)
  Form QpQm                 ....       0.000 sec  (  0.0 % of DIIS)
  Exp/Cayley                ....       0.000 sec  (  0.0 % of DIIS)
  Orb update                ....       0.000 sec  (  0.0 % of DIIS)
  Wake-sleep                ....       0.020 sec  (  4.4 % of DIIS)
SOSCF solution              ....       0.144 sec  (  0.8%)
  MO trafo                  ....       0.071 sec  ( 48.9 % of SOSCF)
  Orb grad                  ....       0.002 sec  (  1.3 % of SOSCF)
  Rot update                ....       0.030 sec  ( 20.9 % of SOSCF)
  Step                      ....       0.042 sec  ( 28.8 % of SOSCF)
Finished LeanSCF after  18.2 sec

Maximum memory used throughout the entire LEANSCF-calculation: 36.4 MB


-------------------------------------------------------------------------------
                          DFT DISPERSION CORRECTION                            
                                                                               
                                DFTD4 V3.4.0                                   
-------------------------------------------------------------------------------
The PBE functional is recognized
Active option DFTDOPT                   ...         5   

-------------------------   ----------------
Dispersion correction           -0.070455842
-------------------------   ----------------

------------------   -----------------
gCP correction             0.189443426
------------------   -----------------

-------------------------   --------------------
FINAL SINGLE POINT ENERGY     -2929.517489919544
-------------------------   --------------------


------------------------------------------------------------------------------
                              ORCA PROPERTY CALCULATIONS
------------------------------------------------------------------------------

GBWName                                 ... sp.gbw
Number of atoms                         ...     41
Number of basis functions               ...    334
Max core memory                         ...   1024 MB

Electric properties:
Dipole moment                           ... YES
Quadrupole moment                       ...  NO
Static polarizability (Dipole/Dipole)   ...  NO
Static polarizability (Dipole/Quad.)    ...  NO
Static polarizability (Quad./Quad.)     ...  NO
Static polarizability (Velocity)        ...  NO

Atomic electric properties:
Dipole moment                           ...  NO
Quadrupole moment                       ...  NO
Static polarizability                   ...  NO

Choice of electric origin               ... Center of mass
Position of electric origin             ...     0.000000    -0.000002    -0.000004

General magnetic properties:
Magnetizability                         ...  NO

EPR properties:
g-Tensor (aka g-matrix)                 ...  NO
Zero-Field splitting spin-orbit         ...  NO
Zero-field splitting spin-spin          ...  NO
Hyperfine couplings                     ...  NO (   0 nuclei)
Quadrupole couplings                    ...  NO (   0 nuclei)
Contact density                         ...  NO (   0 nuclei)

NMR properties:
Chemical shifts                         ...  NO (   0 nuclei)
Spin-rotation constants                 ...  NO (   0 nuclei)
Spin-spin couplings                     ...  NO (   0 nuclei,    0 pairs)

Choice of magnetic origin               ... GIAO
Position of magnetic origin             ...     0.000000     0.000000     0.000000

Properties with geometric perturbations:
SCF Hessian                             ...  NO
IR spectrum                             ...  NO
VCD spectrum                            ...  NO
X-ray spectroscopy properties:
SCF XES/XAS/RIXS spectra                ...  NO


-------------
DIPOLE MOMENT
-------------

Method             : SCF
Type of density    : Electron Density
Multiplicity       :   1
Irrep              :   0
Energy             : -2929.6364775030251622 Eh
Relativity type    : 
Basis              : AO
                                X                 Y                 Z
Electronic contribution:     -9.337667926      -3.789196104      -0.804869156
Nuclear contribution   :     11.078575287       3.916269476       0.217504420
                        -----------------------------------------
Total Dipole Moment    :      1.740907361       0.127073372      -0.587364736
                        -----------------------------------------
Magnitude (a.u.)       :      1.841712088
Magnitude (Debye)      :      4.681260101



--------------------
Rotational spectrum 
--------------------
 
Rotational constants in cm-1:             0.011447             0.006214             0.005785 
Rotational constants in MHz :           343.184897           186.276046           173.422170 

Dipole components along the rotational axes: 
x,y,z [a.u.] :    -1.200830    -1.273846    -0.572036 
x,y,z [Debye]:    -3.052268    -3.237860    -1.454001 

 

Dipole moment calculation done in   0.0 sec 

Maximum memory used throughout the entire PROP-calculation: 25.4 MB

--------------------------------
SUGGESTED CITATIONS FOR THIS RUN
--------------------------------

Below you find a list of papers that are relevant to this ORCA run
We neither can nor want to force you to cite these papers, but we appreciate if you do
You receive ORCA, which is the product of decades of hard work by many enthusiastic individuals, for free
The only thing we kindly ask in return is that you cite our papers,
We deeply appreciate it, if you show your appreciation for ORCA by not just citing the generic ORCA reference.

Please note that relegating all ORCA citations to the supporting information does *not* help us.
SI sections are not indexed - citations you put there will not count into any citation statistics
But we need these citations in order to attract the funding resources that allow us to do what we are doing

Therefore, if you are a happy ORCA user, please consider citing a few of the papers listed below in the main body of your paper

In addition to the list printed below, the program has created the file sp.bibtex that contains the list in bibtex format
You can import this file easily into all common literature databanks and citation aid programs


List of essential papers. We consider these as the minimum necessary citations

  1. Neese,F.
     Software update: the ORCA program system, version 5.0
     WIRES Comput. Molec. Sci., 2022 12(1)e1606
     doi.org/10.1002/wcms.1606

List of papers to cite with high priority. The work reported in these papers was absolutely
necessary for this run to complete.
Our perspective: the developers of density functionals and basis sets usually get cited in chemistry papers
Good! But without the algorithms to do something with them, the functionals or basis sets would not do anything.
Hence, in our opinion, the algorithm design and method developments papers are equally worthy of getting cited

  1. Neese,F.
     An improvement of the resolution of the identity approximation for the formation of the Coulomb matrix
     J. Comp. Chem., 2003 24(14)1740-1747
     doi.org/10.1002/jcc.10318
  2. Neese,F.
     The SHARK Integral Generation and Digestion System
     J. Comp. Chem., 2022  1-16
     doi.org/10.1002/jcc.26942
  3. Caldeweyher,E.; Bannwarth,C.; Grimme,S.
     Extension of the D3 dispersion coefficient model
     J. Chem. Phys., 2017 147 034112-XXXX
     doi.org/10.1063/1.4993215
  4. Caldeweyher,E.; Ehlert,S.; Hansen,A.; Neugebauer,H.; Spicher,S.; Bannwarth,C.; Grimme,S.
     A generally applicable atomic-charge dependent London dispersion correction
     J. Chem. Phys., 2019 150 154122-XXXX
     doi.org/10.1063/1.5090222
  5. Caldeweyher,E.; Mewes,J.; Ehlert,S.; Grimme,S.
     Extension and evaluation of the D4 London-dispersion model for periodic systems
     Phys. Chem. Chem. Phys., 2020 22(16)8499-8512
     doi.org/10.1039/D0CP00502A

List of suggested additional citations. These are papers that are important in the 'surrounding' of 
of this run, or papers that preceded the highly important papers. If you like your results we are grateful for a citation.

  1. Neese,F.
     The ORCA program system
     WIRES Comput. Molec. Sci., 2012 2(1)73-78
     doi.org/10.1002/wcms.81
  2. Neese,F.
     Software update: the ORCA program system, version 4.0
     WIRES Comput. Molec. Sci., 2018 8(1)1-6
     doi.org/10.1002/wcms.1327
  3. Neese,F.; Wennmohs,F.; Becker,U.; Riplinger,C.
     The ORCA quantum chemistry program package
     J. Chem. Phys., 2020 152 Art. No. L224108
     doi.org/10.1063/5.0004608

List of optional additional citations

  1. Neese,F.
     Approximate second-order SCF convergence for spin unrestricted wavefunctions
     Chem. Phys. Lett., 2000 325(1-3)93-98
     doi.org/10.1016/s0009-2614(00)00662-x

Timings for individual modules:

Sum of individual times          ...       22.189 sec (=   0.370 min)
Startup calculation              ...        1.687 sec (=   0.028 min)   7.6 %
SCF iterations                   ...       20.370 sec (=   0.340 min)  91.8 %
Property calculations            ...        0.132 sec (=   0.002 min)   0.6 %
                             ****ORCA TERMINATED NORMALLY****
TOTAL RUN TIME: 0 days 0 hours 0 minutes 23 seconds 88 msec
