19
 energy: -26.296721258027 gnorm: 0.023942895785 xtb: 6.7.1 (edcfbbe)
C           -2.59517675638294        0.56578903151514        0.00926891368925
C           -1.22381887635030       -0.05828601668188       -0.00147064554832
C           -1.13710830005966       -1.45445265027614       -0.00338593805834
C            0.09750272310462       -2.09181675154780       -0.00453561740729
C            1.26433841176823       -1.34011790829240       -0.00059570213906
C            1.18379760167319        0.05101877060234        0.00183770786163
C           -0.05185710265660        0.72354777591227       -0.00398583195342
C           -0.13556450361365        2.22761298880312       -0.01054335509497
O            2.39847020759854        0.71145513861772        0.00864635994982
H           -2.57282518264011        1.65461899361441       -0.01550228170892
H           -3.17930299990456        0.22065270787241       -0.85060764385614
H           -3.14378704720872        0.26276838645044        0.90793210988005
H           -2.05235861579835       -2.03974633981840       -0.00318956146026
H            0.15479927558965       -3.17592352572859       -0.00687596374433
H            2.24132358328798       -1.81234461184984        0.00164216086439
H           -0.62663287936113        2.60073889774001        0.89426508986909
H            0.83580257304106        2.72346349731823       -0.06875832100692
H           -0.71456390583898        2.58405281224450       -0.86822573126015
H            2.25492000758333        1.66628132565203        0.03049288541827
19
 energy: -26.297673801692 gnorm: 0.010998745341 xtb: 6.7.1 (edcfbbe)
C           -2.58879079595425        0.56277142783159        0.00942357271460
C           -1.21804843171101       -0.05179727893324       -0.00108159556487
C           -1.13413538328558       -1.44065415037461       -0.00305144910706
C            0.09088907248565       -2.07989861319902       -0.00500273941621
C            1.25200507758844       -1.33233044455960       -0.00129504774447
C            1.18099868165078        0.05565765247304        0.00108651117449
C           -0.05116178397819        0.72321584312325       -0.00384252617164
C           -0.14029475132524        2.22414771862468       -0.01135793529854
O            2.39219915003240        0.70569535496855        0.00944644098803
H           -2.56410063112204        1.64673081571364       -0.01588486547066
H           -3.16163338636928        0.21151214450690       -0.84985048455559
H           -3.12605106276942        0.25425550599566        0.90750953190293
H           -2.04582013162812       -2.02189075959910       -0.00261291009589
H            0.14533113377247       -3.15949921046900       -0.00709707364786
H            2.22464983505878       -1.80108504635860        0.00118256822818
H           -0.63012658387713        2.58285103129386        0.89549906435984
H            0.83213051579247        2.70999349129348       -0.06968253225998
H           -0.71961689950452        2.56610509483066       -0.87017437135755
H            2.25953458897540        1.66353194498541        0.03319447561660
19
 energy: -26.297783482675 gnorm: 0.003940585343 xtb: 6.7.1 (edcfbbe)
C           -2.58756141186390        0.56207895720509        0.00968394884933
C           -1.21546171906153       -0.04895363467128       -0.00125693348875
C           -1.13406263355463       -1.43598888159791       -0.00298962485118
C            0.08802029972981       -2.07729311913018       -0.00538277677126
C            1.24723952970632       -1.33007442910739       -0.00159054499589
C            1.18231504510402        0.05824662779833        0.00122762658569
C           -0.04984552285619        0.72280724631128       -0.00400954575312
C           -0.14233099351389        2.22490627150125       -0.01205339954982
O            2.39104294019912        0.70133084564539        0.01028322119023
H           -2.56598309550538        1.64435127274753       -0.01592259772129
H           -3.15500093608482        0.20635731680338       -0.84874293649619
H           -3.11896861295331        0.24970294452073        0.90739944431861
H           -2.04552080428702       -2.01479777694213       -0.00214256529170
H            0.14134378979234       -3.15519365051930       -0.00774757363072
H            2.21962400436637       -1.79590773645734        0.00047338046499
H           -0.63239321298499        2.57755556065036        0.89469500800555
H            0.82908625346871        2.70877954998341       -0.07083317362614
H           -0.72219305574740        2.55997991026585       -0.87068769865822
H            2.26860834987799        1.66142524714048        0.03600537571423
19
 energy: -26.297796259584 gnorm: 0.001378219726 xtb: 6.7.1 (edcfbbe)
C           -2.58847086968118        0.56180425321033        0.00986618356954
C           -1.21533037094519       -0.04847307677612       -0.00123716250358
C           -1.13470959014534       -1.43575054611901       -0.00297898625589
C            0.08753209719063       -2.07759875536141       -0.00570811026694
C            1.24639279785530       -1.32979311556033       -0.00182569666103
C            1.18325390152899        0.05931469166113        0.00134229430060
C           -0.04963468643175        0.72263283660252       -0.00407782978042
C           -0.14207196176958        2.22586109812951       -0.01247304912794
O            2.39056531317183        0.70065862152702        0.01078019232901
H           -2.56861508795518        1.64406662017487       -0.01602547982224
H           -3.15485606288672        0.20455137194914       -0.84836823556751
H           -3.11832211709055        0.24842634758963        0.90790757259421
H           -2.04664676655393       -2.01401091902097       -0.00197735094976
H            0.14097950164589       -3.15537270556437       -0.00827339727087
H            2.21969957807167       -1.79433590860095        0.00014252684428
H           -0.63207233259693        2.57781732824373        0.89419076373294
H            0.82979559333710        2.70846926436986       -0.07160589721413
H           -0.72208353856453        2.55958227216895       -0.87111571665390
H            2.27255281565107        1.66146284352404        0.03784601299799
19
 energy: -26.297798802021 gnorm: 0.000745373214 xtb: 6.7.1 (edcfbbe)
C           -2.58956079925239        0.56150219061285        0.01017180168842
C           -1.21572257256071       -0.04866401490814       -0.00123247568197
C           -1.13532137373174       -1.43639346472335       -0.00308907665382
C            0.08760997544850       -2.07813510330533       -0.00614500628850
C            1.24618544378126       -1.32978881148807       -0.00207835253609
C            1.18387883370953        0.06003896523385        0.00152942875626
C           -0.04995673652054        0.72243095629416       -0.00413816093469
C           -0.14183288895309        2.22657245007299       -0.01307880878811
O            2.39014788969448        0.70040186443649        0.01148896623070
H           -2.57046803274504        1.64404856363487       -0.01627298909690
H           -3.15627210944509        0.20356043678889       -0.84777415648179
H           -3.11887798962508        0.24835153248639        0.90883088484038
H           -2.04767673468327       -2.01456765673975       -0.00196244663041
H            0.14153782169959       -3.15608492487986       -0.00909667834791
H            2.22054658512429       -1.79341007744722       -0.00024679261358
H           -0.63125234369947        2.57950722965945        0.89357129539184
H            0.83066952962790        2.70805012512348       -0.07299504686711
H           -0.72197013738654        2.56027983476777       -0.87169715120556
H            2.27629385334900        1.66161242652810        0.04062339951321
19
 energy: -26.297799388877 gnorm: 0.000142724192 xtb: 6.7.1 (edcfbbe)
C           -2.58933370381670        0.56152430190015        0.01024155337012
C           -1.21583711450664       -0.04885280542136       -0.00124334152935
C           -1.13518388951527       -1.43647073910272       -0.00317673001260
C            0.08772091116528       -2.07794872649602       -0.00627517363566
C            1.24628304578326       -1.32972720955121       -0.00210567498791
C            1.18352293696064        0.05989485586840        0.00156767648108
C           -0.05019069560472        0.72243908514036       -0.00414193420376
C           -0.14190120006628        2.22623472390450       -0.01321946880199
O            2.39005130799879        0.70058840381465        0.01163192577859
H           -2.56968575320791        1.64403398993393       -0.01642328171437
H           -3.15654113762024        0.20377556818195       -0.84748289355639
H           -3.11884416953716        0.24892287437902        0.90900378639794
H           -2.04732990043616       -2.01482225295069       -0.00209563992330
H            0.14168739040799       -3.15590946431982       -0.00926510622808
H            2.22042538817388       -1.79354871654268       -0.00023894428588
H           -0.63096034272218        2.57962543692495        0.89353095167522
H            0.83059019447679        2.70771966975787       -0.07355721672802
H           -0.72223602349075        2.56018092739189       -0.87170119979803
H            2.27572096938898        1.66165259933437        0.04135934599674
19
 energy: -26.297799600854 gnorm: 0.000083081560 xtb: 6.7.1 (edcfbbe)
C           -2.58929437212949        0.56152261162345        0.01039480730996
C           -1.21592266222527       -0.04893460453025       -0.00130018872875
C           -1.13516797829879       -1.43651624166393       -0.00333561850469
C            0.08775696001465       -2.07787117681730       -0.00654101313378
C            1.24631209368023       -1.32965638093960       -0.00219990271479
C            1.18337857403038        0.05990506072350        0.00164955493103
C           -0.05032509653480        0.72245341315448       -0.00420654971645
C           -0.14195003290698        2.22611455622645       -0.01356884825572
O            2.38997541078389        0.70062658061176        0.01201818708986
H           -2.56945296722270        1.64400625241171       -0.01677126572157
H           -3.15695532833975        0.20348311765638       -0.84691858769903
H           -3.11856322005455        0.24946168306736        0.90950274480300
H           -2.04722975032058       -2.01495484818939       -0.00227311009162
H            0.14175709101214       -3.15583450185932       -0.00970049091883
H            2.22039401935563       -1.79349390610280       -0.00032026974179
H           -0.63035913048937        2.57993857656327        0.89339596064925
H            0.83055174488419        2.70745211336373       -0.07481920007054
H           -0.72281728936073        2.55995944271971       -0.87176093728199
H            2.27587014795348        1.66165077412835        0.04316336209082
19
 energy: -26.297800106996 gnorm: 0.000333827055 xtb: 6.7.1 (edcfbbe)
C           -2.58931604995756        0.56148047002874        0.01080185804827
C           -1.21610027013819       -0.04906411869675       -0.00152005687691
C           -1.13514804863344       -1.43659202695263       -0.00385862084435
C            0.08781430899388       -2.07775822691834       -0.00743084734917
C            1.24635113723071       -1.32952366149181       -0.00253876018106
C            1.18310186120773        0.05995537173481        0.00190978481217
C           -0.05057940590130        0.72248172279208       -0.00444260185951
C           -0.14193446994607        2.22595573993074       -0.01464739774100
O            2.38977643969304        0.70076815479360        0.01324452476998
H           -2.56928078225744        1.64389806469726       -0.01820381456055
H           -3.15828682964993        0.20209109634765       -0.84508922745018
H           -3.11752338578317        0.25113527483783        0.91115419006764
H           -2.04707135824260       -2.01519564017465       -0.00280439211000
H            0.14188801821551       -3.15572006119727       -0.01102385240891
H            2.22035788609160       -1.79336009167702       -0.00058023428971
H           -0.62793156495062        2.58094049451784        0.89321447339960
H            0.83057083813643        2.70685973472675       -0.07922201244484
H           -0.72489306031950        2.55930176248971       -0.87164811665450
H            2.27616295004253        1.66165846235901        0.04909373796740
19
 energy: -26.297801032695 gnorm: 0.000617992153 xtb: 6.7.1 (edcfbbe)
C           -2.58941377782225        0.56138071648390        0.01168366224622
C           -1.21635389986542       -0.04919793887957       -0.00216722314817
C           -1.13512742145585       -1.43666139377096       -0.00516677865478
C            0.08789112932532       -2.07760365449126       -0.00938998142689
C            1.24640565288049       -1.32933278578823       -0.00320232637350
C            1.18274922207951        0.06004162895423        0.00254582281713
C           -0.05091458779544        0.72252702282866       -0.00505579698403
C           -0.14184774826734        2.22581888533246       -0.01709752030472
O            2.38944746215380        0.70100913067372        0.01620480068109
H           -2.56925723639954        1.64366890071585       -0.02175485626896
H           -3.16126765431854        0.19848910798907       -0.84081902696494
H           -3.11484210306070        0.25494971896550        0.91506228526199
H           -2.04687904985950       -2.01548515663024       -0.00425111534214
H            0.14206024110277       -3.15555984710583       -0.01406465020435
H            2.22033561454015       -1.79314499425116       -0.00103106658027
H           -0.62180684334149        2.58316843284557        0.89314688859731
H            0.83052090247257        2.70589211030723       -0.08988938181260
H           -0.73016221053426        2.55780919051897       -0.87099946189838
H            2.27642052199733        1.66154344744962        0.06265436065437
19
 energy: -26.297802270858 gnorm: 0.000827728528 xtb: 6.7.1 (edcfbbe)
C           -2.58966082439712        0.56118846536664        0.01307341256895
C           -1.21664318804182       -0.04928873143744       -0.00338484322699
C           -1.13511760876310       -1.43672159810047       -0.00762952121190
C            0.08797254152019       -2.07747504470983       -0.01284449409390
C            1.24645771909502       -1.32911278693941       -0.00418046615179
C            1.18239752678183        0.06018022345458        0.00379738108628
C           -0.05126456319861        0.72255345871772       -0.00608351818712
C           -0.14139895052409        2.22575292375918       -0.02114146591853
O            2.38890149511940        0.70164234739813        0.02151222127483
H           -2.56977074718103        1.64324527867850       -0.02797028963285
H           -3.16631706618349        0.19208362545232       -0.83353584382486
H           -3.11003877876336        0.26133335322211        0.92167523165975
H           -2.04672628852934       -2.01576316909405       -0.00700804903150
H            0.14224218848242       -3.15541955321175       -0.01908458258466
H            2.22037401764401       -1.79285160530072       -0.00133253363611
H           -0.61048538934844        2.58682927679896        0.89345025800804
H            0.83061577230935        2.70443885943572       -0.10849012328948
H           -0.73940673334518        2.55533563119247       -0.86926835618037
H            2.27582709115497        1.66136156746489        0.08485421666659
19
 energy: -26.297803287962 gnorm: 0.000525260254 xtb: 6.7.1 (edcfbbe)
C           -2.58980475908599        0.56109311613539        0.01341699630587
C           -1.21661338568252       -0.04918650765603       -0.00399071841876
C           -1.13512927398740       -1.43667383323822       -0.00861588487155
C            0.08796665572763       -2.07752688136673       -0.01384207117723
C            1.24644794026965       -1.32913076702588       -0.00419784688970
C            1.18251923317845        0.06020886381453        0.00440731636691
C           -0.05119363684390        0.72252494727364       -0.00644530645237
C           -0.14107431213973        2.22590869683558       -0.02231409504184
O            2.38874869164667        0.70197268064749        0.02365368675416
H           -2.57040401366259        1.64304525438966       -0.03031616210962
H           -3.16795197938792        0.18962420727176       -0.83104004034946
H           -3.10815585147348        0.26343666908037        0.92384462042866
H           -2.04682194447536       -2.01564122543616       -0.00833514534767
H            0.14222281659843       -3.15545977404664       -0.02079144051471
H            2.22046262774152       -1.79281893566424       -0.00104716219158
H           -0.60586078218716        2.58801385734171        0.89396023118343
H            0.83059927700394        2.70408384464889       -0.11508186959450
H           -0.74281100919280        2.55469988337589       -0.86795020290269
H            2.27481191978415        1.66113842576655        0.09109372911704
19
 energy: -26.297804276665 gnorm: 0.000271810369 xtb: 6.7.1 (edcfbbe)
C           -2.58990929908470        0.56104079765006        0.01311566282230
C           -1.21638893985940       -0.04894160182619       -0.00437386129237
C           -1.13516594447310       -1.43654845162001       -0.00926727143885
C            0.08787784289274       -2.07767672371012       -0.01410512711038
C            1.24636922229887       -1.32928505241418       -0.00386402780372
C            1.18293285362723        0.06016990661495        0.00482036146572
C           -0.05087176443725        0.72248622026986       -0.00641892087294
C           -0.14075677652198        2.22623866563484       -0.02208929942524
O            2.38888528340657        0.70209306020282        0.02476350107235
H           -2.57114596235164        1.64296789178361       -0.03175400841043
H           -3.16827957760114        0.18829505230211       -0.83050741600690
H           -3.10722448533517        0.26411775969754        0.92427007949088
H           -2.04707992693576       -2.01526167023371       -0.00930339681936
H            0.14204838183787       -3.15560305272271       -0.02082734713615
H            2.22053730798360       -1.79295556633314       -0.00003239040716
H           -0.60301250826416        2.58798880328982        0.89543445189174
H            0.83051028175430        2.70441394501445       -0.11761082941595
H           -0.74486624382333        2.55474609010533       -0.86594872874080
H            2.27349846871806        1.66102644844222        0.09010720243164
19
 energy: -26.297804660795 gnorm: 0.000244435075 xtb: 6.7.1 (edcfbbe)
C           -2.58993828845958        0.56100487851333        0.01290284376489
C           -1.21628595352619       -0.04886225301196       -0.00487768620548
C           -1.13517942730072       -1.43651750751885       -0.00967260143036
C            0.08783640406066       -2.07775288190419       -0.01393042144652
C            1.24633280607903       -1.32936916214172       -0.00342072015081
C            1.18309025700440        0.06012220986569        0.00510634418519
C           -0.05073915936856        0.72245388021476       -0.00659204011723
C           -0.14062649701087        2.22635000436772       -0.02193326786457
O            2.38894413089485        0.70207382840569        0.02570067630372
H           -2.57145434552921        1.64291194738404       -0.03302550413972
H           -3.16871541096262        0.18725073967318       -0.82998821079399
H           -3.10659368020772        0.26492215783267        0.92472721638289
H           -2.04718361774216       -2.01510990247258       -0.01016170838109
H            0.14197493662828       -3.15568277178547       -0.02107645433862
H            2.22055502604683       -1.79304072569428        0.00049851053226
H           -0.60080218861639        2.58797793562139        0.89671108434702
H            0.83042766690537        2.70459029183875       -0.11978018327149
H           -0.74665120615630        2.55483081669331       -0.86438958139613
H            2.27296676109252        1.66115903626606        0.08961033831441
19
 energy: -26.297804942796 gnorm: 0.000217603191 xtb: 6.7.1 (edcfbbe)
C           -2.58995321552151        0.56097551296160        0.01265747839733
C           -1.21628587653505       -0.04885885198586       -0.00504530775532
C           -1.13518930143306       -1.43652346867342       -0.01006731971583
C            0.08782264699658       -2.07776789886802       -0.01425953641597
C            1.24632469100700       -1.32938432352346       -0.00332583596738
C            1.18309511196337        0.06011142608187        0.00547068504207
C           -0.05073452878516        0.72244841956673       -0.00649707800792
C           -0.14055722641214        2.22634624966103       -0.02177332142971
O            2.38891765610724        0.70205181612276        0.02648347309759
H           -2.57156099881592        1.64285217567777       -0.03423370732810
H           -3.16912413818062        0.18638410729644       -0.82961696716267
H           -3.10617963224727        0.26572980134874        0.92501696700654
H           -2.04720274229724       -2.01510086040493       -0.01054760501488
H            0.14196378142065       -3.15569768043778       -0.02106669295897
H            2.22054310648337       -1.79306181222525        0.00093947824796
H           -0.59901231978597        2.58799064369194        0.89775338780212
H            0.83036903683196        2.70456319266986       -0.12146505342091
H           -0.74810398103626        2.55491764659607       -0.86310079102096
H            2.27282614407166        1.66133642659146        0.08908638089937
19
 energy: -26.297805201527 gnorm: 0.000139968403 xtb: 6.7.1 (edcfbbe)
C           -2.58998179246402        0.56093144211982        0.01241404497031
C           -1.21637234962978       -0.04891047973972       -0.00527520534044
C           -1.13519185200523       -1.43655169668324       -0.01030224989899
C            0.08783624617240       -2.07772430084546       -0.01428824591037
C            1.24633259739511       -1.32933736434481       -0.00314235915384
C            1.18297782419733        0.06013419006293        0.00569949488284
C           -0.05084084864593        0.72246660580306       -0.00651204780903
C           -0.14051902335066        2.22627518018677       -0.02157110815476
O            2.38882130065744        0.70204357445893        0.02729888503788
H           -2.57156000642277        1.64275420781425       -0.03568483044555
H           -3.16967824095432        0.18541710130737       -0.82910775989959
H           -3.10577056648785        0.26677029546959        0.92539951899047
H           -2.04714913989222       -2.01519989212181       -0.01106505793222
H            0.14200926748347       -3.15565462084567       -0.02128025838813
H            2.22051186085962       -1.79302198143213        0.00132270301830
H           -0.59728229283571        2.58801482451426        0.89879360501599
H            0.83032753346851        2.70432921536404       -0.12301350375140
H           -0.74949078223538        2.55507361823361       -0.86178775554938
H            2.27297847852162        1.66150260282575        0.08851076461228
19
 energy: -26.297805387707 gnorm: 0.000062371902 xtb: 6.7.1 (edcfbbe)
C           -2.59001718001700        0.56087998963886        0.01224432916416
C           -1.21646225411571       -0.04896336322327       -0.00559834285381
C           -1.13518145194784       -1.43657247428283       -0.01077943748370
C            0.08786056390243       -2.07766530494281       -0.01446194732810
C            1.24634061468664       -1.32928121904433       -0.00292472132106
C            1.18284590213397        0.06015406307440        0.00601375112554
C           -0.05096142467043        0.72248931192612       -0.00650801083113
C           -0.14050775685386        2.22622933777300       -0.02141218962780
O            2.38873674027204        0.70203243337117        0.02802142477883
H           -2.57157592083369        1.64262657436567       -0.03735236306699
H           -3.17036007117013        0.18423019913570       -0.82831614053987
H           -3.10520941129765        0.26806081444237        0.92600387177651
H           -2.04707096727413       -2.01530349109334       -0.01169744345631
H            0.14205937873433       -3.15559579631264       -0.02146687993178
H            2.22048514256780       -1.79296692088562        0.00178550929492
H           -0.59559690422099        2.58807718798464        0.89975613963536
H            0.83023667506339        2.70407214654422       -0.12460816085515
H           -0.75087184488404        2.55526354198313       -0.86052490719424
H            2.27320838375649        1.66154549169311        0.08823415300899
19
 energy: -26.297805528973 gnorm: 0.000098135470 xtb: 6.7.1 (edcfbbe)
C           -2.59006290273062        0.56083576337255        0.01212260415862
C           -1.21653710384190       -0.04899524567865       -0.00575272970635
C           -1.13518678440915       -1.43659096543282       -0.01106107326134
C            0.08787255418154       -2.07763125538221       -0.01468690693079
C            1.24633900006286       -1.32923357641120       -0.00289237301359
C            1.18274264065956        0.06018064484536        0.00615200508467
C           -0.05105626054430        0.72250295614014       -0.00651252985209
C           -0.14043905463929        2.22620265491268       -0.02135969651002
O            2.38863863178913        0.70209660114499        0.02856803111970
H           -2.57165000017998        1.64250655271242       -0.03915545801790
H           -3.17115103308445        0.18284531324830       -0.82732661976708
H           -3.10446877739062        0.26949727705938        0.92680444629169
H           -2.04703235771563       -2.01538023092105       -0.01229663999144
H            0.14209092025669       -3.15556167970205       -0.02179912610846
H            2.22047188624481       -1.79290019012876        0.00205565907410
H           -0.59425275583474        2.58821213789402        0.90037162689247
H            0.83024855106534        2.70382105102253       -0.12597484868985
H           -0.75186450398473        2.55530556889365       -0.85965780846434
H            2.27325556392709        1.66159914455826        0.08881007198637
19
 energy: -26.297805858311 gnorm: 0.000196827136 xtb: 6.7.1 (edcfbbe)
C           -2.59014501922204        0.56076104050918        0.01200972388747
C           -1.21665681007573       -0.04904145815501       -0.00627956743236
C           -1.13518527016990       -1.43661800125045       -0.01189001030717
C            0.08790147308209       -2.07757972480520       -0.01530153648884
C            1.24635068760402       -1.32916387896007       -0.00286426783577
C            1.18258695542201        0.06021601650566        0.00651745672163
C           -0.05120490980896        0.72252707230096       -0.00659473735566
C           -0.14033525736959        2.22617371666335       -0.02142066634368
O            2.38849156097153        0.70219418306678        0.02973408075590
H           -2.57185139328269        1.64224547813310       -0.04336822457724
H           -3.17302751050114        0.17954965719401       -0.82473611969917
H           -3.10263295352008        0.27296089032908        0.92892475101257
H           -2.04695866234654       -2.01550596584970       -0.01343911618337
H            0.14214620807408       -3.15550769390506       -0.02265871845011
H            2.22046609459511       -1.79280031263008        0.00238344710718
H           -0.59165440559645        2.58854794666499        0.90139621949126
H            0.83020744121351        2.70340659967929       -0.12890954501888
H           -0.75385603219379        2.55532720573784       -0.85814919981006
H            2.27331601695617        1.66161975091887        0.09105466482067
19
 energy: -26.297790321670 gnorm: 0.004481107283 xtb: 6.7.1 (edcfbbe)
C           -2.59143549198652        0.55950804604899        0.01017386225081
C           -1.21841952356173       -0.04971300502947       -0.01534410865906
C           -1.13515505003639       -1.43701964363791       -0.02612593732336
C            0.08832490182158       -2.07683803248896       -0.02621836836886
C            1.24646287987759       -1.32813394477115       -0.00277331848633
C            1.18032494518385        0.06074159839307        0.01232856366240
C           -0.05339930650005        0.72279441143171       -0.00848473012093
C           -0.13839290039141        2.22580787634529       -0.02251621654909
O            2.38598389635988        0.70393472351693        0.05010194486745
H           -2.57584399865423        1.63751654332922       -0.11885850964354
H           -3.20621837231009        0.12030466637961       -0.77798088138005
H           -3.06931986915974        0.33516702881578        0.96699620675881
H           -2.04590702113722       -2.01730223888750       -0.03411700003174
H            0.14299481846785       -3.15472323228458       -0.03772515917724
H            2.22040557401237       -1.79128804438919        0.00834009148124
H           -0.54711169549646        2.59382063792756        0.91908628654382
H            0.82960603599600        2.69681665649178       -0.17900622756766
H           -0.78779847786596        2.55597222534862       -0.83227674869135
H            2.27285686921231        1.66194624960775        0.13080888472904
19
 energy: -26.297808197514 gnorm: 0.000969469479 xtb: 6.7.1 (edcfbbe)
C           -2.59071526318961        0.56017889157170        0.01126426745915
C           -1.21743201907579       -0.04934388488960       -0.01039062991896
C           -1.13516292551526       -1.43680667370804       -0.01843066465261
C            0.08809837993423       -2.07727049825129       -0.02027487937276
C            1.24639785568983       -1.32871398134339       -0.00281390700302