41
 energy: -2932.484326082534 gnorm: 0.000740965060 xtb: 6.7.1 (edcfbbe)
C            1.59212276113371        1.73862745515279        3.09474578531163
C            2.20053914697782        1.42419505500912        1.75376224476960
O            2.22273225292856       -0.04389535242985        1.62286051385256
P            2.49757733285490       -0.76457177607923        0.21876892589761
S            2.56984105015998       -2.69635370306126        0.43368846666237
O            3.80917797156411        0.00639494698676       -0.29611571169184
C            4.53631642210693       -0.45312301520728       -1.49446896204665
C            5.88778495932997       -0.97529062454990       -1.08023309522448
S            1.08036989889786       -0.05472914498663       -1.20038284765249
C           -0.36709415287191       -1.09565265764649       -0.76261731525375
S           -1.38414831678769       -0.48725397501152        0.63712215475858
P           -2.88055507465082        0.69045477814440       -0.33691271234694
S           -2.55088600719159        1.05201283757531       -2.21993208749786
O           -3.09265010067464        1.93438879673857        0.65266163497788
C           -2.47347233519549        3.24522148407343        0.40759156415264
C           -0.99556033126014        3.24093370238976        0.70583175158421
O           -4.25771211875223       -0.05458141024269        0.04194498100219
C           -4.55127723203370       -1.36354740656018       -0.55321122596864
C           -5.67148003026059       -1.97575433096308        0.24664709820413
H            0.57012199557419        1.35500375555030        3.16082943721974
H            2.18866600742103        1.30869447785175        3.90441295992746
H            1.56470352763896        2.82472620336319        3.22536552766091
H            3.23120711867305        1.78084405661873        1.67653689380940
H            1.60847942646070        1.83891683103382        0.93148925807131
H            3.94632223839016       -1.21877305849618       -2.00781174790162
H            4.61230504961355        0.42598670066227       -2.13869983279433
H            6.44635817023570       -1.26435040101110       -1.97618498105874
H            6.45738422769871       -0.20601944232761       -0.55118441187563
H            5.78580638422167       -1.85293860755289       -0.43567587597328
H           -0.01532719068233       -2.09594266732137       -0.48961619012620
H           -0.98423409727890       -1.16347088176454       -1.66155018762637
H           -2.68278068421549        3.53376513339710       -0.62672732287026
H           -3.01946648915740        3.90938342438834        1.08000958858526
H           -0.61913162314342        4.26515624285435        0.61684797840460
H           -0.80226904641548        2.88811287870445        1.72248204648992
H           -0.44642279814311        2.61314097522712       -0.00176329824018
H           -4.83241738999694       -1.20161748535438       -1.59816746890260
H           -3.64746396394476       -1.98321357743737       -0.51516337059280
H           -5.92570945433796       -2.94818504379131       -0.18535055303150
H           -5.37025763535067       -2.12670646594567        1.28703937049860
H           -6.56241862153679       -1.34207032467021        0.22004664928003
41
 energy: -2932.484328907536 gnorm: 0.000924320693 xtb: 6.7.1 (edcfbbe)
C            1.59317231635476        1.73928806144682        3.09447138810136
C            2.20059155474033        1.42395302294716        1.75325770966615
O            2.22208124555242       -0.04436056526292        1.62199222732371
P            2.49743156268664       -0.76523321945102        0.21794208101742
S            2.56943993843136       -2.69669071360962        0.43718303507830
O            3.80937627804315        0.00549674146357       -0.29674986732271
C            4.53708978269819       -0.45469059162366       -1.49450049802686
C            5.88913489899284       -0.97415783032446       -1.08031150390688
S            1.07819521332489       -0.05378498569877       -1.19835180042588
C           -0.36965166837062       -1.09503373119702       -0.76200929226400
S           -1.38471624673845       -0.48477175718893        0.63866173608813
P           -2.88133370807794        0.69099299982571       -0.33671500229042
S           -2.55307896210946        1.05313423754983       -2.21974975831463
O           -3.09401216412512        1.93530019896904        0.65242886652423
C           -2.47325146990607        3.24568702924315        0.40798181447879
C           -0.99524657916252        3.23994481319076        0.70618325645165
O           -4.25796396449894       -0.05488106965629        0.04257224629644
C           -4.55103787652495       -1.36377623604687       -0.55328708201577
C           -5.67166649152569       -1.97692477909302        0.24534981844836
H            0.57094559631237        1.35641983551660        3.16127555053951
H            2.18986768734919        1.30923511467133        3.90395489804879
H            1.56646727408600        2.82546012791460        3.22499900589373
H            3.23130970067976        1.78024787815623        1.67557392531364
H            1.60835468531975        1.83918447827813        0.93141822102853
H            3.94779115992847       -1.22148234408674       -2.00693770686855
H            4.61204969059525        0.42347386040813       -2.13999286098057
H            6.44775925312431       -1.26343924210710       -1.97629050296606
H            6.45817978388939       -0.20392629979341       -0.55227666973060
H            5.78891347345797       -1.85131820925151       -0.43500129285744
H           -0.01845564773258       -2.09557596287954       -0.48932291835111
H           -0.98702163210765       -1.16153854355468       -1.66084989875118
H           -2.68233443065388        3.53494518252369       -0.62618020554776
H           -3.01849643617494        3.91007037866017        1.08088909555840
H           -0.61817670019553        4.26403589208223        0.61588739736166
H           -0.80206168505283        2.88817839295594        1.72327639799767
H           -0.44652070106170        2.61095440892655       -0.00090640498924
H           -4.83157916676433       -1.20150056851217       -1.59834768619267
H           -3.64709026808513       -1.98320538624693       -0.51495035700649
H           -5.92602179496697       -2.94853638966017       -0.18877172984168
H           -5.37093632220327       -2.13013333501279        1.28563927216380
H           -6.56247634005654       -1.34298990918151        0.21949890691354
41
 energy: -2932.484328907536 gnorm: 0.000924320693 xtb: 6.7.1 (edcfbbe)
C            1.59317231635476        1.73928806144682        3.09447138810136
C            2.20059155474033        1.42395302294716        1.75325770966615
O            2.22208124555242       -0.04436056526292        1.62199222732371
P            2.49743156268664       -0.76523321945102        0.21794208101742
S            2.56943993843136       -2.69669071360962        0.43718303507830
O            3.80937627804315        0.00549674146357       -0.29674986732271
C            4.53708978269819       -0.45469059162366       -1.49450049802686
C            5.88913489899284       -0.97415783032446       -1.08031150390688
S            1.07819521332489       -0.05378498569877       -1.19835180042588
C           -0.36965166837062       -1.09503373119702       -0.76200929226400
S           -1.38471624673845       -0.48477175718893        0.63866173608813
P           -2.88133370807794        0.69099299982571       -0.33671500229042
S           -2.55307896210946        1.05313423754983       -2.21974975831463
O           -3.09401216412512        1.93530019896904        0.65242886652423
C           -2.47325146990607        3.24568702924315        0.40798181447879
C           -0.99524657916252        3.23994481319076        0.70618325645165
O           -4.25796396449894       -0.05488106965629        0.04257224629644
C           -4.55103787652495       -1.36377623604687       -0.55328708201577
C           -5.67166649152569       -1.97692477909302        0.24534981844836
H            0.57094559631237        1.35641983551660        3.16127555053951
H            2.18986768734919        1.30923511467133        3.90395489804879
H            1.56646727408600        2.82546012791460        3.22499900589373
H            3.23130970067976        1.78024787815623        1.67557392531364
H            1.60835468531975        1.83918447827813        0.93141822102853
H            3.94779115992847       -1.22148234408674       -2.00693770686855
H            4.61204969059525        0.42347386040813       -2.13999286098057
H            6.44775925312431       -1.26343924210710       -1.97629050296606
H            6.45817978388939       -0.20392629979341       -0.55227666973060
H            5.78891347345797       -1.85131820925151       -0.43500129285744
H           -0.01845564773258       -2.09557596287954       -0.48932291835111
H           -0.98702163210765       -1.16153854355468       -1.66084989875118
H           -2.68233443065388        3.53494518252369       -0.62618020554776
H           -3.01849643617494        3.91007037866017        1.08088909555840
H           -0.61817670019553        4.26403589208223        0.61588739736166
H           -0.80206168505283        2.88817839295594        1.72327639799767
H           -0.44652070106170        2.61095440892655       -0.00090640498924
H           -4.83157916676433       -1.20150056851217       -1.59834768619267
H           -3.64709026808513       -1.98320538624693       -0.51495035700649
H           -5.92602179496697       -2.94853638966017       -0.18877172984168
H           -5.37093632220327       -2.13013333501279        1.28563927216380
H           -6.56247634005654       -1.34298990918151        0.21949890691354
