      -----------------------------------------------------------      
     |                   =====================                   |     
     |                           x T B                           |     
     |                   =====================                   |     
     |                         S. Grimme                         |     
     |          Mulliken Center for Theoretical Chemistry        |     
     |                    University of Bonn                     |     
      -----------------------------------------------------------      

   * xtb version 6.7.1 (edcfbbe) compiled by 'albert@albert-system' on 2024-07-22

   xtb is free software: you can redistribute it and/or modify it under
   the terms of the GNU Lesser General Public License as published by
   the Free Software Foundation, either version 3 of the License, or
   (at your option) any later version.
   
   xtb is distributed in the hope that it will be useful,
   but WITHOUT ANY WARRANTY; without even the implied warranty of
   MERCHANTABILITY or FITNESS FOR A PARTICULAR PURPOSE.  See the
   GNU Lesser General Public License for more details.
   
   Cite this work as:
   * C. Bannwarth, E. Caldeweyher, S. Ehlert, A. Hansen, P. Pracht,
     J. Seibert, S. Spicher, S. Grimme, WIREs Comput. Mol. Sci., 2020, 11,
     e01493. DOI: 10.1002/wcms.1493
   
   for GFN2-xTB:
   * C. Bannwarth, S. Ehlert and S. Grimme., J. Chem. Theory Comput., 2019,
     15, 1652-1671. DOI: 10.1021/acs.jctc.8b01176
   for GFN1-xTB:
   * S. Grimme, C. Bannwarth, P. Shushkov, J. Chem. Theory Comput., 2017,
     13, 1989-2009. DOI: 10.1021/acs.jctc.7b00118
   for GFN0-xTB:
   * P. Pracht, E. Caldeweyher, S. Ehlert, S. Grimme, ChemRxiv, 2019, preprint.
     DOI: 10.26434/chemrxiv.8326202.v1
   for GFN-FF:
   * S. Spicher and S. Grimme, Angew. Chem. Int. Ed., 2020, 59, 15665-15673.
     DOI: 10.1002/anie.202004239
   
   for ALPB and GBSA implicit solvation:
   * S. Ehlert, M. Stahn, S. Spicher, S. Grimme, J. Chem. Theory Comput.,
     2021, 17, 4250-4261. DOI: 10.1021/acs.jctc.1c00471
   
   for ddCOSMO and CPCM-X implicit solvation:
   * M. Stahn, S. Ehlert, S. Grimme, J. Phys. Chem. A,
     2023, XX, XXXX-XXXX. DOI: 10.1021/acs.jpca.3c04382
   
   for DFT-D4:
   * E. Caldeweyher, C. Bannwarth and S. Grimme, J. Chem. Phys., 2017,
     147, 034112. DOI: 10.1063/1.4993215
   * E. Caldeweyher, S. Ehlert, A. Hansen, H. Neugebauer, S. Spicher,
     C. Bannwarth and S. Grimme, J. Chem. Phys., 2019, 150, 154122.
     DOI: 10.1063/1.5090222
   * E. Caldeweyher, J.-M. Mewes, S. Ehlert and S. Grimme, Phys. Chem. Chem. Phys.
     2020, 22, 8499-8512. DOI: 10.1039/D0CP00502A
   
   for sTDA-xTB:
   * S. Grimme and C. Bannwarth, J. Chem. Phys., 2016, 145, 054103.
     DOI: 10.1063/1.4959605
   
   in the mass-spec context:
   * V. Asgeirsson, C. Bauer and S. Grimme, Chem. Sci., 2017, 8, 4879.
     DOI: 10.1039/c7sc00601b
   * J. Koopman and S. Grimme, ACS Omega 2019, 4, 12, 15120-15133.
     DOI: 10.1021/acsomega.9b02011
   
   for metadynamics refer to:
   * S. Grimme, J. Chem. Theory Comput., 2019, 155, 2847-2862
     DOI: 10.1021/acs.jctc.9b00143
   
   for SPH calculations refer to:
   * S. Spicher and S. Grimme, J. Chem. Theory Comput., 2021, 17, 1701-1714
     DOI: 10.1021/acs.jctc.0c01306
   
   for ONIOM refer to:
   * C. Plett, A. Katbashev, S. Ehlert, S. Grimme, M. Bursch,
     Phys. Chem. Chem. Phys., 2023, 25, 17860-17868. DOI: 10.1039/D3CP02178E
   
   for DIPRO refer to:
   * J. Kohn, N. Gildemeister, S. Grimme, D. Fazzi, A. Hansen,
     J. Chem. Phys., 2023, just accepted.
   
   for PTB refer to:
   * S. Grimme, M. Mueller, A. Hansen, J. Chem. Phys., 2023, 158, 124111.
     DOI: 10.1063/5.0137838
   
   with help from (in alphabetical order)
   P. Atkinson, C. Bannwarth, F. Bohle, G. Brandenburg, E. Caldeweyher
   M. Checinski, S. Dohm, S. Ehlert, S. Ehrlich, I. Gerasimov, C. Hölzer
   A. Katbashev, J. Kohn, J. Koopman, C. Lavigne, S. Lehtola, F. März, M. Müller,
   F. Musil, H. Neugebauer, J. Pisarek, C. Plett, P. Pracht, F. Pultar,
   J. Seibert, P. Shushkov, S. Spicher, M. Stahn, M. Steiner, T. Strunk,
   J. Stückrath, T. Rose, and J. Unsleber
   
 * started run on 2025/04/09 at 13:58:49.771     
   ID    Z sym.   atoms
    1    6 C      1, 2, 7, 8, 10, 15, 16, 18, 19
    2    8 O      3, 6, 14, 17
    3   15 P      4, 12
    4   16 S      5, 9, 11, 13
    5    1 H      20-41

           -------------------------------------------------
          |                Calculation Setup                |
           -------------------------------------------------

          program call               : /srv/scratch/z5358697/.xtb/bin/xtb xtb_rrho.coord --gfn2 --bhess vtight --chrg 0 --enso --norestart -I rrho-xcontrol-inp --parallel 1 --alpb water
          hostname                   : k163
          coordinate file            : xtb_rrho.coord
          omp threads                :                     1


           -------------------------------------------------
          |                 G F N 2 - x T B                 |
           -------------------------------------------------

        Reference                      10.1021/acs.jctc.8b01176
      * Hamiltonian:
        H0-scaling (s, p, d)           1.850000    2.230000    2.230000
        zeta-weighting                 0.500000
      * Dispersion:
        s8                             2.700000
        a1                             0.520000
        a2                             5.000000
        s9                             5.000000
      * Repulsion:
        kExp                           1.500000    1.000000
        rExp                           1.000000
      * Coulomb:
        alpha                          2.000000
        third order                    shell-resolved
        anisotropic                    true
        a3                             3.000000
        a5                             4.000000
        cn-shift                       1.200000
        cn-exp                         4.000000
        max-rad                        5.000000

      * Solvation model:               ALPB
        Solvent                        water
        Parameter file                 internal GFN2-xTB/ALPB
        Dielectric constant                8.0200E+01
        Reference state                gsolv [1 M gas/solution]
        Free energy shift                  1.0808E-03 Eh       6.7819E-01 kcal/mol
        Temperature                        2.9815E+02 K
        Density                            1.0000E+00 kg/L
        Solvent mass                       1.8000E+01 g/mol
        Interaction kernel             P16
        Born radius scaling (c1)           1.4744E+00
        Born radii integrator          GBOBC
        Born offset                        0.0000E+00 a0       0.0000E+00 AA
        H-bond correction              true
        Ion screening                  false
        Surface tension                    1.0000E-05 Eh       1.5569E+01 dyn/cm
        Grid points                               974 per atom

          ...................................................
          :                      SETUP                      :
          :.................................................:
          :  # basis functions                 134          :
          :  # atomic orbitals                 128          :
          :  # shells                           66          :
          :  # electrons                       116          :
          :  max. iterations                   250          :
          :  Hamiltonian                  GFN2-xTB          :
          :  restarted?                      false          :
          :  GBSA solvation                   true          :
          :  PC potential                    false          :
          :  electronic temp.          300.0000000     K    :
          :  accuracy                    1.0000000          :
          :  -> integral cutoff          0.2500000E+02      :
          :  -> integral neglect         0.1000000E-07      :
          :  -> SCF convergence          0.1000000E-05 Eh   :
          :  -> wf. convergence          0.1000000E-03 e    :
          :  Broyden damping             0.4000000          :
          :  net charge                          0          :
          :  unpaired electrons                  0          :
          ...................................................

 iter      E             dE          RMSdq      gap      omega  full diag
   1    -65.4100155 -0.654100E+02  0.668E+00    4.35       0.0  T
   2    -65.5311362 -0.121121E+00  0.383E+00    3.65       1.0  T
   3    -65.5500810 -0.189448E-01  0.108E+00    3.17       1.0  T
   4    -65.5535468 -0.346581E-02  0.485E-01    3.10       1.0  T
   5    -65.5542669 -0.720075E-03  0.263E-01    3.17       1.0  T
   6    -65.5544667 -0.199777E-03  0.115E-01    3.17       1.0  T
   7    -65.5545123 -0.455845E-04  0.425E-02    3.20       1.0  T
   8    -65.5545165 -0.422531E-05  0.182E-02    3.20       1.0  T
   9    -65.5545174 -0.895859E-06  0.603E-03    3.20       2.6  T
  10    -65.5545174 -0.636759E-08  0.312E-03    3.20       5.0  T
  11    -65.5545175 -0.591447E-07  0.960E-04    3.20      16.3  T
  12    -65.5545175 -0.202276E-08  0.394E-04    3.20      39.7  T

   *** convergence criteria satisfied after 12 iterations ***

         #    Occupation            Energy/Eh            Energy/eV
      -------------------------------------------------------------
         1        2.0000           -0.7618101             -20.7299
       ...           ...                  ...                  ...
        52        2.0000           -0.4456242             -12.1261
        53        2.0000           -0.4206580             -11.4467
        54        2.0000           -0.4159062             -11.3174
        55        2.0000           -0.3952906             -10.7564
        56        2.0000           -0.3929683             -10.6932
        57        2.0000           -0.3917219             -10.6593
        58        2.0000           -0.3911109             -10.6427 (HOMO)
        59                         -0.2734098              -7.4399 (LUMO)
        60                         -0.2431181              -6.6156
        61                         -0.2302687              -6.2659
        62                         -0.2023459              -5.5061
        63                         -0.1820938              -4.9550
       ...                                ...                  ...
       128                          1.2405154              33.7561
      -------------------------------------------------------------
                  HL-Gap            0.1177010 Eh            3.2028 eV
             Fermi-level           -0.3322603 Eh           -9.0413 eV

 SCC (total)                   0 d,  0 h,  0 min,  0.072 sec
 SCC setup                      ...        0 min,  0.002 sec (  2.939%)
 Dispersion                     ...        0 min,  0.000 sec (  0.372%)
 classical contributions        ...        0 min,  0.000 sec (  0.069%)
 integral evaluation            ...        0 min,  0.019 sec ( 25.891%)
 iterations                     ...        0 min,  0.029 sec ( 40.417%)
 molecular gradient             ...        0 min,  0.022 sec ( 29.926%)
 printout                       ...        0 min,  0.000 sec (  0.366%)

         :::::::::::::::::::::::::::::::::::::::::::::::::::::
         ::                     SUMMARY                     ::
         :::::::::::::::::::::::::::::::::::::::::::::::::::::
         :: total energy             -65.015728298341 Eh    ::
         :: total w/o Gsasa/hb       -65.017260576394 Eh    ::
         :: gradient norm              0.050791267343 Eh/a0 ::
         :: HOMO-LUMO gap              3.202807731548 eV    ::
         ::.................................................::
         :: SCC energy               -65.553521377401 Eh    ::
         :: -> isotropic ES            0.125324970247 Eh    ::
         :: -> anisotropic ES         -0.012725101534 Eh    ::
         :: -> anisotropic XC          0.031499229602 Eh    ::
         :: -> dispersion             -0.050624791097 Eh    ::
         :: -> Gsolv                  -0.020799677780 Eh    ::
         ::    -> Gelec               -0.022331955832 Eh    ::
         ::    -> Gsasa                0.004661771994 Eh    ::
         ::    -> Ghb                 -0.004210253640 Eh    ::
         ::    -> Gshift               0.001080759698 Eh    ::
         :: repulsion energy           0.537793079059 Eh    ::
         :: add. restraining           0.000000000000 Eh    ::
         :: total charge               0.000000000000 e     ::
         :::::::::::::::::::::::::::::::::::::::::::::::::::::

metadynamics with 1 initial structures loaded
           -------------------------------------------------
          |           Optimal kpush determination           |
           -------------------------------------------------
      ----------------------------------------------------------- 
     |                   =====================                   |
     |                        A N C O P T                        |
     |                   =====================                   |
     |               Approximate Normal Coordinate               |
     |                Rational Function Optimizer                |
      ----------------------------------------------------------- 
target rmsd / Å         0.100000
unbiased initial rmsd   0.272178
 
iter. min.        max.        rmsd       kpush
      ----------------------------------------------------------- 
     |                   =====================                   |
     |                        A N C O P T                        |
     |                   =====================                   |
     |               Approximate Normal Coordinate               |
     |                Rational Function Optimizer                |
      ----------------------------------------------------------- 
 1    0.000000    1.863636    0.015119   -0.931818
      ----------------------------------------------------------- 
     |                   =====================                   |
     |                        A N C O P T                        |
     |                   =====================                   |
     |               Approximate Normal Coordinate               |
     |                Rational Function Optimizer                |
      ----------------------------------------------------------- 
 2    0.000000    0.931818    0.021215   -0.465909
      ----------------------------------------------------------- 
     |                   =====================                   |
     |                        A N C O P T                        |
     |                   =====================                   |
     |               Approximate Normal Coordinate               |
     |                Rational Function Optimizer                |
      ----------------------------------------------------------- 
 3    0.000000    0.465909    0.030631   -0.232955
      ----------------------------------------------------------- 
     |                   =====================                   |
     |                        A N C O P T                        |
     |                   =====================                   |
     |               Approximate Normal Coordinate               |
     |                Rational Function Optimizer                |
      ----------------------------------------------------------- 
 4    0.000000    0.232955    0.045481   -0.116477
      ----------------------------------------------------------- 
     |                   =====================                   |
     |                        A N C O P T                        |
     |                   =====================                   |
     |               Approximate Normal Coordinate               |
     |                Rational Function Optimizer                |
      ----------------------------------------------------------- 
 5    0.000000    0.116477    0.068372   -0.058239
      ----------------------------------------------------------- 
     |                   =====================                   |
     |                        A N C O P T                        |
     |                   =====================                   |
     |               Approximate Normal Coordinate               |
     |                Rational Function Optimizer                |
      ----------------------------------------------------------- 
 6    0.000000    0.058239    0.099612   -0.029119
final kpush: -0.029119
           -------------------------------------------------
          |            Biased Numerical Hessian             |
           -------------------------------------------------
kpush                :  -0.02912
alpha                :   1.00000
step length          :   0.00500
SCC accuracy         :   0.30000
Hessian scale factor :   1.00000
frozen atoms in %    :   0.00000    0
RMS gradient         :   0.00003
estimated CPU  time      0.18 min
estimated wall time      0.18 min

writing file <hessian>.

 projected vibrational frequencies (cm⁻¹)
eigval :       -0.00    -0.00    -0.00    -0.00     0.00     0.00
eigval :       47.90    52.01    57.64    59.82    72.03    67.11
eigval :       65.43    64.09    66.52    72.99    75.16    83.11
eigval :      107.64   127.91   121.62   115.07   124.59   160.47
eigval :      138.44   181.05   190.65   214.40   234.23   232.67
eigval :      232.16   230.22   236.60   239.93   265.44   284.35
eigval :      320.85   343.72   354.44   374.69   402.23   427.56
eigval :      432.82   470.49   488.75   617.56   627.36   656.68
eigval :      680.69   732.80   751.73   764.92   783.32   788.71
eigval :      817.83   818.65   820.25   828.38   902.58   910.82
eigval :      938.79   941.31  1032.11  1035.17  1046.16  1054.13
eigval :     1065.47  1092.82  1093.61  1094.21  1103.65  1128.76
eigval :     1130.21  1134.28  1139.19  1151.72  1234.14  1235.93
eigval :     1240.96  1241.08  1303.47  1306.10  1308.51  1319.97
eigval :     1341.55  1391.65  1391.56  1393.39  1398.57  1436.42
eigval :     1437.24  1438.67  1454.72  1459.36  1461.08  1461.74
eigval :     1467.23  1474.77  1476.56  1478.29  1483.43  2919.57
eigval :     2927.29  2936.33  2937.73  2940.63  2969.41  2969.82
eigval :     2975.51  2982.48  3021.09  3021.84  3032.42  3037.30
eigval :     3040.22  3047.43  3049.85  3052.11  3052.14  3053.23
eigval :     3058.16  3059.88  3065.73
           -------------------------------------------------
          |                Property Printout                |
           -------------------------------------------------

    * Orbital Energies and Occupations

         #    Occupation            Energy/Eh            Energy/eV
      -------------------------------------------------------------
         1        2.0000           -0.7668469             -20.8670
       ...           ...                  ...                  ...
        46        2.0000           -0.4674501             -12.7200
        47        2.0000           -0.4638571             -12.6222
        48        2.0000           -0.4579696             -12.4620
        49        2.0000           -0.4565638             -12.4237
        50        2.0000           -0.4549293             -12.3793
        51        2.0000           -0.4496420             -12.2354
        52        2.0000           -0.4445409             -12.0966
        53        2.0000           -0.4207465             -11.4491
        54        2.0000           -0.4141518             -11.2696
        55        2.0000           -0.3942462             -10.7280
        56        2.0000           -0.3925280             -10.6812
        57        2.0000           -0.3910757             -10.6417
        58        2.0000           -0.3903792             -10.6228 (HOMO)
        59                         -0.2733016              -7.4369 (LUMO)
        60                         -0.2452500              -6.6736
        61                         -0.2311971              -6.2912
        62                         -0.1992940              -5.4231
        63                         -0.1754919              -4.7754
        64                         -0.1721942              -4.6856
        65                         -0.1671883              -4.5494
        66                         -0.1589767              -4.3260
        67                         -0.1359800              -3.7002
        68                         -0.1264092              -3.4398
        69                         -0.0472888              -1.2868
       ...                                ...                  ...
       128                          1.2485244              33.9741
      -------------------------------------------------------------
                  HL-Gap            0.1170776 Eh            3.1858 eV
             Fermi-level           -0.3318404 Eh           -9.0298 eV

     #   Z          covCN         q      C6AA      α(0)
     1   6 C        3.751    -0.121    22.886     6.823
     2   6 C        3.855     0.083    19.170     6.227
     3   8 O        1.654    -0.269    18.470     5.802
     4  15 P        3.847     0.374   144.690    21.608
     5  16 S        0.926    -0.465   159.720    21.376
     6   8 O        1.654    -0.265    18.406     5.792
     7   6 C        3.853     0.077    19.258     6.242
     8   6 C        3.751    -0.130    23.066     6.849
     9  16 S        1.984    -0.113   145.789    20.322
    10   6 C        3.805     0.030    20.064     6.377
    11  16 S        1.991    -0.147   147.237    20.423
    12  15 P        3.880     0.382   144.376    21.584
    13  16 S        0.927    -0.473   160.117    21.403
    14   8 O        1.654    -0.264    18.390     5.789
    15   6 C        3.885     0.076    19.268     6.241
    16   6 C        3.751    -0.127    23.009     6.841
    17   8 O        1.656    -0.252    18.187     5.757
    18   6 C        3.869     0.090    19.050     6.206
    19   6 C        3.752    -0.131    23.082     6.851
    20   1 H        0.925     0.060     2.203     2.321
    21   1 H        0.925     0.056     2.247     2.344
    22   1 H        0.925     0.084     1.937     2.176
    23   1 H        0.924     0.059     2.215     2.328
    24   1 H        0.924     0.087     1.905     2.158
    25   1 H        0.924     0.058     2.225     2.333
    26   1 H        0.924     0.088     1.901     2.156
    27   1 H        0.925     0.060     2.195     2.317
    28   1 H        0.925     0.083     1.948     2.182
    29   1 H        0.925     0.072     2.063     2.246
    30   1 H        0.925     0.111     1.687     2.031
    31   1 H        0.925     0.118     1.627     1.995
    32   1 H        0.924     0.093     1.853     2.128
    33   1 H        0.924     0.063     2.159     2.298
    34   1 H        0.925     0.074     2.039     2.233
    35   1 H        0.925     0.085     1.933     2.174
    36   1 H        0.925     0.056     2.247     2.344
    37   1 H        0.924     0.058     2.226     2.333
    38   1 H        0.924     0.051     2.311     2.377
    39   1 H        0.925     0.073     2.054     2.241
    40   1 H        0.925     0.082     1.955     2.187
    41   1 H        0.925     0.074     2.037     2.232

 Mol. C6AA /au·bohr⁶  :      26414.095971
 Mol. C8AA /au·bohr⁸  :     862648.200173
 Mol. α(0) /au        :        257.647441


Wiberg/Mayer (AO) data.
largest (>0.10) Wiberg bond orders for each atom

 ---------------------------------------------------------------------------
     #   Z sym  total        # sym  WBO       # sym  WBO       # sym  WBO
 ---------------------------------------------------------------------------
     1   6 C    3.987 --     2 C    1.023    20 H    0.983    21 H    0.983
                            22 H    0.975
     2   6 C    3.892 --     1 C    1.023    23 H    0.968    24 H    0.966
                             3 O    0.875
     3   8 O    2.385 --     4 P    1.313     2 C    0.875
     4  15 P    5.289 --     5 S    1.515     6 O    1.323     3 O    1.313
                             9 S    1.004
     5  16 S    1.840 --     4 P    1.515     9 S    0.137
     6   8 O    2.402 --     4 P    1.323     7 C    0.883
     7   6 C    3.889 --     8 C    1.021    25 H    0.969    26 H    0.967
                             6 O    0.883
     8   6 C    3.985 --     7 C    1.021    29 H    0.983    27 H    0.983
                            28 H    0.976
     9  16 S    2.304 --     4 P    1.004    10 C    0.985     5 S    0.137
    10   6 C    3.947 --     9 S    0.985    11 S    0.981    31 H    0.956
                            30 H    0.954
    11  16 S    2.277 --    12 P    0.993    10 C    0.981
    12  15 P    5.299 --    13 S    1.542    14 O    1.317    17 O    1.310
                            11 S    0.993
    13  16 S    1.831 --    12 P    1.542
    14   8 O    2.386 --    12 P    1.317    15 C    0.873
    15   6 C    3.885 --    16 C    1.024    33 H    0.968    32 H    0.965
                            14 O    0.873
    16   6 C    3.987 --    15 C    1.024    34 H    0.982    36 H    0.976
                            35 H    0.975
    17   8 O    2.411 --    12 P    1.310    18 C    0.889
    18   6 C    3.895 --    19 C    1.017    38 H    0.968    37 H    0.966
                            17 O    0.889
    19   6 C    3.982 --    18 C    1.017    39 H    0.983    41 H    0.982
                            40 H    0.976
    20   1 H    0.996 --     1 C    0.983
    21   1 H    0.997 --     1 C    0.983
    22   1 H    0.992 --     1 C    0.975
    23   1 H    0.996 --     2 C    0.968
    24   1 H    0.992 --     2 C    0.966
    25   1 H    0.997 --     7 C    0.969
    26   1 H    0.992 --     7 C    0.967
    27   1 H    0.996 --     8 C    0.983
    28   1 H    0.992 --     8 C    0.976
    29   1 H    0.995 --     8 C    0.983
    30   1 H    0.985 --    10 C    0.954
    31   1 H    0.986 --    10 C    0.956
    32   1 H    0.991 --    15 C    0.965
    33   1 H    0.996 --    15 C    0.968
    34   1 H    0.994 --    16 C    0.982
    35   1 H    0.992 --    16 C    0.975
    36   1 H    0.997 --    16 C    0.976
    37   1 H    0.997 --    18 C    0.966
    38   1 H    0.997 --    18 C    0.968
    39   1 H    0.995 --    19 C    0.983
    40   1 H    0.991 --    19 C    0.976
    41   1 H    0.994 --    19 C    0.982
 ---------------------------------------------------------------------------

Topologies differ in total number of bonds
Writing topology from bond orders to xtbtopo.mol

molecular dipole:
                 x           y           z       tot (Debye)
 q only:       -0.752      -2.292       1.801
   full:       -0.715      -2.251       1.867       7.651
molecular quadrupole (traceless):
                xx          xy          yy          xz          yz          zz
 q only:       11.595     -16.152      -2.742     -12.429       6.566      -8.853
  q+dip:        9.037     -18.450       1.226     -15.304      10.252     -10.262
   full:        9.814     -19.427       0.603     -15.495       9.561     -10.417

           -------------------------------------------------
          |                Geometry Summary                 |
           -------------------------------------------------

      molecular mass/u    :      384.4756129
   center of mass at/Å    :       -0.0375709       0.0158234      -0.0035056
  moments of inertia/u·Å² :        0.1208396E+04   0.3775824E+04   0.3912338E+04
rotational constants/cm⁻¹ :        0.1395042E-01   0.4464624E-02   0.4308838E-02

 * 38 selected distances

     #   Z          #   Z                                           value/Å
     1   6 C        2   6 C                                       1.5157655
     2   6 C        3   8 O                                       1.4471589
     3   8 O        4  15 P                                       1.5847975
     4  15 P        5  16 S                                       1.9641225
     4  15 P        6   8 O                                       1.5921096
     6   8 O        7   6 C                                       1.4447582
     7   6 C        8   6 C                                       1.5167753
     4  15 P        9  16 S                                       2.1070990
    11  16 S       12  15 P                                       2.1126335 (max)
    12  15 P       13  16 S                                       1.9580231
    12  15 P       14   8 O                                       1.5853391
    14   8 O       15   6 C                                       1.4474468
    15   6 C       16   6 C                                       1.5146743
    12  15 P       17   8 O                                       1.5920367
    17   8 O       18   6 C                                       1.4372844
    18   6 C       19   6 C                                       1.5145590
     1   6 C       20   1 H                                       1.0875942
     1   6 C       21   1 H                                       1.0883440
     1   6 C       22   1 H                                       1.0852697
     2   6 C       23   1 H                                       1.0934818
     2   6 C       24   1 H                                       1.0913624
     7   6 C       25   1 H                                       1.0932363
     7   6 C       26   1 H                                       1.0914414
     8   6 C       27   1 H                                       1.0878510
     8   6 C       28   1 H                                       1.0855401
     8   6 C       29   1 H                                       1.0863261
    10   6 C       30   1 H                                       1.0894582
    10   6 C       31   1 H                                       1.0862470
    15   6 C       32   1 H                                       1.0906234
    15   6 C       33   1 H                                       1.0946483
    16   6 C       34   1 H                                       1.0867106
    16   6 C       35   1 H                                       1.0860036
    16   6 C       36   1 H                                       1.0889606
    18   6 C       37   1 H                                       1.0954007
    18   6 C       38   1 H                                       1.0943792
    19   6 C       39   1 H                                       1.0862169
    19   6 C       40   1 H                                       1.0847150 (min)
    19   6 C       41   1 H                                       1.0866693

 * 5 distinct bonds (by element types)

   Z      Z             #   av. dist./Å        max./Å        min./Å
   1 H    6 C          22     1.0891127     1.0954007     1.0847150
   6 C    6 C           4     1.5154435     1.5167753     1.5145590
   6 C    8 O           4     1.4441621     1.4474468     1.4372844
   8 O   15 P           4     1.5885707     1.5921096     1.5847975
  15 P   16 S           4     2.0354695     2.1126335     1.9580231

           -------------------------------------------------
          |               Frequency Printout                |
           -------------------------------------------------
 projected vibrational frequencies (cm⁻¹)
eigval :       -0.00    -0.00    -0.00    -0.00     0.00     0.00
eigval :       47.90    52.01    57.64    59.82    72.03    67.11
eigval :       65.43    64.09    66.52    72.99    75.16    83.11
eigval :      107.64   127.91   121.62   115.07   124.59   160.47
eigval :      138.44   181.05   190.65   214.40   234.23   232.67
eigval :      232.16   230.22   236.60   239.93   265.44   284.35
eigval :      320.85   343.72   354.44   374.69   402.23   427.56
eigval :      432.82   470.49   488.75   617.56   627.36   656.68
eigval :      680.69   732.80   751.73   764.92   783.32   788.71
eigval :      817.83   818.65   820.25   828.38   902.58   910.82
eigval :      938.79   941.31  1032.11  1035.17  1046.16  1054.13
eigval :     1065.47  1092.82  1093.61  1094.21  1103.65  1128.76
eigval :     1130.21  1134.28  1139.19  1151.72  1234.14  1235.93
eigval :     1240.96  1241.08  1303.47  1306.10  1308.51  1319.97
eigval :     1341.55  1391.65  1391.56  1393.39  1398.57  1436.42
eigval :     1437.24  1438.67  1454.72  1459.36  1461.08  1461.74
eigval :     1467.23  1474.77  1476.56  1478.29  1483.43  2919.57
eigval :     2927.29  2936.33  2937.73  2940.63  2969.41  2969.82
eigval :     2975.51  2982.48  3021.09  3021.84  3032.42  3037.30
eigval :     3040.22  3047.43  3049.85  3052.11  3052.14  3053.23
eigval :     3058.16  3059.88  3065.73
 reduced masses (amu)
   1: 16.10   2: 17.90   3: 21.91   4: 22.23   5: 20.69   6: 19.59   7: 26.40   8: 21.64
   9: 22.20  10: 19.80  11: 24.16  12: 17.97  13: 14.23  14: 12.02  15: 12.25  16: 13.33
  17: 12.97  18: 12.78  19: 17.73  20: 20.31  21: 16.24  22: 12.74  23: 12.60  24: 19.63
  25: 10.98  26: 15.40  27: 14.99  28: 13.91  29: 17.72  30: 11.80  31: 11.19  32:  6.26
  33:  6.31  34:  6.33  35: 11.43  36: 10.45  37: 22.36  38: 17.18  39: 18.69  40: 17.88
  41: 11.97  42: 21.31  43: 15.94  44: 25.04  45: 20.34  46: 25.49  47: 25.98  48: 18.16
  49: 16.45  50: 18.32  51: 19.70  52: 21.57  53: 21.19  54:  6.24  55:  3.05  56:  2.96
  57:  2.82  58:  2.10  59: 12.91  60: 13.29  61: 12.08  62: 11.94  63:  8.35  64:  8.22
  65:  9.60  66:  9.66  67:  1.59  68:  7.64  69:  7.56  70:  7.81  71:  7.77  72:  5.13
  73:  5.21  74:  5.31  75:  4.88  76:  2.24  77:  2.39  78:  2.37  79:  2.29  80:  2.12
  81:  3.02  82:  3.00  83:  3.00  84:  3.17  85:  1.76  86:  3.13  87:  3.12  88:  3.05
  89:  3.04  90:  1.94  91:  1.91  92:  1.91  93:  1.49  94:  1.50  95:  1.49  96:  1.50
  97:  1.83  98:  1.56  99:  1.55 100:  1.55 101:  1.57 102:  1.88 103:  1.74 104:  1.77
 105:  1.77 106:  1.57 107:  1.70 108:  1.71 109:  1.67 110:  1.73 111:  1.86 112:  1.76
 113:  1.89 114:  1.76 115:  1.53 116:  1.60 117:  1.83 118:  1.62 119:  1.58 120:  1.76
 121:  1.78 122:  1.75 123:  1.80
 IR intensities (km·mol⁻¹)
   1:  1.49   2:  0.29   3:  0.26   4:  0.16   5:  0.23   6:  0.18   7:  2.38   8:  3.18
   9:  1.31  10:  2.92  11:  3.08  12:  1.15  13:  5.85  14:  2.87  15:  2.69  16:  5.55
  17:  1.85  18:  2.85  19:  0.59  20:  1.51  21: 11.40  22:  3.16  23:  6.10  24:  6.28
  25:  2.52  26:  8.10  27: 22.13  28: 24.66  29: 13.47  30:  3.45  31:  5.65  32:  4.95
  33:  3.93  34: 15.68  35: 12.43  36:  1.34  37:  8.83  38: 14.63  39:  3.85  40: 29.72
  41:  1.50  42: 63.18  43: 33.73  44:158.56  45:126.81  46:176.99  47:113.07  48:  7.21
  49: 37.74  50:224.62  51:189.08  52:297.38  53:276.50  54: 15.96  55:  0.76  56:  3.17
  57:  6.05  58:  9.31  59:295.53  60:389.40  61:133.59  62:137.23  63:166.68  64:167.00
  65:104.52  66: 85.61  67:  3.86  68: 17.72  69: 12.84  70:  5.53  71: 15.42  72: 23.58
  73: 29.27  74: 21.81  75: 11.18  76: 53.50  77:  3.38  78:  3.51  79:  5.75  80:  2.13
  81:  5.36  82:  6.86  83:  4.69  84:  2.69  85: 15.69  86: 32.42  87:  1.46  88: 17.17
  89:  8.38  90:  7.87  91:  5.22  92:  3.37  93:  4.25  94:  6.78  95:  5.75  96:  9.02
  97:  0.93  98:  5.30  99:  1.09 100:  1.84 101:  4.24 102: 29.93 103: 26.83 104: 28.13
 105: 34.16 106: 21.30 107: 13.64 108: 14.40 109:  6.05 110:  7.91 111:  6.98 112: 46.79
 113: 40.40 114: 31.81 115: 27.66 116: 15.20 117: 22.21 118: 22.24 119: 19.42 120:  4.35
 121: 11.34 122: 11.46 123: 10.33
 Raman intensities (Ä⁴*amu⁻¹)
   1:  0.00   2:  0.00   3:  0.00   4:  0.00   5:  0.00   6:  0.00   7:  0.00   8:  0.00
   9:  0.00  10:  0.00  11:  0.00  12:  0.00  13:  0.00  14:  0.00  15:  0.00  16:  0.00
  17:  0.00  18:  0.00  19:  0.00  20:  0.00  21:  0.00  22:  0.00  23:  0.00  24:  0.00
  25:  0.00  26:  0.00  27:  0.00  28:  0.00  29:  0.00  30:  0.00  31:  0.00  32:  0.00
  33:  0.00  34:  0.00  35:  0.00  36:  0.00  37:  0.00  38:  0.00  39:  0.00  40:  0.00
  41:  0.00  42:  0.00  43:  0.00  44:  0.00  45:  0.00  46:  0.00  47:  0.00  48:  0.00
  49:  0.00  50:  0.00  51:  0.00  52:  0.00  53:  0.00  54:  0.00  55:  0.00  56:  0.00
  57:  0.00  58:  0.00  59:  0.00  60:  0.00  61:  0.00  62:  0.00  63:  0.00  64:  0.00
  65:  0.00  66:  0.00  67:  0.00  68:  0.00  69:  0.00  70:  0.00  71:  0.00  72:  0.00
  73:  0.00  74:  0.00  75:  0.00  76:  0.00  77:  0.00  78:  0.00  79:  0.00  80:  0.00
  81:  0.00  82:  0.00  83:  0.00  84:  0.00  85:  0.00  86:  0.00  87:  0.00  88:  0.00
  89:  0.00  90:  0.00  91:  0.00  92:  0.00  93:  0.00  94:  0.00  95:  0.00  96:  0.00
  97:  0.00  98:  0.00  99:  0.00 100:  0.00 101:  0.00 102:  0.00 103:  0.00 104:  0.00
 105:  0.00 106:  0.00 107:  0.00 108:  0.00 109:  0.00 110:  0.00 111:  0.00 112:  0.00
 113:  0.00 114:  0.00 115:  0.00 116:  0.00 117:  0.00 118:  0.00 119:  0.00 120:  0.00
 121:  0.00 122:  0.00 123:  0.00
 output can be read by thermo (or use thermo option).
 writing <g98.out> molden fake output.
 recommended (thermochemical) frequency scaling factor: 1.0
           -------------------------------------------------
          |             Thermodynamic Functions             |
           -------------------------------------------------

Molecule has no symmetry elements
It seems to be the C1 point group
c1  symmetry found (for desy threshold:  0.10E+00) used in thermo

          ...................................................
          :                      SETUP                      :
          :.................................................:
          :  # frequencies                         117      :
          :  # imaginary freq.                       0      :
          :  linear?                             false      :
          :  only rotor calc.                    false      :
          :  symmetry                               c1      :
          :  rotational number                       1      :
          :  scaling factor                  1.0000000      :
          :  rotor cutoff                    0.0000000 cm⁻¹ :
          :  imag. cutoff                 -100.0000000 cm⁻¹ :
          :.................................................:

    mode    ω/cm⁻¹     T·S(HO)/kcal·mol⁻¹    T·S(FR)/kcal·mol⁻¹   T·S(vib)
   ------------------------------------------------------------------------
       1     47.90    -1.46158 (100.00%)    -1.06921 (  0.00%)    -1.46158
       2     52.01    -1.41307 (100.00%)    -1.04485 (  0.00%)    -1.41307
       3     57.64    -1.35250 (100.00%)    -1.01438 (  0.00%)    -1.35250
       4     59.82    -1.33067 (100.00%)    -1.00340 (  0.00%)    -1.33067
       5     72.03    -1.22157 (100.00%)    -0.94839 (  0.00%)    -1.22157
       6     67.11    -1.26304 (100.00%)    -0.96932 (  0.00%)    -1.26304
       7     65.43    -1.27795 (100.00%)    -0.97684 (  0.00%)    -1.27795
       8     64.09    -1.29013 (100.00%)    -0.98298 (  0.00%)    -1.29013
       9     66.52    -1.26823 (100.00%)    -0.97194 (  0.00%)    -1.26823
      10     72.99    -1.21378 (100.00%)    -0.94446 (  0.00%)    -1.21378
      11     75.16    -1.19658 (100.00%)    -0.93577 (  0.00%)    -1.19658
      12     83.11    -1.13778 (100.00%)    -0.90601 (  0.00%)    -1.13778
      13    107.64    -0.98718 (100.00%)    -0.82939 (  0.00%)    -0.98718
      14    127.91    -0.88765 (100.00%)    -0.77827 (  0.00%)    -0.88765
      15    121.62    -0.91664 (100.00%)    -0.79321 (  0.00%)    -0.91664
      16    115.07    -0.94856 (100.00%)    -0.80961 (  0.00%)    -0.94856
      17    124.59    -0.90275 (100.00%)    -0.78606 (  0.00%)    -0.90275
      18    160.47    -0.75856 (100.00%)    -0.71109 (  0.00%)    -0.75856
      19    138.44    -0.84238 (100.00%)    -0.75485 (  0.00%)    -0.84238
      20    181.05    -0.69098 (100.00%)    -0.67535 (  0.00%)    -0.69098
      21    190.65    -0.66233 (100.00%)    -0.66004 (  0.00%)    -0.66233
      22    214.40    -0.59806 (100.00%)    -0.62527 (  0.00%)    -0.59806
      23    234.23    -0.55046 (100.00%)    -0.59906 (  0.00%)    -0.55046
      24    232.67    -0.55403 (100.00%)    -0.60104 (  0.00%)    -0.55403
      25    232.16    -0.55522 (100.00%)    -0.60170 (  0.00%)    -0.55522
      26    230.22    -0.55969 (100.00%)    -0.60418 (  0.00%)    -0.55969
      27    236.60    -0.54510 (100.00%)    -0.59608 (  0.00%)    -0.54510
      28    239.93    -0.53769 (100.00%)    -0.59195 (  0.00%)    -0.53769
      29    265.44    -0.48472 (100.00%)    -0.56201 (  0.00%)    -0.48472
      30    284.35    -0.44942 (100.00%)    -0.54163 (  0.00%)    -0.44942
   ------------------------------------------------------------------------

   temp. (K)  partition function   enthalpy   heat capacity  entropy
                                   cal/mol     cal/K/mol   cal/K/mol   J/K/mol
 298.15  VIB  0.113E+13            15653.630     88.580    107.647
         ROT  0.102E+08              888.752      2.981     35.052
         INT  0.115E+20            16542.382     91.561    142.699
         TR   0.729E+28             1481.254      4.968     43.712
         TOT                       18023.6360    96.5294   186.4118   779.9469

       T/K    H(0)-H(T)+PV         H(T)/Eh          T*S/Eh         G(T)/Eh
   ------------------------------------------------------------------------
    298.15    0.287225E-01    0.341531E+00    0.885702E-01    0.252961E+00
   ------------------------------------------------------------------------

         :::::::::::::::::::::::::::::::::::::::::::::::::::::
         ::                  THERMODYNAMIC                  ::
         :::::::::::::::::::::::::::::::::::::::::::::::::::::
         :: total free energy         -64.798136435018 Eh   ::
         ::.................................................::
         :: total energy              -65.051097583466 Eh   ::
         :: zero point energy           0.312808905889 Eh   ::
         :: G(RRHO) w/o ZPVE           -0.059847757441 Eh   ::
         :: G(RRHO) contrib.            0.252961148448 Eh   ::
         :::::::::::::::::::::::::::::::::::::::::::::::::::::

optimized geometry written to: xtbopt.coord


           -------------------------------------------------
          | TOTAL ENERGY              -65.051097583466 Eh   |
          | TOTAL ENTHALPY            -64.709566185404 Eh   |
          | TOTAL FREE ENERGY         -64.798136435018 Eh   |
          | GRADIENT NORM               0.000031489864 Eh/α |
          | HOMO-LUMO GAP               3.185843376549 eV   |
           -------------------------------------------------

------------------------------------------------------------------------
 * finished run on 2025/04/09 at 13:59:09.695     
------------------------------------------------------------------------
 total:
 * wall-time:     0 d,  0 h,  0 min, 19.924 sec
 *  cpu-time:     0 d,  0 h,  0 min, 19.724 sec
 * ratio c/w:     0.990 speedup
 SCF:
 * wall-time:     0 d,  0 h,  0 min,  0.073 sec
 *  cpu-time:     0 d,  0 h,  0 min,  0.056 sec
 * ratio c/w:     0.769 speedup
 analytical hessian:
 * wall-time:     0 d,  0 h,  0 min, 10.446 sec
 *  cpu-time:     0 d,  0 h,  0 min, 10.402 sec
 * ratio c/w:     0.996 speedup

