
                                 *****************
                                 * O   R   C   A *
                                 *****************

                                            #,                                       
                                            ###                                      
                                            ####                                     
                                            #####                                    
                                            ######                                   
                                           ########,                                 
                                     ,,################,,,,,                         
                               ,,#################################,,                 
                          ,,##########################################,,             
                       ,#########################################, ''#####,          
                    ,#############################################,,   '####,        
                  ,##################################################,,,,####,       
                ,###########''''           ''''###############################       
              ,#####''   ,,,,##########,,,,          '''####'''          '####       
            ,##' ,,,,###########################,,,                        '##       
           ' ,,###''''                  '''############,,,                           
         ,,##''                                '''############,,,,        ,,,,,,###''
      ,#''                                            '''#######################'''  
     '                                                          ''''####''''         
             ,#######,   #######,   ,#######,      ##                                
            ,#'     '#,  ##    ##  ,#'     '#,    #''#        ,####,   ,####,        
            ##       ##  ##   ,#'  ##            #'  '#       #'       #'  '#        
            ##       ##  #######   ##           ,######,      #####,   #    #        
            '#,     ,#'  ##    ##  '#,     ,#' ,#      #,     #,   #   #,  ,#        
             '#######'   ##     ##  '#######'  #'      '#     '####' # '####'        



                #########################################################
                #                        -***-                          #
                #          Department of theory and spectroscopy        #
                #                                                       #
                #                      Frank Neese                      #
                #                                                       #
                #     Directorship, Architecture, Infrastructure        #
                #                    SHARK, DRIVERS                     #
                #        Core code/Algorithms in most modules           #
                #                                                       #
                #        Max Planck Institute fuer Kohlenforschung      #
                #                Kaiser Wilhelm Platz 1                 #
                #                 D-45470 Muelheim/Ruhr                 #
                #                      Germany                          #
                #                                                       #
                #                  All rights reserved                  #
                #                        -***-                          #
                #########################################################


                         Program Version 6.0.0  -   RELEASE  -


 With contributions from (in alphabetic order):
   Daniel Aravena         : Magnetic Suceptibility
   Michael Atanasov       : Ab Initio Ligand Field Theory (pilot matlab implementation)
   Alexander A. Auer      : GIAO ZORA, VPT2 properties, NMR spectrum
   Ute Becker             : All parallelization in ORCA, NUMFREQ, NUMCALC
   Giovanni Bistoni       : ED, misc. LED, open-shell LED, HFLD
   Martin Brehm           : Molecular dynamics
   Dmytro Bykov           : pre 5.0 version of the SCF Hessian
   Marcos Casanova-Páez   : Triplet and SCS-CIS(D). UHF-(DLPNO)-IP/EA/STEOM-CCSD. UHF-CVS-IP/STEOM-CCSD
   Vijay G. Chilkuri      : MRCI spin determinant printing, contributions to CSF-ICE
   Pauline Colinet        : FMM embedding
   Dipayan Datta          : RHF DLPNO-CCSD density
   Achintya Kumar Dutta   : EOM-CC, STEOM-CC
   Nicolas Foglia         : Exact transition moments, OPA infrastructure, MCD improvements
   Dmitry Ganyushin       : Spin-Orbit,Spin-Spin,Magnetic field MRCI
   Miquel Garcia          : C-PCM and meta-GGA Hessian, CCSD/C-PCM, Gaussian charge scheme
   Tiago L. C. Gouveia    : GS-ROHF, GS-ROCIS
   Yang Guo               : DLPNO-NEVPT2, F12-NEVPT2, CIM, IAO-localization
   Andreas Hansen         : Spin unrestricted coupled pair/coupled cluster methods
   Ingolf Harden          : AUTO-CI MPn and infrastructure 
   Benjamin Helmich-Paris : MC-RPA, TRAH-(SCF,CASSCF), AVAS, COSX integrals, SCF dyn. polar.
   Lee Huntington         : MR-EOM, pCC
   Robert Izsak           : Overlap fitted RIJCOSX, COSX-SCS-MP3, EOM
   Riya Kayal             : Wick's Theorem for AUTO-CI, AUTO-CI UHF-CCSDT
   Emily Kempfer          : AUTO-CI, RHF CISDT and CCSDT
   Christian Kollmar      : KDIIS, OOCD, Brueckner-CCSD(T), CCSD density, CASPT2, CASPT2-K, improved NEVPT2
   Axel Koslowski         : Symmetry handling
   Simone Kossmann        : Meta GGA functionals, TD-DFT gradient, OOMP2, (MP2 Hessian; deprecated post 5.0)
   Lucas Lang             : DCDCAS
   Marvin Lechner         : AUTO-CI (C++ implementation), FIC-MRCC
   Spencer Leger          : CASSCF response
   Dagmar Lenk            : GEPOL surface, SMD, ORCA-2-JSON
   Dimitrios Liakos       : Extrapolation schemes; Compound Job, initial MDCI parallelization
   Dimitrios Manganas     : Further ROCIS development; embedding schemes. LFT, Crystal Embedding
   Dimitrios Pantazis     : SARC Basis sets
   Anastasios Papadopoulos: AUTO-CI, single reference methods and gradients
   Taras Petrenko         : pre 6.0 DFT Hessian and TD-DFT gradient, (ASA, deprecated), ECA, 1-Electron XAS/XES, NRVS
   Peter Pinski           : DLPNO-MP2, DLPNO-MP2 Gradient
   Christoph Reimann      : Effective Core Potentials
   Marius Retegan         : Local ZFS, SOC
   Christoph Riplinger    : Optimizer, TS searches, QM/MM, DLPNO-CCSD(T), (RO)-DLPNO pert. Triples
   Michael Roemelt        : Original ROCIS implementation
   Masaaki Saitow         : Open-shell DLPNO-CCSD energy and density
   Barbara Sandhoefer     : DKH picture change effects
   Kantharuban Sivalingam : CASSCF convergence/infrastructure, NEVPT2 and variants, FIC-MRCI
   Bernardo de Souza      : ESD, SOC TD-DFT
   Georgi Stoychev        : AutoAux, RI-MP2 NMR, DLPNO-MP2 response, X2C
   Van Anh Tran           : RI-MP2 g-tensors
   Willem Van den Heuvel  : Paramagnetic NMR
   Zikuan Wang            : NOTCH, Electric field optimization 
   Frank Wennmohs         : Technical directorship and infrastructure
   Hang Xu                : AUTO-CI-Response properties 


 We gratefully acknowledge several colleagues who have allowed us to
 interface, adapt or use parts of their codes:
   Stefan Grimme, W. Hujo, H. Kruse, P. Pracht,  : VdW corrections, initial TS optimization,
                  C. Bannwarth, S. Ehlert,         DFT functionals, gCP, sTDA/sTD-DF
                  L. Wittmann, M. Mueller
   Ed Valeev, F. Pavosevic, A. Kumar             : LibInt (2-el integral package), F12 methods
   Garnet Chan, S. Sharma, J. Yang, R. Olivares  : DMRG
   Ulf Ekstrom                                   : XCFun DFT Library
   Mihaly Kallay                                 : mrcc  (arbitrary order and MRCC methods)
   Frank Weinhold                                : gennbo (NPA and NBO analysis)
   Simon Mueller                                 : openCOSMO-RS
   Christopher J. Cramer and Donald G. Truhlar   : smd solvation model
   Lars Goerigk                                  : TD-DFT with DH, B97 family of functionals
   V. Asgeirsson, H. Jonsson                     : NEB implementation
   FAccTs GmbH                                   : IRC, NEB, NEB-TS, DLPNO-Multilevel, CI-OPT
                                                   MM, QMMM, 2- and 3-layer-ONIOM, Crystal-QMMM,
                                                   LR-CPCM, SF, NACMEs, symmetry and pop. for TD-DFT,
                                                   nearIR, NL-DFT gradient (VV10), updates on ESD,
                                                   ML-optimized integration grids, MBIS, APM,
                                                   GOAT, DOCKER, SOLVATOR, interface openCOSMO-RS
   S Lehtola, MJT Oliveira, MAL Marques          : LibXC Library
   Liviu Ungur et al                             : ANISO software


 Your calculation uses the libint2 library for the computation of 2-el integrals
 For citations please refer to: http://libint.valeyev.net

 Your ORCA version has been built with support for libXC version: 6.2.2
 For citations please refer to: https://libxc.gitlab.io

 This ORCA versions uses:
   CBLAS   interface :  Fast vector & matrix operations
   LAPACKE interface :  Fast linear algebra routines
   SCALAPACK package :  Parallel linear algebra routines
   Shared memory     :  Shared parallel matrices
   BLAS/LAPACK       :  OpenBLAS 0.3.27  USE64BITINT DYNAMIC_ARCH NO_AFFINITY SapphireRapids SINGLE_THREADED
        Core in use  :  SapphireRapids
   Copyright (c) 2011-2014, The OpenBLAS Project


Your calculation utilizes the geometrical counterpoise correction gCP
Please cite in your paper:
H.Kruse, S. Grimme J.Chem.Phys., 136, (2012), 154101 
   

Your calculation utilizes the atom-pairwise dispersion correction
based on EEQ partial charges (D4)


================================================================================

----- Orbital basis set information -----
Your calculation utilizes the basis: def2-mTZVPP
   Stefan Grimme, Andreas Hansen, Sebastian Ehlert, and Jan-Michael Mewes 
   J. Chem. Phys. 154, 064103 (2021). DOI: 10.1063/5.0040021

----- AuxJ basis set information -----
Your calculation utilizes the auxiliary basis: def2/J
   F. Weigend, Phys. Chem. Chem. Phys. 8, 1057 (2006).

================================================================================
                                        WARNINGS
                       Please study these warnings very carefully!
================================================================================

Using LibXC functional ID 497 : Re-regularized SCAN exchange by Furness et al
[ 1]  J. W. Furness, A. D. Kaplan, J. Ning, J. P. Perdew, and J. Sun.,  J. Phys. Chem. Lett. 11, 8208-8215 (2020)
[ 2]  J. W. Furness, A. D. Kaplan, J. Ning, J. P. Perdew, and J. Sun.,  J. Phys. Chem. Lett. 11, 9248-9248 (2020)
Using LibXC functional ID 498 : Re-regularized SCAN correlation by Furness et al
[ 1]  J. W. Furness, A. D. Kaplan, J. Ning, J. P. Perdew, and J. Sun.,  J. Phys. Chem. Lett. 11, 8208-8215 (2020)
[ 2]  J. W. Furness, A. D. Kaplan, J. Ning, J. P. Perdew, and J. Sun.,  J. Phys. Chem. Lett. 11, 9248-9248 (2020)
Using LibXC functional ID 497 : Re-regularized SCAN exchange by Furness et al
[ 1]  J. W. Furness, A. D. Kaplan, J. Ning, J. P. Perdew, and J. Sun.,  J. Phys. Chem. Lett. 11, 8208-8215 (2020)
[ 2]  J. W. Furness, A. D. Kaplan, J. Ning, J. P. Perdew, and J. Sun.,  J. Phys. Chem. Lett. 11, 9248-9248 (2020)
Using LibXC functional ID 498 : Re-regularized SCAN correlation by Furness et al
[ 1]  J. W. Furness, A. D. Kaplan, J. Ning, J. P. Perdew, and J. Sun.,  J. Phys. Chem. Lett. 11, 8208-8215 (2020)
[ 2]  J. W. Furness, A. D. Kaplan, J. Ning, J. P. Perdew, and J. Sun.,  J. Phys. Chem. Lett. 11, 9248-9248 (2020)

================================================================================
                                       INPUT FILE
================================================================================
NAME = sp_gas.inp
|  1> ! r2scan-3c def2/J RI DEFGRID2 scfconv6 printgap
|  2> %output
|  3>     printlevel normal
|  4> end
|  5> * xyz 0 1
|  6> C 4.2867165119 -0.561963754 -2.1324690922
|  7> C 4.4796453467 -0.6288269964 -0.6309605171
|  8> O 3.2255691563 -0.6344443544 0.0710772219
|  9> P 2.3013869738 0.6669566428 0.1327787175
| 10> S 3.2975236428 2.3492387616 0.265190722
| 11> O 1.3351501708 0.3442472104 1.3461894264
| 12> C 1.8190348773 0.2813188331 2.7082987137
| 13> C 2.1113412901 -1.1515722128 3.1043913234
| 14> S 0.9053910019 0.4890631363 -1.4400670786
| 15> C 0.4362966092 -1.2557990647 -1.207298162
| 16> S -0.7189755401 -1.5366547156 0.1562105412
| 17> P -2.2352615809 -0.2007623472 -0.5072260848
| 18> S -2.4957821303 -0.1113247725 -2.442307526
| 19> O -1.9166461846 1.2071456231 0.1268695947
| 20> C -1.7749693048 1.4251450704 1.5511140738
| 21> C -3.0652834846 1.9499627688 2.1449535915
| 22> O -3.4933408385 -0.6826677629 0.3353990087
| 23> C -4.1627011004 -1.9226270187 0.0196017327
| 24> C -5.5061345681 -1.9173518891 0.7199445337
| 25> H 3.6716379533 -1.3877843485 -2.480736718
| 26> H 3.8005495098 0.3761942363 -2.4007528618
| 27> H 5.2545674527 -0.6062636834 -2.6214336494
| 28> H 5.06543536 0.2280953403 -0.2837204382
| 29> H 4.9609601871 -1.5588347369 -0.3256565379
| 30> H 2.7059792696 0.9169546179 2.7971030387
| 31> H 1.0104464713 0.7022003347 3.3090938494
| 32> H 1.2310465484 -1.7665610949 2.9359634056
| 33> H 2.9330159624 -1.5486867122 2.5147021904
| 34> H 2.3784188366 -1.182013878 4.1559741406
| 35> H 1.3189603391 -1.854575704 -0.9980690893
| 36> H -0.0395449601 -1.5485009947 -2.1424548019
| 37> H -1.4717633509 0.4861218122 2.0231778443
| 38> H -0.9672142994 2.1561557413 1.6356161181
| 39> H -2.9097916966 2.1674608779 3.1970706805
| 40> H -3.3672255033 2.8586426482 1.6312619444
| 41> H -3.8538392939 1.2096088734 2.0412498942
| 42> H -4.27530807 -1.9880244807 -1.0673557315
| 43> H -3.533175776 -2.7465122989 0.3658824341
| 44> H -6.0251517911 -2.8440182294 0.4985137628
| 45> H -5.3672343244 -1.831318653 1.7937142612
| 46> H -6.1053591633 -1.0803949862 0.3723833952
| 47> *
| 48> 
| 49>                          ****END OF INPUT****
================================================================================

                       ****************************
                       * Single Point Calculation *
                       ****************************

---------------------------------
CARTESIAN COORDINATES (ANGSTROEM)
---------------------------------
  C      4.286717   -0.561964   -2.132469
  C      4.479645   -0.628827   -0.630961
  O      3.225569   -0.634444    0.071077
  P      2.301387    0.666957    0.132779
  S      3.297524    2.349239    0.265191
  O      1.335150    0.344247    1.346189
  C      1.819035    0.281319    2.708299
  C      2.111341   -1.151572    3.104391
  S      0.905391    0.489063   -1.440067
  C      0.436297   -1.255799   -1.207298
  S     -0.718976   -1.536655    0.156211
  P     -2.235262   -0.200762   -0.507226
  S     -2.495782   -0.111325   -2.442308
  O     -1.916646    1.207146    0.126870
  C     -1.774969    1.425145    1.551114
  C     -3.065283    1.949963    2.144954
  O     -3.493341   -0.682668    0.335399
  C     -4.162701   -1.922627    0.019602
  C     -5.506135   -1.917352    0.719945
  H      3.671638   -1.387784   -2.480737
  H      3.800550    0.376194   -2.400753
  H      5.254567   -0.606264   -2.621434
  H      5.065435    0.228095   -0.283720
  H      4.960960   -1.558835   -0.325657
  H      2.705979    0.916955    2.797103
  H      1.010446    0.702200    3.309094
  H      1.231047   -1.766561    2.935963
  H      2.933016   -1.548687    2.514702
  H      2.378419   -1.182014    4.155974
  H      1.318960   -1.854576   -0.998069
  H     -0.039545   -1.548501   -2.142455
  H     -1.471763    0.486122    2.023178
  H     -0.967214    2.156156    1.635616
  H     -2.909792    2.167461    3.197071
  H     -3.367226    2.858643    1.631262
  H     -3.853839    1.209609    2.041250
  H     -4.275308   -1.988024   -1.067356
  H     -3.533176   -2.746512    0.365882
  H     -6.025152   -2.844018    0.498514
  H     -5.367234   -1.831319    1.793714
  H     -6.105359   -1.080395    0.372383

----------------------------
CARTESIAN COORDINATES (A.U.)
----------------------------
  NO LB      ZA    FRAG     MASS         X           Y           Z
   0 C     6.0000    0    12.011    8.100720   -1.061958   -4.029783
   1 C     6.0000    0    12.011    8.465303   -1.188311   -1.192343
   2 O     8.0000    0    15.999    6.095442   -1.198926    0.134316
   3 P    15.0000    0    30.974    4.348991    1.260365    0.250915
   4 S    16.0000    0    32.060    6.231417    4.439418    0.501138
   5 O     8.0000    0    15.999    2.523068    0.650533    2.543929
   6 C     6.0000    0    12.011    3.437478    0.531616    5.117943
   7 C     6.0000    0    12.011    3.989857   -2.176156    5.866449
   8 S    16.0000    0    32.060    1.710941    0.924195   -2.721332
   9 C     6.0000    0    12.011    0.824481   -2.373116   -2.281463
  10 S    16.0000    0    32.060   -1.358667   -2.903857    0.295195
  11 P    15.0000    0    30.974   -4.224032   -0.379386   -0.958518
  12 S    16.0000    0    32.060   -4.716345   -0.210373   -4.615292
  13 O     8.0000    0    15.999   -3.621936    2.281175    0.239749
  14 C     6.0000    0    12.011   -3.354206    2.693134    2.931181
  15 C     6.0000    0    12.011   -5.792546    3.684896    4.053375
  16 O     8.0000    0    15.999   -6.601457   -1.290055    0.633812
  17 C     6.0000    0    12.011   -7.866365   -3.633239    0.037042
  18 C     6.0000    0    12.011  -10.405086   -3.623270    1.360498
  19 H     1.0000    0     1.008    6.938390   -2.622532   -4.687913
  20 H     1.0000    0     1.008    7.181998    0.710904   -4.536765
  21 H     1.0000    0     1.008    9.929693   -1.145672   -4.953792
  22 H     1.0000    0     1.008    9.572286    0.431038   -0.536154
  23 H     1.0000    0     1.008    9.374856   -2.945771   -0.615402
  24 H     1.0000    0     1.008    5.113560    1.732793    5.285759
  25 H     1.0000    0     1.008    1.909467    1.326966    6.253281
  26 H     1.0000    0     1.008    2.326341   -3.338317    5.548167
  27 H     1.0000    0     1.008    5.542597   -2.926594    4.752098
  28 H     1.0000    0     1.008    4.494560   -2.233683    7.853653
  29 H     1.0000    0     1.008    2.492474   -3.504640   -1.886077
  30 H     1.0000    0     1.008   -0.074729   -2.926243   -4.048653
  31 H     1.0000    0     1.008   -2.781230    0.918637    3.823252
  32 H     1.0000    0     1.008   -1.827770    4.074544    3.090867
  33 H     1.0000    0     1.008   -5.498709    4.095907    6.041588
  34 H     1.0000    0     1.008   -6.363134    5.402052    3.082638
  35 H     1.0000    0     1.008   -7.282701    2.285829    3.857403
  36 H     1.0000    0     1.008   -8.079161   -3.756822   -2.017010
  37 H     1.0000    0     1.008   -6.676735   -5.190156    0.691418
  38 H     1.0000    0     1.008  -11.385887   -5.374416    0.942054
  39 H     1.0000    0     1.008  -10.142603   -3.460691    3.389629
  40 H     1.0000    0     1.008  -11.537457   -2.041651    0.703703

--------------------------------
INTERNAL COORDINATES (ANGSTROEM)
--------------------------------
 C      0   0   0     0.000000000000     0.00000000     0.00000000
 C      1   0   0     1.515328423009     0.00000000     0.00000000
 O      2   1   0     1.437218018611   111.90651180     0.00000000
 P      3   2   1     1.597361679934   121.36754149   289.58455944
 S      4   3   2     1.959564831665   114.07499543   323.44961659
 O      4   3   2     1.584335976270   102.50272531   197.64640245
 C      6   4   3     1.446874597331   121.72941297    68.34544987
 C      7   6   4     1.515093773944   110.59563359   263.49491366
 S      4   3   2     2.110520019219   106.57279773    94.55484862
 C      9   4   3     1.821750536785    98.96497224    44.87887610
 S     10   9   4     1.809057660577   114.16960191    77.82812833
 P     11  10   9     2.126941450579    97.04507795    55.86582506
 S     12  11  10     1.954586969286   115.63056684    36.29016185
 O     12  11  10     1.576641352481   106.93877977   270.01763560
 C     14  12  11     1.447780519809   123.35871867   303.60701079
 C     15  14  12     1.514262088256   110.76833214   262.64089727
 O     12  11  10     1.589029041988   102.03660347   162.71246069
 C     17  12  11     1.444046410537   120.75939423   287.11315414
 C     18  17  12     1.515031797700   107.87540270   195.22330524
 H      1   2   3     1.087010407830   110.85403314   303.06424991
 H      1   2   3     1.090171981719   109.79151793    63.32698194
 H      1   2   3     1.085257695458   109.33536651   182.59486816
 H      2   1   3     1.094550822581   110.36168002   239.23711858
 H      2   1   3     1.090774446297   111.78627493   116.42855319
 H      7   6   4     1.094801084257   108.78696284    26.66535377
 H      7   6   4     1.091746877159   104.69093838   143.48846762
 H      8   7   6     1.086967396413   109.77523155   305.46777854
 H      8   7   6     1.086546117894   110.46704267    65.39663758
 H      8   7   6     1.085395564877   109.10406507   185.49264623
 H     10   9   4     1.086924803616   110.06763721   317.82825459
 H     10   9   4     1.089319769420   105.07908749   197.26089738
 H     15  14  12     1.093865957666   108.80840455    25.38965420
 H     15  14  12     1.092696364600   104.42722901   142.40008002
 H     16  15  14     1.085556766163   109.11533820   183.81568760
 H     16  15  14     1.086621927896   109.95074609   303.67374898
 H     16  15  14     1.086599563615   110.17024930    63.63516366
 H     18  17  12     1.094729960592   108.42796706   316.22083591
 H     18  17  12     1.093160287036   108.11621613    74.48811675
 H     19  18  17     1.084952058995   109.07931656   180.21616751
 H     19  18  17     1.086129100572   110.11329491   300.16342509
 H     19  18  17     1.086446371341   110.11324666    60.40058910

---------------------------
INTERNAL COORDINATES (A.U.)
---------------------------
 C      0   0   0     0.000000000000     0.00000000     0.00000000
 C      1   0   0     2.863555722435     0.00000000     0.00000000
 O      2   1   0     2.715948449911   111.90651180     0.00000000
 P      3   2   1     3.018576111896   121.36754149   289.58455944
 S      4   3   2     3.703040873509   114.07499543   323.44961659
 O      4   3   2     2.993961099270   102.50272531   197.64640245
 C      6   4   3     2.734196739084   121.72941297    68.34544987
 C      7   6   4     2.863112299963   110.59563359   263.49491366
 S      4   3   2     3.988304836483   106.57279773    94.55484862
 C      9   4   3     3.442609598848    98.96497224    44.87887610
 S     10   9   4     3.418623538963   114.16960191    77.82812833
 P     11  10   9     4.019336844480    97.04507795    55.86582506
 S     12  11  10     3.693634076883   115.63056684    36.29016185
 O     12  11  10     2.979420367605   106.93877977   270.01763560
 C     14  12  11     2.735908684466   123.35871867   303.60701079
 C     15  14  12     2.861540641783   110.76833214   262.64089727
 O     12  11  10     3.002829708204   102.03660347   162.71246069
 C     17  12  11     2.728852240586   120.75939423   287.11315414
 C     18  17  12     2.862995181835   107.87540270   195.22330524
 H      1   2   3     2.054151975520   110.85403314   303.06424991
 H      1   2   3     2.060126484323   109.79151793    63.32698194
 H      1   2   3     2.050839829146   109.33536651   182.59486816
 H      2   1   3     2.068401294336   110.36168002   239.23711858
 H      2   1   3     2.061264977381   111.78627493   116.42855319
 H      7   6   4     2.068874220365   108.78696284    26.66535377
 H      7   6   4     2.063102605395   104.69093838   143.48846762
 H      8   7   6     2.054070695723   109.77523155   305.46777854
 H      8   7   6     2.053274594696   110.46704267    65.39663758
 H      8   7   6     2.051100364590   109.10406507   185.49264623
 H     10   9   4     2.053990207000   110.06763721   317.82825459
 H     10   9   4     2.058516036470   105.07908749   197.26089738
 H     15  14  12     2.067107087207   108.80840455    25.38965420
 H     15  14  12     2.064896876625   104.42722901   142.40008002
 H     16  15  14     2.051404990874   109.11533820   183.81568760
 H     16  15  14     2.053417854836   109.95074609   303.67374898
 H     16  15  14     2.053375592471   110.17024930    63.63516366
 H     18  17  12     2.068739816118   108.42796706   316.22083591
 H     18  17  12     2.065773562977   108.11621613    74.48811675
 H     19  18  17     2.050262259934   109.07931656   180.21616751
 H     19  18  17     2.052486546163   110.11329491   300.16342509
 H     19  18  17     2.053086101027   110.11324666    60.40058910

---------------------
BASIS SET INFORMATION
---------------------
There are 5 groups of distinct atoms

 Group   1 Type C   : 11s6p1d contracted to 5s3p1d pattern {62111/411/1}
 Group   2 Type O   : 11s6p2d contracted to 5s3p2d pattern {62111/411/11}
 Group   3 Type P   : 14s9p2d contracted to 5s4p2d pattern {73211/6111/11}
 Group   4 Type S   : 14s9p2d contracted to 5s4p2d pattern {73211/6111/11}
 Group   5 Type H   : 4s1p contracted to 2s1p pattern {31/1}

Atom   0C    basis set group =>   1
Atom   1C    basis set group =>   1
Atom   2O    basis set group =>   2
Atom   3P    basis set group =>   3
Atom   4S    basis set group =>   4
Atom   5O    basis set group =>   2
Atom   6C    basis set group =>   1
Atom   7C    basis set group =>   1
Atom   8S    basis set group =>   4
Atom   9C    basis set group =>   1
Atom  10S    basis set group =>   4
Atom  11P    basis set group =>   3
Atom  12S    basis set group =>   4
Atom  13O    basis set group =>   2
Atom  14C    basis set group =>   1
Atom  15C    basis set group =>   1
Atom  16O    basis set group =>   2
Atom  17C    basis set group =>   1
Atom  18C    basis set group =>   1
Atom  19H    basis set group =>   5
Atom  20H    basis set group =>   5
Atom  21H    basis set group =>   5
Atom  22H    basis set group =>   5
Atom  23H    basis set group =>   5
Atom  24H    basis set group =>   5
Atom  25H    basis set group =>   5
Atom  26H    basis set group =>   5
Atom  27H    basis set group =>   5
Atom  28H    basis set group =>   5
Atom  29H    basis set group =>   5
Atom  30H    basis set group =>   5
Atom  31H    basis set group =>   5
Atom  32H    basis set group =>   5
Atom  33H    basis set group =>   5
Atom  34H    basis set group =>   5
Atom  35H    basis set group =>   5
Atom  36H    basis set group =>   5
Atom  37H    basis set group =>   5
Atom  38H    basis set group =>   5
Atom  39H    basis set group =>   5
Atom  40H    basis set group =>   5
---------------------------------
AUXILIARY/J BASIS SET INFORMATION
---------------------------------
There are 5 groups of distinct atoms

 Group   1 Type C   : 12s5p4d2f1g contracted to 6s4p3d1f1g pattern {711111/2111/211/2/1}
 Group   2 Type O   : 12s5p4d2f1g contracted to 6s4p3d1f1g pattern {711111/2111/211/2/1}
 Group   3 Type P   : 14s5p5d2f1g contracted to 8s4p3d1f1g pattern {71111111/2111/311/2/1}
 Group   4 Type S   : 14s5p5d2f1g contracted to 8s4p3d1f1g pattern {71111111/2111/311/2/1}
 Group   5 Type H   : 5s2p1d contracted to 3s1p1d pattern {311/2/1}

Atom   0C    basis set group =>   1
Atom   1C    basis set group =>   1
Atom   2O    basis set group =>   2
Atom   3P    basis set group =>   3
Atom   4S    basis set group =>   4
Atom   5O    basis set group =>   2
Atom   6C    basis set group =>   1
Atom   7C    basis set group =>   1
Atom   8S    basis set group =>   4
Atom   9C    basis set group =>   1
Atom  10S    basis set group =>   4
Atom  11P    basis set group =>   3
Atom  12S    basis set group =>   4
Atom  13O    basis set group =>   2
Atom  14C    basis set group =>   1
Atom  15C    basis set group =>   1
Atom  16O    basis set group =>   2
Atom  17C    basis set group =>   1
Atom  18C    basis set group =>   1
Atom  19H    basis set group =>   5
Atom  20H    basis set group =>   5
Atom  21H    basis set group =>   5
Atom  22H    basis set group =>   5
Atom  23H    basis set group =>   5
Atom  24H    basis set group =>   5
Atom  25H    basis set group =>   5
Atom  26H    basis set group =>   5
Atom  27H    basis set group =>   5
Atom  28H    basis set group =>   5
Atom  29H    basis set group =>   5
Atom  30H    basis set group =>   5
Atom  31H    basis set group =>   5
Atom  32H    basis set group =>   5
Atom  33H    basis set group =>   5
Atom  34H    basis set group =>   5
Atom  35H    basis set group =>   5
Atom  36H    basis set group =>   5
Atom  37H    basis set group =>   5
Atom  38H    basis set group =>   5
Atom  39H    basis set group =>   5
Atom  40H    basis set group =>   5

Checking for AutoStart:
The File: sp_gas.gbw exists
Trying to determine its content:
     ... Fine, the file contains calculation information
     ... Fine, the calculation information was read
     ... Fine, the file contains a basis set
     ... Fine, the basis set was read
     ... Fine, the file contains a geometry
     ... Fine, the geometry was read
     ... Fine, the file contains a set of orbitals
     ... Fine, the orbitals can be read
     => possible old guess file was deleted
     => GBW file was renamed to GES file
     => GES file is set as startup file
     => Guess is set to MORead
     ... now leaving AutoStart

------------------------------------------------------------------------------
                             ORCA STARTUP CALCULATIONS
                           -- RI-GTO INTEGRALS CHOSEN --
------------------------------------------------------------------------------
------------------------------------------------------------------------------
                   ___                                                        
                  /   \      - P O W E R E D   B Y -                         
                 /     \                                                     
                 |  |  |   _    _      __       _____    __    __             
                 |  |  |  | |  | |    /  \     |  _  \  |  |  /  |          
                  \  \/   | |  | |   /    \    | | | |  |  | /  /          
                 / \  \   | |__| |  /  /\  \   | |_| |  |  |/  /          
                |  |  |   |  __  | /  /__\  \  |    /   |      \           
                |  |  |   | |  | | |   __   |  |    \   |  |\   \          
                \     /   | |  | | |  |  |  |  | |\  \  |  | \   \       
                 \___/    |_|  |_| |__|  |__|  |_| \__\ |__|  \__/        
                                                                              
                      - O R C A' S   B I G   F R I E N D -                    
                                      &                                       
                       - I N T E G R A L  F E E D E R -                       
                                                                              
 v1 FN, 2020, v2 2021, v3 2022-2024                                           
------------------------------------------------------------------------------


----------------------
SHARK INTEGRAL PACKAGE
----------------------

Number of atoms                             ...     41
Number of basis functions                   ...    539
Number of shells                            ...    253
Maximum angular momentum                    ...      2
Integral batch strategy                     ... SHARK/LIBINT Hybrid
RI-J (if used) integral strategy            ... SPLIT-RIJ (Revised 2003 algorithm where possible)
Printlevel                                  ...      1
Contraction scheme used                     ... SEGMENTED contraction
Prescreening option                         ... SCHWARTZ
   Thresh                                   ... 1.000e-10
   Tcut                                     ... 1.000e-11
   Tpresel                                  ... 1.000e-11 
Coulomb Range Separation                    ... NOT USED
Exchange Range Separation                   ... NOT USED
Multipole approximations                    ... NOT USED
Finite Nucleus Model                        ... NOT USED
CABS basis                                  ... NOT available
Auxiliary Coulomb fitting basis             ... AVAILABLE
   # of basis functions in Aux-J            ...   1185
   # of shells in Aux-J                     ...    407
   Maximum angular momentum in Aux-J        ...      4
Auxiliary J/K fitting basis                 ... NOT available
Auxiliary Correlation fitting basis         ... NOT available
Auxiliary 'external' fitting basis          ... NOT available

Checking pre-screening integrals            ... done (  0.0 sec) Dimension = 253
Check shell pair data                       ... done (  0.0 sec)
Shell pair information
Shell pair cut-off parameter TPreSel        ...   1.0e-11
Total number of shell pairs                 ...     32131
Shell pairs after pre-screening             ...     21283
Total number of primitive shell pairs       ...    124843
Primitive shell pairs kept                  ...     49681
          la=0 lb=0:   5963 shell pairs
          la=1 lb=0:   7728 shell pairs
          la=1 lb=1:   2556 shell pairs
          la=2 lb=0:   2854 shell pairs
          la=2 lb=1:   1828 shell pairs
          la=2 lb=2:    354 shell pairs

Calculating one electron integrals          ... done (  0.1 sec)
Calculating RI/J V-Matrix + Cholesky decomp.... done (  0.1 sec)
Calculating Nuclear repulsion               ... done (  0.0 sec) ENN=   2760.614494773839 Eh

Diagonalization of the overlap matrix:
Smallest eigenvalue                        ... 3.032e-04
Time for diagonalization                   ...    0.028 sec
Threshold for overlap eigenvalues          ... 1.000e-07
Number of eigenvalues below threshold      ... 0
Time for construction of square roots      ...    0.056 sec
Total time needed                          ...    0.094 sec

-------------------
DFT GRID GENERATION
-------------------

General Integration Accuracy     IntAcc      ... 4.388
Radial Grid Type                 RadialGrid  ... OptM3 with GC (2021)
Angular Grid (max. ang.)         AngularGrid ... 4 (Lebedev-302)
Angular grid pruning method      GridPruning ... 4 (adaptive)
Weight generation scheme         WeightScheme... mBecke (2022)
Basis function cutoff            BFCut       ... 1.0000e-10
Integration weight cutoff        WCut        ... 1.0000e-14
Partially contracted basis set               ... off
Rotationally invariant grid construction     ... off
Angular grids for H and He will be reduced by one unit
Diffuse basis detected: some atoms will have their outermost
                        angular grid increased by 1.

Total number of grid points                  ...   192521
Total number of batches                      ...     3026
Average number of points per batch           ...       63
Average number of grid points per atom       ...     4696
Initializing property integral containers    ... done (  0.0 sec)

SHARK setup successfully completed in   2.8 seconds

Maximum memory used throughout the entire STARTUP-calculation: 102.1 MB
-------------------------------------------------------------------------------
                                 ORCA GUESS
                   Start orbitals & Density for SCF / CASSCF
-------------------------------------------------------------------------------

------------
SCF SETTINGS
------------
Hamiltonian:
 Density Functional     Method          .... DFT(GTOs)
  Functional kind                       .... Exchange
  Functional name                       .... Re-regularized SCAN exchange by Furness et al
  Functional family                     .... MGGA
  Functional refs                              
    [ 0] J. W. Furness, A. D. Kaplan, J. Ning, J. P. Perdew, and J. Sun.,  J. Phys. Chem. Lett. 11, 8208-8215 (2020), doi: 10.1021/acs.jpclett.0c02405
    [ 1] J. W. Furness, A. D. Kaplan, J. Ning, J. P. Perdew, and J. Sun.,  J. Phys. Chem. Lett. 11, 9248-9248 (2020), doi: 10.1021/acs.jpclett.0c03077
  Functional external parameters        .... 6
    Parameter  0 _c1        =  6.670000e-01 : c1 parameter        
    Parameter  1 _c2        =  8.000000e-01 : c2 parameter        
    Parameter  2 _d         =  1.240000e+00 : d parameter         
    Parameter  3 _k1        =  6.500000e-02 : k1 parameter        
    Parameter  4 _eta       =  1.000000e-03 : eta parameter       
    Parameter  5 _dp2       =  3.610000e-01 : dp2 parameter       
  Functional kind                       .... Correlation
  Functional name                       .... Re-regularized SCAN correlation by Furness et al
  Functional family                     .... MGGA
  Functional refs                              
    [ 0] J. W. Furness, A. D. Kaplan, J. Ning, J. P. Perdew, and J. Sun.,  J. Phys. Chem. Lett. 11, 8208-8215 (2020), doi: 10.1021/acs.jpclett.0c02405
    [ 1] J. W. Furness, A. D. Kaplan, J. Ning, J. P. Perdew, and J. Sun.,  J. Phys. Chem. Lett. 11, 9248-9248 (2020), doi: 10.1021/acs.jpclett.0c03077
  Functional external parameters        .... 1
    Parameter  0 _eta       =  1.000000e-03 : Regularization parameter
 Gradients option       PostSCFGGA      .... off
 RI-approximation to the Coulomb term is turned on
   Number of AuxJ basis functions       .... 1185


General Settings:
 Integral files         IntName         .... sp_gas
 Hartree-Fock type      HFTyp           .... RHF
 Total Charge           Charge          ....    0
 Multiplicity           Mult            ....    1
 Number of Electrons    NEL             ....  202
 Basis Dimension        Dim             ....  539
 Nuclear Repulsion      ENuc            ....   2760.6144947738 Eh

Convergence Acceleration:
 AO-DIIS                CNVDIIS         .... on
   Start iteration      DIISMaxIt       ....    12
   Startup error        DIISStart       ....  0.200000
   # of expansion vecs  DIISMaxEq       ....     5
   Bias factor          DIISBfac        ....   1.050
   Max. coefficient     DIISMaxC        ....  10.000
 MO-DIIS                CNVKDIIS        .... off
 Trust-Rad. Augm. Hess. CNVTRAH         .... auto
   Auto Start mean grad. ratio tolernc. ....  1.125000
   Auto Start start iteration           ....     1
   Auto Start num. interpolation iter.  ....    10
   Max. Number of Micro iterations      ....    24
   Max. Number of Macro iterations      .... Maxiter - #DIIS iter
   Number of Davidson start vectors     ....     2
   Converg. threshold    (grad. norm)   ....   3.330e-04
   Grad. Scal. Fac. for Micro threshold ....   0.100
   Minimum threshold for Micro iter.    ....   1.000e-02
   NR start threshold (gradient norm)   ....   1.000e-04
   Initial trust radius                 ....   0.400
   Minimum AH scaling param. (alpha)    ....   1.000
   Maximum AH scaling param. (alpha)    .... 1000.000
   Quad. conv. algorithm                .... NR
   White noise on init. David. guess    .... on
   Maximum white noise                  ....   0.010
   Pseudo random numbers                .... off
   Inactive MOs                         .... canonical
   Orbital update algorithm             .... Taylor
   Preconditioner                       .... Diag
   Full preconditioner red. dimension   ....   250
   COSX micro iterations for RIJONX calc.... off
 SOSCF                  CNVSOSCF        .... on
   Start iteration      SOSCFMaxIt      ....   150
   Startup grad/error   SOSCFStart      ....  0.003300
   Hessian update       SOSCFHessUp     .... L-BFGS
 Level Shifting         CNVShift        .... on
   Level shift para.    LevelShift      ....    0.2500
   Turn off err/grad.   ShiftErr        ....    0.0010
 Zerner damping         CNVZerner       .... off
 Static damping         CNVDamp         .... on
   Fraction old density DampFac         ....    0.7000
   Max. Damping (<1)    DampMax         ....    0.9800
   Min. Damping (>=0)   DampMin         ....    0.0000
   Turn off err/grad.   DampErr         ....    0.1000

SCF Procedure:
 Maximum # iterations   MaxIter         ....   125
 SCF integral mode      SCFMode         .... Direct
   Integral package                     .... SHARK and LIBINT hybrid scheme
 Reset frequency        DirectResetFreq ....    20
 Integral Threshold     Thresh          ....  1.000e-10 Eh
 Primitive CutOff       TCut            ....  1.000e-11 Eh

Convergence Tolerance:
 Convergence Check Mode ConvCheckMode   .... Total+1el-Energy
 Convergence forced     ConvForced      .... 0
 Energy Change          TolE            ....  1.000e-06 Eh
 1-El. energy change                    ....  1.000e-03 Eh
 Orbital Gradient       TolG            ....  3.330e-04
 Orbital Rotation angle TolX            ....  3.330e-04
 DIIS Error             TolErr          ....  1.000e-06

---------------------
INITIAL GUESS: MOREAD
---------------------
Guess MOs are being read from file: sp_gas.ges
Input Geometry matches current geometry (good)
Atom 0: N(Shells)= 9 and 6 - projection required
Input basis set needs projection
NBasis(read)= 334
NBasis(calc)= 539
Basis set overlap was calculated
Using GuessMode=FMatrix for the initial guess
C*T matrix was formed
Effective Fockian was calculated
Effective Fockian was diagonalized
Initial density was built
                      ------------------
                      INITIAL GUESS DONE (   0.2 sec)
                      ------------------
             **** ENERGY FILE WAS UPDATED (sp_gas.en.tmp) ****
Finished Guess after   0.5 sec
Maximum memory used throughout the entire GUESS-calculation: 58.9 MB

-------------------------------------------------------------------------------------------
                                      ORCA LEAN-SCF
                              memory conserving SCF solver
-------------------------------------------------------------------------------------------

----------------------------------------D-I-I-S--------------------------------------------
Iteration    Energy (Eh)           Delta-E    RMSDP     MaxDP     DIISErr   Damp  Time(sec)
-------------------------------------------------------------------------------------------
               ***  Starting incremental Fock matrix formation  ***
    1    -2932.0041178466235579     0.00e+00  2.09e-03  9.09e-02  6.33e-01  0.700   9.1
    2    -2932.1472679462349333    -1.43e-01  1.72e-03  7.35e-02  4.45e-01  0.700   7.4
    3    -2932.2484152750839712    -1.01e-01  1.27e-03  5.34e-02  3.12e-01  0.700   7.5
    4    -2932.3193836899909002    -7.10e-02  9.08e-04  3.80e-02  2.18e-01  0.700   7.2
                               ***Turning on AO-DIIS***
    5    -2932.3691397976654116    -4.98e-02  6.59e-04  2.75e-02  1.53e-01  0.700   7.0
    6    -2932.4040048598799331    -3.49e-02  4.67e-04  1.98e-02  1.07e-01  0.700   7.1
    7    -2932.4284407501645546    -2.44e-02  3.29e-04  1.41e-02  7.49e-02  0.700   7.0
    8    -2932.4455590763091095    -1.71e-02  7.72e-04  3.34e-02  5.25e-02  0.000   6.4
                              *** Initializing SOSCF ***
---------------------------------------S-O-S-C-F--------------------------------------
Iteration    Energy (Eh)           Delta-E    RMSDP     MaxDP     MaxGrad    Time(sec)
--------------------------------------------------------------------------------------
    9    -2932.4855458314614225    -4.00e-02  5.24e-06  2.36e-04  1.46e-04     7.3
               *** Restarting incremental Fock matrix formation ***
   10    -2932.4855457599178408     7.15e-08  4.50e-06  1.92e-04  2.50e-05     9.0
                  *** Gradient check signals convergence ***

               *****************************************************
               *                     SUCCESS                       *
               *           SCF CONVERGED AFTER  10 CYCLES          *
               *****************************************************

             **** ENERGY FILE WAS UPDATED (sp_gas.en.tmp) ****

----------------
TOTAL SCF ENERGY
----------------

Total Energy       :      -2932.48554575991784 Eh          -79796.98850 eV

Components:
Nuclear Repulsion  :       2760.61449477383940 Eh           75120.13944 eV
Electronic Energy  :      -5693.10004053375815 Eh         -154917.12794 eV
One Electron Energy:      -9541.90993666547183 Eh         -259648.56965 eV
Two Electron Energy:       3848.80989613171414 Eh          104731.44172 eV

Virial components:
Potential Energy   :      -5856.14562300141188 Eh         -159353.82379 eV
Kinetic Energy     :       2923.66007724149404 Eh           79556.83529 eV
Virial Ratio       :          2.00301863701157

DFT components:
N(Alpha)           :      101.000046764629 electrons
N(Beta)            :      101.000046764629 electrons
N(Total)           :      202.000093529258 electrons
E(X)               :     -233.533643849912 Eh       
E(C)               :       -7.116867313826 Eh       
E(XC)              :     -240.650511163738 Eh       

---------------
SCF CONVERGENCE
---------------

  Last Energy change         ...   -7.1544e-08  Tolerance :   1.0000e-06
  Last MAX-Density change    ...    1.9203e-04  Tolerance :   1.0000e-05
  Last RMS-Density change    ...    4.5022e-06  Tolerance :   1.0000e-06
  Last DIIS Error            ...    1.4634e-04  Tolerance :   1.0000e-06
  Last Orbital Gradient      ...    2.5013e-05  Tolerance :   3.3300e-04
  Last Orbital Rotation      ...    1.0306e-04  Tolerance :   3.3300e-04


----------------
ORBITAL ENERGIES
----------------

  NO   OCC          E(Eh)            E(eV) 
   0   2.0000     -88.575970     -2410.2747 
   1   2.0000     -88.574205     -2410.2266 
   2   2.0000     -88.520088     -2408.7541 
   3   2.0000     -88.518738     -2408.7173 
   4   2.0000     -76.914201     -2092.9418 
   5   2.0000     -76.913890     -2092.9333 
   6   2.0000     -18.996281      -516.9151 
   7   2.0000     -18.996221      -516.9134 
   8   2.0000     -18.991132      -516.7750 
   9   2.0000     -18.989994      -516.7440 
  10   2.0000     -10.109833      -275.1025 
  11   2.0000     -10.103334      -274.9257 
  12   2.0000     -10.102110      -274.8924 
  13   2.0000     -10.101015      -274.8626 
  14   2.0000     -10.100008      -274.8352 
  15   2.0000     -10.036999      -273.1206 
  16   2.0000     -10.034237      -273.0455 
  17   2.0000     -10.031459      -272.9699 
  18   2.0000     -10.029920      -272.9280 
  19   2.0000      -7.869766      -214.1472 
  20   2.0000      -7.868878      -214.1231 
  21   2.0000      -7.814687      -212.6484 
  22   2.0000      -7.813459      -212.6150 
  23   2.0000      -6.592675      -179.3958 
  24   2.0000      -6.592338      -179.3866 
  25   2.0000      -5.817167      -158.2932 
  26   2.0000      -5.815720      -158.2538 
  27   2.0000      -5.813319      -158.1885 
  28   2.0000      -5.812672      -158.1708 
  29   2.0000      -5.806722      -158.0089 
  30   2.0000      -5.806026      -157.9900 
  31   2.0000      -5.762324      -156.8008 
  32   2.0000      -5.761212      -156.7705 
  33   2.0000      -5.755123      -156.6048 
  34   2.0000      -5.754566      -156.5897 
  35   2.0000      -5.753703      -156.5662 
  36   2.0000      -5.753399      -156.5580 
  37   2.0000      -4.738251      -128.9344 
  38   2.0000      -4.738149      -128.9316 
  39   2.0000      -4.737765      -128.9211 
  40   2.0000      -4.737389      -128.9109 
  41   2.0000      -4.736162      -128.8775 
  42   2.0000      -4.735689      -128.8646 
  43   2.0000      -1.052882       -28.6504 
  44   2.0000      -1.052242       -28.6330 
  45   2.0000      -1.013753       -27.5856 
  46   2.0000      -1.011225       -27.5168 
  47   2.0000      -0.802266       -21.8308 
  48   2.0000      -0.761090       -20.7103 
  49   2.0000      -0.752332       -20.4720 
  50   2.0000      -0.737680       -20.0733 
  51   2.0000      -0.736039       -20.0286 
  52   2.0000      -0.711190       -19.3525 
  53   2.0000      -0.686380       -18.6774 
  54   2.0000      -0.668897       -18.2016 
  55   2.0000      -0.630630       -17.1603 
  56   2.0000      -0.620824       -16.8935 
  57   2.0000      -0.610966       -16.6252 
  58   2.0000      -0.604156       -16.4399 
  59   2.0000      -0.597613       -16.2619 
  60   2.0000      -0.535315       -14.5667 
  61   2.0000      -0.525922       -14.3111 
  62   2.0000      -0.501124       -13.6363 
  63   2.0000      -0.496695       -13.5158 
  64   2.0000      -0.482635       -13.1332 
  65   2.0000      -0.464975       -12.6526 
  66   2.0000      -0.464331       -12.6351 
  67   2.0000      -0.455807       -12.4031 
  68   2.0000      -0.448362       -12.2006 
  69   2.0000      -0.435095       -11.8395 
  70   2.0000      -0.424659       -11.5556 
  71   2.0000      -0.415252       -11.2996 
  72   2.0000      -0.408328       -11.1112 
  73   2.0000      -0.406089       -11.0502 
  74   2.0000      -0.398983       -10.8569 
  75   2.0000      -0.389772       -10.6062 
  76   2.0000      -0.386895       -10.5279 
  77   2.0000      -0.376504       -10.2452 
  78   2.0000      -0.375816       -10.2265 
  79   2.0000      -0.369898       -10.0654 
  80   2.0000      -0.364974        -9.9314 
  81   2.0000      -0.363473        -9.8906 
  82   2.0000      -0.360552        -9.8111 
  83   2.0000      -0.358578        -9.7574 
  84   2.0000      -0.345790        -9.4094 
  85   2.0000      -0.336085        -9.1453 
  86   2.0000      -0.330946        -9.0055 
  87   2.0000      -0.318726        -8.6730 
  88   2.0000      -0.311407        -8.4738 
  89   2.0000      -0.308377        -8.3914 
  90   2.0000      -0.306752        -8.3471 
  91   2.0000      -0.296260        -8.0616 
  92   2.0000      -0.288211        -7.8426 
  93   2.0000      -0.280809        -7.6412 
  94   2.0000      -0.273726        -7.4485 
  95   2.0000      -0.244996        -6.6667 
  96   2.0000      -0.230452        -6.2709 
  97   2.0000      -0.221578        -6.0294 
  98   2.0000      -0.218047        -5.9334 
  99   2.0000      -0.214450        -5.8355 
 100   2.0000      -0.211455        -5.7540 
 101   0.0000      -0.044941        -1.2229 
 102   0.0000      -0.021464        -0.5841 
 103   0.0000      -0.010099        -0.2748 
 104   0.0000       0.003572         0.0972 
 105   0.0000       0.006471         0.1761 
 106   0.0000       0.023871         0.6496 
 107   0.0000       0.035125         0.9558 
 108   0.0000       0.042685         1.1615 
 109   0.0000       0.051734         1.4078 
 110   0.0000       0.068007         1.8506 
 111   0.0000       0.073013         1.9868 
*Only the first 10 virtual orbitals were printed.

                    ********************************
                    * MULLIKEN POPULATION ANALYSIS *
                    ********************************

-----------------------
MULLIKEN ATOMIC CHARGES
-----------------------
   0 C :   -0.431711
   1 C :   -0.158625
   2 O :   -0.301133
   3 P :    0.646491
   4 S :   -0.454819
   5 O :   -0.237109
   6 C :   -0.159614
   7 C :   -0.446824
   8 S :   -0.104056
   9 C :   -0.261060
  10 S :   -0.177531
  11 P :    0.677114
  12 S :   -0.439805
  13 O :   -0.257185
  14 C :   -0.118077
  15 C :   -0.481893
  16 O :   -0.284061
  17 C :   -0.153083
  18 C :   -0.442461
  19 H :    0.145790
  20 H :    0.178536
  21 H :    0.148581
  22 H :    0.173737
  23 H :    0.146493
  24 H :    0.171768
  25 H :    0.150740
  26 H :    0.158689
  27 H :    0.165072
  28 H :    0.147737
  29 H :    0.196733
  30 H :    0.216289
  31 H :    0.160000
  32 H :    0.171196
  33 H :    0.144454
  34 H :    0.161703
  35 H :    0.165751
  36 H :    0.171671
  37 H :    0.151544
  38 H :    0.147860
  39 H :    0.150343
  40 H :    0.160755
Sum of atomic charges:   -0.0000000

--------------------------------
MULLIKEN REDUCED ORBITAL CHARGES
--------------------------------
  0 C s       :     3.305716  s :     3.305716
      pz      :     0.912929  p :     3.100232
      px      :     1.092941
      py      :     1.094363
      dz2     :     0.007972  d :     0.025762
      dxz     :     0.004586
      dyz     :     0.004533
      dx2y2   :     0.003701
      dxy     :     0.004970

  1 C s       :     3.286438  s :     3.286438
      pz      :     0.912449  p :     2.817232
      px      :     0.775642
      py      :     1.129141
      dz2     :     0.013833  d :     0.054955
      dxz     :     0.014547
      dyz     :     0.006600
      dx2y2   :     0.008872
      dxy     :     0.011103

  2 O s       :     3.725435  s :     3.725435
      pz      :     1.705919  p :     4.555725
      px      :     1.294310
      py      :     1.555496
      dz2     :     0.008464  d :     0.019973
      dxz     :     0.006192
      dyz     :     0.003655
      dx2y2   :    -0.003297
      dxy     :     0.004958

  3 P s       :     5.140905  s :     5.140905
      pz      :     2.852909  p :     8.487010
      px      :     2.816714
      py      :     2.817387
      dz2     :     0.107229  d :     0.725594
      dxz     :     0.143387
      dyz     :     0.156891
      dx2y2   :     0.170999
      dxy     :     0.147087

  4 S s       :     5.905392  s :     5.905392
      pz      :     3.661388  p :    10.485941
      px      :     3.549152
      py      :     3.275402
      dz2     :     0.008545  d :     0.063486
      dxz     :     0.003605
      dyz     :     0.012015
      dx2y2   :     0.016147
      dxy     :     0.023175

  5 O s       :     3.722799  s :     3.722799
      pz      :     1.127176  p :     4.510240
      px      :     1.598675
      py      :     1.784389
      dz2     :    -0.019236  d :     0.004070
      dxz     :     0.005429
      dyz     :     0.001138
      dx2y2   :     0.008660
      dxy     :     0.008080

  6 C s       :     3.290404  s :     3.290404
      pz      :     0.739946  p :     2.815123
      px      :     1.089474
      py      :     0.985702
      dz2     :     0.014984  d :     0.054087
      dxz     :     0.011669
      dyz     :     0.011559
      dx2y2   :     0.005818
      dxy     :     0.010056

  7 C s       :     3.319003  s :     3.319003
      pz      :     1.075085  p :     3.102078
      px      :     1.096758
      py      :     0.930235
      dz2     :     0.006462  d :     0.025743
      dxz     :     0.003490
      dyz     :     0.003082
      dx2y2   :     0.005145
      dxy     :     0.007564

  8 S s       :     5.927244  s :     5.927244
      pz      :     3.470432  p :    10.065977
      px      :     3.459873
      py      :     3.135672
      dz2     :     0.016342  d :     0.110834
      dxz     :     0.028442
      dyz     :     0.017560
      dx2y2   :     0.027964
      dxy     :     0.020527

  9 C s       :     3.184735  s :     3.184735
      pz      :     1.060183  p :     3.040606
      px      :     1.048244
      py      :     0.932179
      dz2     :     0.008099  d :     0.035718
      dxz     :     0.007705
      dyz     :     0.005424
      dx2y2   :     0.005982
      dxy     :     0.008508

 10 S s       :     5.906843  s :     5.906843
      pz      :     3.413144  p :    10.166784
      px      :     3.149342
      py      :     3.604298
      dz2     :     0.018541  d :     0.103903
      dxz     :     0.029866
      dyz     :     0.017558
      dx2y2   :     0.014865
      dxy     :     0.023074

 11 P s       :     5.176378  s :     5.176378
      pz      :     2.808502  p :     8.404624
      px      :     2.808422
      py      :     2.787701
      dz2     :     0.124550  d :     0.741883
      dxz     :     0.189391
      dyz     :     0.187046
      dx2y2   :     0.123444
      dxy     :     0.117452

 12 S s       :     5.903693  s :     5.903693
      pz      :     3.127433  p :    10.471379
      px      :     3.658146
      py      :     3.685800
      dz2     :     0.031506  d :     0.064734
      dxz     :     0.015864
      dyz     :     0.013220
      dx2y2   :     0.002209
      dxy     :     0.001936

 13 O s       :     3.738368  s :     3.738368
      pz      :     1.261057  p :     4.514761
      px      :     1.784784
      py      :     1.468920
      dz2     :    -0.003012  d :     0.004056
      dxz     :     0.001400
      dyz     :    -0.005815
      dx2y2   :     0.006145
      dxy     :     0.005338

 14 C s       :     3.279595  s :     3.279595
      pz      :     0.700711  p :     2.784549
      px      :     0.999393
      py      :     1.084445
      dz2     :     0.017466  d :     0.053932
      dxz     :     0.011684
      dyz     :     0.009729
      dx2y2   :     0.005431
      dxy     :     0.009621

 15 C s       :     3.346975  s :     3.346975
      pz      :     1.057507  p :     3.109170
      px      :     0.967642
      py      :     1.084021
      dz2     :     0.006305  d :     0.025747
      dxz     :     0.003618
      dyz     :     0.003375
      dx2y2   :     0.004582
      dxy     :     0.007867

 16 O s       :     3.738821  s :     3.738821
      pz      :     1.684511  p :     4.519304
      px      :     1.435275
      py      :     1.399518
      dz2     :    -0.000450  d :     0.025937
      dxz     :     0.010282
      dyz     :     0.003496
      dx2y2   :     0.013989
      dxy     :    -0.001380

 17 C s       :     3.294175  s :     3.294175
      pz      :     1.079668  p :     2.804700
      px      :     0.924262
      py      :     0.800769
      dz2     :     0.012436  d :     0.054208
      dxz     :     0.007232
      dyz     :     0.006926
      dx2y2   :     0.012122
      dxy     :     0.015491

 18 C s       :     3.311727  s :     3.311727
      pz      :     1.055215  p :     3.104919
      px      :     0.955182
      py      :     1.094521
      dz2     :     0.008012  d :     0.025815
      dxz     :     0.005003
      dyz     :     0.001689
      dx2y2   :     0.004735
      dxy     :     0.006377

 19 H s       :     0.836010  s :     0.836010
      pz      :     0.004368  p :     0.018200
      px      :     0.006077
      py      :     0.007754

 20 H s       :     0.803005  s :     0.803005
      pz      :     0.003952  p :     0.018459
      px      :     0.005251
      py      :     0.009256

 21 H s       :     0.832900  s :     0.832900
      pz      :     0.005332  p :     0.018520
      px      :     0.009398
      py      :     0.003790

 22 H s       :     0.808240  s :     0.808240
      pz      :     0.003842  p :     0.018023
      px      :     0.004850
      py      :     0.009331

 23 H s       :     0.836081  s :     0.836081
      pz      :     0.003815  p :     0.017427
      px      :     0.004269
      py      :     0.009343

 24 H s       :     0.810235  s :     0.810235
      pz      :     0.002435  p :     0.017998
      px      :     0.009031
      py      :     0.006532

 25 H s       :     0.831834  s :     0.831834
      pz      :     0.004986  p :     0.017426
      px      :     0.007671
      py      :     0.004770

 26 H s       :     0.823029  s :     0.823029
      pz      :     0.003789  p :     0.018282
      px      :     0.008471
      py      :     0.006022

 27 H s       :     0.816549  s :     0.816549
      pz      :     0.005973  p :     0.018379
      px      :     0.007868
      py      :     0.004538

 28 H s       :     0.833811  s :     0.833811
      pz      :     0.010618  p :     0.018452
      px      :     0.004232
      py      :     0.003602

 29 H s       :     0.784315  s :     0.784315
      pz      :     0.003613  p :     0.018952
      px      :     0.009462
      py      :     0.005877

 30 H s       :     0.764700  s :     0.764700
      pz      :     0.009793  p :     0.019011
      px      :     0.005403
      py      :     0.003816

 31 H s       :     0.821972  s :     0.821972
      pz      :     0.004053  p :     0.018028
      px      :     0.004298
      py      :     0.009677

 32 H s       :     0.811408  s :     0.811408
      pz      :     0.002197  p :     0.017396
      px      :     0.008222
      py      :     0.006978

 33 H s       :     0.837105  s :     0.837105
      pz      :     0.010682  p :     0.018442
      px      :     0.003659
      py      :     0.004100

 34 H s       :     0.820108  s :     0.820108
      pz      :     0.005234  p :     0.018189
      px      :     0.004161
      py      :     0.008794

 35 H s       :     0.815893  s :     0.815893
      pz      :     0.003633  p :     0.018356
      px      :     0.007588
      py      :     0.007134

 36 H s       :     0.810337  s :     0.810337
      pz      :     0.012308  p :     0.017992
      px      :     0.003245
      py      :     0.002439

 37 H s       :     0.830899  s :     0.830899
      pz      :     0.004098  p :     0.017556
      px      :     0.005916
      py      :     0.007542

 38 H s       :     0.833681  s :     0.833681
      pz      :     0.003952  p :     0.018459
      px      :     0.005492
      py      :     0.009016

 39 H s       :     0.831417  s :     0.831417
      pz      :     0.010969  p :     0.018240
      px      :     0.003578
      py      :     0.003692

 40 H s       :     0.821067  s :     0.821067
      pz      :     0.004264  p :     0.018178
      px      :     0.005824
      py      :     0.008089


------------------------
MULLIKEN OVERLAP CHARGES
------------------------
B(  0-C ,  1-C ) :   0.4583 B(  0-C ,  2-O ) :  -0.1500 B(  0-C , 19-H ) :   0.8093 
B(  0-C , 20-H ) :   0.8333 B(  0-C , 21-H ) :   0.7823 B(  0-C , 22-H ) :  -0.1039 
B(  0-C , 23-H ) :  -0.0505 B(  1-C ,  2-O ) :   0.3199 B(  1-C ,  3-P ) :  -0.1303 
B(  1-C , 19-H ) :  -0.0673 B(  1-C , 20-H ) :  -0.0781 B(  1-C , 21-H ) :  -0.0560 
B(  1-C , 22-H ) :   0.8658 B(  1-C , 23-H ) :   0.8028 B(  2-O ,  3-P ) :   0.3514 
B(  2-O ,  4-S ) :  -0.1086 B(  2-O ,  5-O ) :  -0.2045 B(  2-O ,  8-S ) :  -0.0885 
B(  2-O , 22-H ) :  -0.0826 B(  2-O , 23-H ) :  -0.1065 B(  3-P ,  4-S ) :   1.3264 
B(  3-P ,  5-O ) :   0.5265 B(  3-P ,  6-C ) :  -0.1490 B(  3-P ,  8-S ) :   0.6927 
B(  4-S ,  5-O ) :  -0.1000 B(  4-S ,  8-S ) :  -0.0642 B(  5-O ,  6-C ) :   0.1713 
B(  5-O ,  7-C ) :  -0.1055 B(  5-O ,  8-S ) :  -0.1446 B(  5-O , 24-H ) :  -0.0673 
B(  5-O , 25-H ) :  -0.0960 B(  6-C ,  7-C ) :   0.4549 B(  6-C , 24-H ) :   0.8361 
B(  6-C , 25-H ) :   0.8317 B(  6-C , 26-H ) :  -0.0694 B(  6-C , 27-H ) :  -0.0705 
B(  6-C , 28-H ) :  -0.0849 B(  7-C , 24-H ) :  -0.0755 B(  7-C , 25-H ) :  -0.0692 
B(  7-C , 26-H ) :   0.8311 B(  7-C , 27-H ) :   0.8284 B(  7-C , 28-H ) :   0.8143 
B(  8-S ,  9-C ) :   0.3810 B(  8-S , 10-S ) :  -0.1536 B(  8-S , 29-H ) :  -0.0531 
B(  8-S , 30-H ) :  -0.0748 B(  9-C , 10-S ) :   0.4250 B(  9-C , 11-P ) :  -0.1012 
B(  9-C , 29-H ) :   0.7799 B(  9-C , 30-H ) :   0.8133 B( 10-S , 11-P ) :   0.5655 
B( 10-S , 12-S ) :  -0.1109 B( 10-S , 13-O ) :  -0.1132 B( 10-S , 16-O ) :  -0.0925 
B( 10-S , 29-H ) :  -0.0752 B( 10-S , 30-H ) :  -0.0731 B( 11-P , 12-S ) :   1.3202 
B( 11-P , 13-O ) :   0.6771 B( 11-P , 14-C ) :  -0.2488 B( 11-P , 16-O ) :   0.4368 
B( 11-P , 17-C ) :  -0.1803 B( 12-S , 13-O ) :  -0.1203 B( 12-S , 16-O ) :  -0.0868 
B( 13-O , 14-C ) :   0.2191 B( 13-O , 15-C ) :  -0.0809 B( 13-O , 16-O ) :  -0.2023 
B( 13-O , 31-H ) :  -0.0822 B( 13-O , 32-H ) :  -0.0853 B( 14-C , 15-C ) :   0.4752 
B( 14-C , 31-H ) :   0.8657 B( 14-C , 32-H ) :   0.8067 B( 14-C , 33-H ) :  -0.0813 
B( 14-C , 34-H ) :  -0.0632 B( 14-C , 35-H ) :  -0.0781 B( 15-C , 31-H ) :  -0.0877 
B( 15-C , 32-H ) :  -0.0634 B( 15-C , 33-H ) :   0.8126 B( 15-C , 34-H ) :   0.8272 
B( 15-C , 35-H ) :   0.8341 B( 16-O , 17-C ) :   0.2818 B( 16-O , 18-C ) :  -0.1205 
B( 16-O , 36-H ) :  -0.0912 B( 16-O , 37-H ) :  -0.0773 B( 17-C , 18-C ) :   0.5078 
B( 17-C , 36-H ) :   0.8464 B( 17-C , 37-H ) :   0.7597 B( 17-C , 38-H ) :  -0.0662 
B( 17-C , 39-H ) :  -0.0582 B( 17-C , 40-H ) :  -0.0745 B( 18-C , 36-H ) :  -0.0554 
B( 18-C , 38-H ) :   0.8040 B( 18-C , 39-H ) :   0.8235 B( 18-C , 40-H ) :   0.8349 
B( 22-H , 23-H ) :  -0.0501 B( 36-H , 37-H ) :  -0.0676 


                     *******************************
                     * LOEWDIN POPULATION ANALYSIS *
                     *******************************

----------------------
LOEWDIN ATOMIC CHARGES
----------------------
   0 C :   -0.402103
   1 C :    0.016113
   2 O :   -0.690820
   3 P :    0.366589
   4 S :   -0.115541
   5 O :   -0.695606
   6 C :    0.021347
   7 C :   -0.396028
   8 S :    0.199865
   9 C :   -0.414531
  10 S :    0.144502
  11 P :    0.371073
  12 S :   -0.096713
  13 O :   -0.644153
  14 C :    0.020427
  15 C :   -0.392944
  16 O :   -0.677049
  17 C :    0.018213
  18 C :   -0.386575
  19 H :    0.155815
  20 H :    0.168821
  21 H :    0.160526
  22 H :    0.181959
  23 H :    0.177565
  24 H :    0.181772
  25 H :    0.177279
  26 H :    0.161491
  27 H :    0.164752
  28 H :    0.158250
  29 H :    0.188339
  30 H :    0.192410
  31 H :    0.175703
  32 H :    0.186434
  33 H :    0.158077
  34 H :    0.163375
  35 H :    0.166286
  36 H :    0.181803
  37 H :    0.171939
  38 H :    0.160790
  39 H :    0.158116
  40 H :    0.162433

-------------------------------
LOEWDIN REDUCED ORBITAL CHARGES
-------------------------------
  0 C s       :     2.975210  s :     2.975210
      pz      :     1.048919  p :     3.366088
      px      :     1.155906
      py      :     1.161263
      dz2     :     0.018157  d :     0.060805
      dxz     :     0.011304
      dyz     :     0.009462
      dx2y2   :     0.009225
      dxy     :     0.012656

  1 C s       :     2.875478  s :     2.875478
      pz      :     1.003011  p :     2.985001
      px      :     0.865132
      py      :     1.116858
      dz2     :     0.032809  d :     0.123408
      dxz     :     0.030892
      dyz     :     0.011767
      dx2y2   :     0.019733
      dxy     :     0.028206

  2 O s       :     3.469534  s :     3.469534
      pz      :     1.660912  p :     4.745067
      px      :     1.448496
      py      :     1.635660
      dz2     :     0.081012  d :     0.476219
      dxz     :     0.096277
      dyz     :     0.047529
      dx2y2   :     0.111410
      dxy     :     0.139992

  3 P s       :     4.653390  s :     4.653390
      pz      :     2.782882  p :     8.404980
      px      :     2.786885
      py      :     2.835213
      dz2     :     0.259267  d :     1.575040
      dxz     :     0.370313
      dyz     :     0.265509
      dx2y2   :     0.323164
      dxy     :     0.356787

  4 S s       :     5.565027  s :     5.565027
      pz      :     3.599143  p :    10.417189
      px      :     3.514606
      py      :     3.303439
      dz2     :     0.022009  d :     0.133325
      dxz     :     0.007486
      dyz     :     0.018729
      dx2y2   :     0.030714
      dxy     :     0.054387

  5 O s       :     3.471263  s :     3.471263
      pz      :     1.360650  p :     4.727281
      px      :     1.639756
      py      :     1.726874
      dz2     :     0.158724  d :     0.497062
      dxz     :     0.143112
      dyz     :     0.100468
      dx2y2   :     0.034069
      dxy     :     0.060689

  6 C s       :     2.874936  s :     2.874936
      pz      :     0.829715  p :     2.982649
      px      :     1.086398
      py      :     1.066535
      dz2     :     0.033548  d :     0.121068
      dxz     :     0.028738
      dyz     :     0.024092
      dx2y2   :     0.012996
      dxy     :     0.021694

  7 C s       :     2.974409  s :     2.974409
      pz      :     1.135594  p :     3.360730
      px      :     1.156860
      py      :     1.068276
      dz2     :     0.016475  d :     0.060890
      dxz     :     0.008725
      dyz     :     0.006333
      dx2y2   :     0.011762
      dxy     :     0.017594

  8 S s       :     5.445789  s :     5.445789
      pz      :     3.440515  p :    10.051110
      px      :     3.422676
      py      :     3.187919
      dz2     :     0.042001  d :     0.303236
      dxz     :     0.071023
      dyz     :     0.050598
      dx2y2   :     0.079230
      dxy     :     0.060385

  9 C s       :     3.008347  s :     3.008347
      pz      :     1.120346  p :     3.322534
      px      :     1.119176
      py      :     1.083011
      dz2     :     0.019550  d :     0.083651
      dxz     :     0.018821
      dyz     :     0.011858
      dx2y2   :     0.013959
      dxy     :     0.019463

 10 S s       :     5.435911  s :     5.435911
      pz      :     3.411984  p :    10.112611
      px      :     3.158474
      py      :     3.542153
      dz2     :     0.060869  d :     0.306976
      dxz     :     0.090221
      dyz     :     0.041471
      dx2y2   :     0.041671
      dxy     :     0.072744

 11 P s       :     4.650763  s :     4.650763
      pz      :     2.886311  p :     8.389195
      px      :     2.755559
      py      :     2.747324
      dz2     :     0.341314  d :     1.588969
      dxz     :     0.344991
      dyz     :     0.332699
      dx2y2   :     0.266220
      dxy     :     0.303745

 12 S s       :     5.562437  s :     5.562437
      pz      :     3.191805  p :    10.400457
      px      :     3.586271
      py      :     3.622381
      dz2     :     0.077255  d :     0.133819
      dxz     :     0.026640
      dyz     :     0.021938
      dx2y2   :     0.003481
      dxy     :     0.004505

 13 O s       :     3.467536  s :     3.467536
      pz      :     1.424411  p :     4.715667
      px      :     1.712419
      py      :     1.578837
      dz2     :     0.124990  d :     0.460950
      dxz     :     0.090016
      dyz     :     0.130926
      dx2y2   :     0.055323
      dxy     :     0.059696

 14 C s       :     2.876197  s :     2.876197
      pz      :     0.811496  p :     2.982434
      px      :     1.074573
      py      :     1.096365
      dz2     :     0.039536  d :     0.120942
      dxz     :     0.024902
      dyz     :     0.023693
      dx2y2   :     0.010874
      dxy     :     0.021937

 15 C s       :     2.973506  s :     2.973506
      pz      :     1.120346  p :     3.358636
      px      :     1.089308
      py      :     1.148983
      dz2     :     0.016213  d :     0.060801
      dxz     :     0.007631
      dyz     :     0.008147
      dx2y2   :     0.010252
      dxy     :     0.018558

 16 O s       :     3.468010  s :     3.468010
      pz      :     1.688174  p :     4.733352
      px      :     1.545505
      py      :     1.499673
      dz2     :     0.082511  d :     0.475687
      dxz     :     0.079148
      dyz     :     0.078184
      dx2y2   :     0.120291
      dxy     :     0.115553

 17 C s       :     2.876844  s :     2.876844
      pz      :     1.094468  p :     2.983937
      px      :     1.009430
      py      :     0.880039
      dz2     :     0.029111  d :     0.121006
      dxz     :     0.015109
      dyz     :     0.015143
      dx2y2   :     0.027583
      dxy     :     0.034060

 18 C s       :     2.973273  s :     2.973273
      pz      :     1.135398  p :     3.352459
      px      :     1.066326
      py      :     1.150735
      dz2     :     0.019693  d :     0.060843
      dxz     :     0.010998
      dyz     :     0.003879
      dx2y2   :     0.010541
      dxy     :     0.015733

 19 H s       :     0.800786  s :     0.800786
      pz      :     0.009692  p :     0.043399
      px      :     0.014418
      py      :     0.019289

 20 H s       :     0.786369  s :     0.786369
      pz      :     0.008897  p :     0.044810
      px      :     0.012220
      py      :     0.023693

 21 H s       :     0.795366  s :     0.795366
      pz      :     0.012306  p :     0.044108
      px      :     0.023447
      py      :     0.008355

 22 H s       :     0.774888  s :     0.774888
      pz      :     0.009613  p :     0.043153
      px      :     0.010941
      py      :     0.022600

 23 H s       :     0.782514  s :     0.782514
      pz      :     0.009015  p :     0.039922
      px      :     0.008495
      py      :     0.022411

 24 H s       :     0.775547  s :     0.775547
      pz      :     0.005363  p :     0.042680
      px      :     0.021653
      py      :     0.015664

 25 H s       :     0.782846  s :     0.782846
      pz      :     0.009974  p :     0.039875
      px      :     0.018879
      py      :     0.011022

 26 H s       :     0.794822  s :     0.794822
      pz      :     0.008363  p :     0.043687
      px      :     0.021171
      py      :     0.014152

 27 H s       :     0.790823  s :     0.790823
      pz      :     0.014335  p :     0.044424
      px      :     0.019584
      py      :     0.010506

 28 H s       :     0.797715  s :     0.797715
      pz      :     0.026371  p :     0.044035
      px      :     0.009589
      py      :     0.008075

 29 H s       :     0.764646  s :     0.764646
      pz      :     0.008693  p :     0.047015
      px      :     0.023719
      py      :     0.014602

 30 H s       :     0.759749  s :     0.759749
      pz      :     0.025836  p :     0.047842
      px      :     0.013023
      py      :     0.008983

 31 H s       :     0.782157  s :     0.782157
      pz      :     0.008844  p :     0.042140
      px      :     0.009681
      py      :     0.023614

 32 H s       :     0.773339  s :     0.773339
      pz      :     0.004411  p :     0.040228
      px      :     0.019267
      py      :     0.016550

 33 H s       :     0.797972  s :     0.797972
      pz      :     0.026326  p :     0.043951
      px      :     0.008397
      py      :     0.009229

 34 H s       :     0.793051  s :     0.793051
      pz      :     0.012320  p :     0.043574
      px      :     0.009466
      py      :     0.021788

 35 H s       :     0.789186  s :     0.789186
      pz      :     0.007962  p :     0.044528
      px      :     0.018748
      py      :     0.017818

 36 H s       :     0.775506  s :     0.775506
      pz      :     0.029854  p :     0.042692
      px      :     0.007329
      py      :     0.005509

 37 H s       :     0.786785  s :     0.786785
      pz      :     0.009947  p :     0.041276
      px      :     0.014400
      py      :     0.016929

 38 H s       :     0.795282  s :     0.795282
      pz      :     0.008918  p :     0.043928
      px      :     0.012705
      py      :     0.022305

 39 H s       :     0.798539  s :     0.798539
      pz      :     0.027317  p :     0.043344
      px      :     0.007944
      py      :     0.008084

 40 H s       :     0.794073  s :     0.794073
      pz      :     0.009844  p :     0.043493
      px      :     0.013566
      py      :     0.020083


---------------------------------
LOEWDIN BOND ORDERS (THRESH 0.050000)
---------------------------------
B(  0-C ,  1-C ) :   1.0933 B(  0-C ,  2-O ) :   0.1559 B(  0-C , 19-H ) :   0.9234 
B(  0-C , 20-H ) :   0.9121 B(  0-C , 21-H ) :   0.9151 B(  1-C ,  2-O ) :   1.3048 
B(  1-C ,  3-P ) :   0.0951 B(  1-C ,  4-S ) :   0.0549 B(  1-C , 21-H ) :   0.0512 
B(  1-C , 22-H ) :   0.8242 B(  1-C , 23-H ) :   0.8290 B(  2-O ,  3-P ) :   1.5266 
B(  2-O ,  4-S ) :   0.1916 B(  2-O ,  5-O ) :   0.2117 B(  2-O ,  8-S ) :   0.1527 
B(  2-O , 22-H ) :   0.0975 B(  2-O , 23-H ) :   0.0998 B(  3-P ,  4-S ) :   2.0710 
B(  3-P ,  5-O ) :   1.5547 B(  3-P ,  6-C ) :   0.0988 B(  3-P ,  8-S ) :   1.2464 
B(  3-P ,  9-C ) :   0.0827 B(  4-S ,  5-O ) :   0.1850 B(  4-S ,  8-S ) :   0.1258 
B(  5-O ,  6-C ) :   1.2788 B(  5-O ,  7-C ) :   0.1575 B(  5-O ,  8-S ) :   0.1723 
B(  5-O , 10-S ) :   0.0888 B(  5-O , 24-H ) :   0.0944 B(  5-O , 25-H ) :   0.0993 
B(  6-C ,  7-C ) :   1.0946 B(  6-C , 24-H ) :   0.8264 B(  6-C , 25-H ) :   0.8309 
B(  6-C , 28-H ) :   0.0506 B(  7-C , 26-H ) :   0.9203 B(  7-C , 27-H ) :   0.9170 
B(  7-C , 28-H ) :   0.9168 B(  8-S ,  9-C ) :   1.2776 B(  8-S , 10-S ) :   0.2013 
B(  8-S , 11-P ) :   0.0508 B(  8-S , 29-H ) :   0.0570 B(  8-S , 30-H ) :   0.0585 
B(  9-C , 10-S ) :   1.3077 B(  9-C , 11-P ) :   0.0889 B(  9-C , 29-H ) :   0.8440 
B(  9-C , 30-H ) :   0.8399 B( 10-S , 11-P ) :   1.2039 B( 10-S , 12-S ) :   0.1542 
B( 10-S , 13-O ) :   0.1545 B( 10-S , 16-O ) :   0.1537 B( 10-S , 29-H ) :   0.0569 
B( 10-S , 30-H ) :   0.0633 B( 11-P , 12-S ) :   2.0496 B( 11-P , 13-O ) :   1.5859 
B( 11-P , 14-C ) :   0.0964 B( 11-P , 16-O ) :   1.5565 B( 11-P , 17-C ) :   0.1027 
B( 12-S , 13-O ) :   0.1738 B( 12-S , 16-O ) :   0.1802 B( 13-O , 14-C ) :   1.2757 
B( 13-O , 15-C ) :   0.1581 B( 13-O , 16-O ) :   0.2145 B( 13-O , 31-H ) :   0.0940 
B( 13-O , 32-H ) :   0.0969 B( 14-C , 15-C ) :   1.0977 B( 14-C , 31-H ) :   0.8239 
B( 14-C , 32-H ) :   0.8270 B( 14-C , 33-H ) :   0.0515 B( 15-C , 33-H ) :   0.9162 
B( 15-C , 34-H ) :   0.9190 B( 15-C , 35-H ) :   0.9140 B( 16-O , 17-C ) :   1.2787 
B( 16-O , 18-C ) :   0.1721 B( 16-O , 36-H ) :   0.0958 B( 16-O , 37-H ) :   0.0975 
B( 17-C , 18-C ) :   1.0924 B( 17-C , 36-H ) :   0.8259 B( 17-C , 37-H ) :   0.8333 
B( 17-C , 38-H ) :   0.0502 B( 18-C , 38-H ) :   0.9172 B( 18-C , 39-H ) :   0.9224 
B( 18-C , 40-H ) :   0.9213 

------------------------------------------
LOEWDIN REDUCED ORBITAL POPULATIONS PER MO
-------------------------------------------
THRESHOLD FOR PRINTING IS 0.1%%
                      0         1         2         3         4         5   
                 -88.57597 -88.57420 -88.52009 -88.51874 -76.91420 -76.91389
                   2.00000   2.00000   2.00000   2.00000   2.00000   2.00000
                  --------  --------  --------  --------  --------  --------
 3 P  s               0.0       0.0       0.0       0.0     100.0       0.0
 4 S  s               0.0       0.0     100.0       0.0       0.0       0.0
 8 S  s             100.0       0.0       0.0       0.0       0.0       0.0
10 S  s               0.0     100.0       0.0       0.0       0.0       0.0
11 P  s               0.0       0.0       0.0       0.0       0.0     100.0
12 S  s               0.0       0.0       0.0     100.0       0.0       0.0

                      6         7         8         9        10        11   
                 -18.99628 -18.99622 -18.99113 -18.98999 -10.10983 -10.10333
                   2.00000   2.00000   2.00000   2.00000   2.00000   2.00000
                  --------  --------  --------  --------  --------  --------
 2 O  s              99.9       0.0       0.0       0.0       0.0       0.0
 5 O  s               0.0       0.0      99.9       0.0       0.0       0.0
 5 O  dz2             0.0       0.0       0.0       0.0       0.0       0.2
 6 C  s               0.0       0.0       0.0       0.0       0.0      99.4
 9 C  s               0.0       0.0       0.0       0.0      99.6       0.0
13 O  s               0.0       0.0       0.0      99.9       0.0       0.0
16 O  s               0.0      99.9       0.0       0.0       0.0       0.0

                     12        13        14        15        16        17   
                 -10.10211 -10.10102 -10.10001 -10.03700 -10.03424 -10.03146
                   2.00000   2.00000   2.00000   2.00000   2.00000   2.00000
                  --------  --------  --------  --------  --------  --------
 0 C  s               0.0       0.0       0.0       0.0       0.0      99.7
 1 C  s               0.0      99.4       0.0       0.0       0.0       0.0
 2 O  dxz             0.0       0.2       0.0       0.0       0.0       0.0
 2 O  dx2y2           0.0       0.1       0.0       0.0       0.0       0.0
 7 C  s               0.0       0.0       0.0       0.0      99.7       0.0
13 O  pz              0.0       0.0       0.1       0.0       0.0       0.0
13 O  dz2             0.0       0.0       0.3       0.0       0.0       0.0
14 C  s               0.0       0.0      99.4       0.0       0.0       0.0
16 O  dxy             0.1       0.0       0.0       0.0       0.0       0.0
[...]
32 H  py              0.1       0.1       0.0       0.2       0.0       0.0
33 H  pz              0.1       0.1       0.0       0.2       0.0       0.0
36 H  s               0.0       0.1       0.1       0.2       0.0       0.0
36 H  pz              0.0       0.2       0.2       0.3       0.0       0.0
36 H  py              0.0       0.1       0.0       0.1       0.0       0.0
37 H  s               0.0       0.1       0.1       0.2       0.0       0.0
37 H  pz              0.0       0.1       0.1       0.1       0.0       0.0
37 H  px              0.0       0.2       0.1       0.3       0.0       0.0

                    522       523       524       525       526       527   
                  18.88042  18.90849  19.10402  19.18074  21.90169  21.95771
                   0.00000   0.00000   0.00000   0.00000   0.00000   0.00000
                  --------  --------  --------  --------  --------  --------
 0 C  s               0.0       0.0       0.0       0.0       0.0       0.4
 3 P  py              0.2       0.1       0.0       0.0       0.0       0.0
 4 S  s              61.7      34.3       2.3       0.7       0.0       0.0
 6 C  s               0.0       0.0       0.1       0.1       0.0       1.1
 8 S  s               0.0       0.2      36.5      62.2       0.0       0.0
 9 C  s               0.0       0.0       0.1       0.6       0.5       0.0
10 S  s               6.8       0.4      58.3      33.4       0.0       0.0
11 P  s               0.0       0.1       0.0       0.1       0.0       0.0
11 P  pz              0.1       0.2       0.0       0.0       0.0       0.0
12 S  s              30.6      64.0       2.0       2.2       0.0       0.0
12 S  pz              0.1       0.1       0.0       0.0       0.0       0.0
14 C  s               0.0       0.1       0.0       0.0       0.5       0.6
15 C  s               0.0       0.0       0.0       0.0       0.1      92.9
17 C  s               0.0       0.0       0.0       0.0      12.5       3.3
18 C  s               0.0       0.0       0.0       0.0      85.8       1.2

                    528       529       530       531       532       533   
                  21.96439  21.98951  22.03468  22.05923  22.06502  22.07708
                   0.00000   0.00000   0.00000   0.00000   0.00000   0.00000
                  --------  --------  --------  --------  --------  --------
 0 C  s              29.9      64.6       0.0       0.5       1.3       1.5
 1 C  s               0.0       2.4       0.0      73.3      20.6       0.1
 6 C  s               1.3       0.0       0.9       0.7      24.0       0.6
 7 C  s              62.6      31.9       1.1       0.8       0.1       2.0
 9 C  s               4.6       0.2       5.7      12.9      31.8      34.3
14 C  s               0.6       0.1       1.7      10.7      19.4      54.2
15 C  s               0.1       0.2       3.5       0.0       0.1       0.8
17 C  s               0.1       0.2      75.7       0.5       2.2       5.0
18 C  s               0.4       0.0      11.0       0.0       0.0       1.1

                    534       535       536       537       538   
                  22.09914  43.80342  43.81248  43.87293  43.92731
                   0.00000   0.00000   0.00000   0.00000   0.00000
                  --------  --------  --------  --------  --------
 0 C  s               1.4       0.0       0.0       0.0       0.0
 1 C  s               3.2       0.0       0.0       0.0       0.0
 2 O  s               0.0      38.0      23.6      27.7      10.5
 5 O  s               0.0      24.3      13.9      41.6      20.1
 6 C  s              70.9       0.0       0.0       0.0       0.0
 7 C  s               0.8       0.0       0.0       0.0       0.0
 9 C  s               9.4       0.0       0.0       0.0       0.0
13 O  s               0.0       0.1       0.7      30.4      68.6
14 C  s              11.9       0.0       0.0       0.0       0.0
15 C  s               1.8       0.0       0.0       0.0       0.0
16 O  s               0.0      37.5      61.6       0.2       0.6
18 C  s               0.1       0.0       0.0       0.0       0.0


                      *****************************
                      * MAYER POPULATION ANALYSIS *
                      *****************************

  NA   - Mulliken gross atomic population
  ZA   - Total nuclear charge
  QA   - Mulliken gross atomic charge
  VA   - Mayer's total valence
  BVA  - Mayer's bonded valence
  FA   - Mayer's free valence

  ATOM       NA         ZA         QA         VA         BVA        FA
  0 C      6.4317     6.0000    -0.4317     3.7572     3.7572    -0.0000
  1 C      6.1586     6.0000    -0.1586     3.7264     3.7264    -0.0000
  2 O      8.3011     8.0000    -0.3011     1.7644     1.7644     0.0000
  3 P     14.3535    15.0000     0.6465     5.1381     5.1381     0.0000
  4 S     16.4548    16.0000    -0.4548     2.0663     2.0663     0.0000
  5 O      8.2371     8.0000    -0.2371     1.7916     1.7916    -0.0000
  6 C      6.1596     6.0000    -0.1596     3.6441     3.6441    -0.0000
  7 C      6.4468     6.0000    -0.4468     3.8018     3.8018    -0.0000
  8 S     16.1041    16.0000    -0.1041     2.1948     2.1948    -0.0000
  9 C      6.2611     6.0000    -0.2611     3.7875     3.7875    -0.0000
 10 S     16.1775    16.0000    -0.1775     2.1576     2.1576    -0.0000
 11 P     14.3229    15.0000     0.6771     5.1143     5.1143     0.0000
 12 S     16.4398    16.0000    -0.4398     2.0735     2.0735    -0.0000
 13 O      8.2572     8.0000    -0.2572     1.8024     1.8024    -0.0000
 14 C      6.1181     6.0000    -0.1181     3.6383     3.6383    -0.0000
 15 C      6.4819     6.0000    -0.4819     3.8241     3.8241     0.0000
 16 O      8.2841     8.0000    -0.2841     1.8162     1.8162     0.0000
 17 C      6.1531     6.0000    -0.1531     3.6865     3.6865     0.0000
 18 C      6.4425     6.0000    -0.4425     3.8468     3.8468    -0.0000
 19 H      0.8542     1.0000     0.1458     0.9627     0.9627    -0.0000
 20 H      0.8215     1.0000     0.1785     0.9587     0.9587    -0.0000
 21 H      0.8514     1.0000     0.1486     0.9644     0.9644    -0.0000
 22 H      0.8263     1.0000     0.1737     0.9538     0.9538    -0.0000
 23 H      0.8535     1.0000     0.1465     0.9503     0.9503    -0.0000
 24 H      0.8282     1.0000     0.1718     0.9591     0.9591    -0.0000
 25 H      0.8493     1.0000     0.1507     0.9552     0.9552    -0.0000
 26 H      0.8413     1.0000     0.1587     0.9620     0.9620    -0.0000
 27 H      0.8349     1.0000     0.1651     0.9604     0.9604     0.0000
 28 H      0.8523     1.0000     0.1477     0.9633     0.9633    -0.0000
 29 H      0.8033     1.0000     0.1967     0.9492     0.9492     0.0000
 30 H      0.7837     1.0000     0.2163     0.9436     0.9436     0.0000
 31 H      0.8400     1.0000     0.1600     0.9585     0.9585    -0.0000
 32 H      0.8288     1.0000     0.1712     0.9440     0.9440     0.0000
 33 H      0.8555     1.0000     0.1445     0.9632     0.9632    -0.0000
 34 H      0.8383     1.0000     0.1617     0.9599     0.9599    -0.0000
 35 H      0.8342     1.0000     0.1658     0.9607     0.9607     0.0000
 36 H      0.8283     1.0000     0.1717     0.9513     0.9513     0.0000
 37 H      0.8485     1.0000     0.1515     0.9467     0.9467     0.0000
 38 H      0.8521     1.0000     0.1479     0.9638     0.9638    -0.0000
 39 H      0.8497     1.0000     0.1503     0.9619     0.9619    -0.0000
 40 H      0.8392     1.0000     0.1608     0.9597     0.9597    -0.0000

  Mayer bond orders larger than 0.100000
B(  0-C ,  1-C ) :   0.9321 B(  0-C , 19-H ) :   0.9698 B(  0-C , 20-H ) :   0.9587 
B(  0-C , 21-H ) :   0.9599 B(  1-C ,  2-O ) :   0.8108 B(  1-C , 22-H ) :   0.9589 
B(  1-C , 23-H ) :   0.9599 B(  2-O ,  3-P ) :   0.9986 B(  3-P ,  4-S ) :   1.8488 
B(  3-P ,  5-O ) :   1.1081 B(  3-P ,  8-S ) :   1.0770 B(  5-O ,  6-C ) :   0.7507 
B(  6-C ,  7-C ) :   0.9274 B(  6-C , 24-H ) :   0.9597 B(  6-C , 25-H ) :   0.9685 
B(  7-C , 26-H ) :   0.9728 B(  7-C , 27-H ) :   0.9667 B(  7-C , 28-H ) :   0.9666 
B(  8-S ,  9-C ) :   0.9062 B(  9-C , 10-S ) :   0.9271 B(  9-C , 29-H ) :   0.9150 
B(  9-C , 30-H ) :   0.9153 B( 10-S , 11-P ) :   0.9742 B( 11-P , 12-S ) :   1.8318 
B( 11-P , 13-O ) :   1.1682 B( 11-P , 16-O ) :   1.0489 B( 13-O , 14-C ) :   0.7300 
B( 14-C , 15-C ) :   0.9301 B( 14-C , 31-H ) :   0.9693 B( 14-C , 32-H ) :   0.9555 
B( 15-C , 33-H ) :   0.9659 B( 15-C , 34-H ) :   0.9736 B( 15-C , 35-H ) :   0.9688 
B( 16-O , 17-C ) :   0.7872 B( 17-C , 18-C ) :   0.9554 B( 17-C , 36-H ) :   0.9499 
B( 17-C , 37-H ) :   0.9419 B( 18-C , 38-H ) :   0.9633 B( 18-C , 39-H ) :   0.9719 
B( 18-C , 40-H ) :   0.9711 

-------
TIMINGS
-------

Total SCF time: 0 days 0 hours 1 min 16 sec 

Total time                  ....      76.270 sec
Sum of individual times     ....      75.727 sec  ( 99.3%)

SCF preparation             ....       0.358 sec  (  0.5%)
Fock matrix formation       ....      72.096 sec  ( 94.5%)
  Startup                   ....       0.145 sec  (  0.2% of F)
  Split-RI-J                ....      24.323 sec  ( 33.7% of F)
  XC integration            ....      46.067 sec  ( 63.9% of F)
    Basis function eval.    ....       7.195 sec  ( 15.6% of XC)
    Density eval.           ....      17.013 sec  ( 36.9% of XC)
    XC-Functional eval.     ....       3.223 sec  (  7.0% of XC)
    XC-Potential eval.      ....      17.280 sec  ( 37.5% of XC)
Diagonalization             ....       0.000 sec  (  0.0%)
Density matrix formation    ....       0.929 sec  (  1.2%)
Total Energy calculation    ....       0.047 sec  (  0.1%)
Population analysis         ....       0.436 sec  (  0.6%)
Orbital Transformation      ....       0.262 sec  (  0.3%)
Orbital Orthonormalization  ....       0.000 sec  (  0.0%)
DIIS solution               ....       1.383 sec  (  1.8%)
  MO trafo                  ....       0.000 sec  (  0.0 % of DIIS)
  Orb grad                  ....       0.000 sec  (  0.0 % of DIIS)
  Energy W gradient         ....       0.000 sec  (  0.0 % of DIIS)
  DIIS error                ....       0.110 sec  (  7.9 % of DIIS)
  DIIS work                 ....       1.111 sec  ( 80.3 % of DIIS)
  Form Q                    ....       0.000 sec  (  0.0 % of DIIS)
  Form QpQm                 ....       0.000 sec  (  0.0 % of DIIS)
  Exp/Cayley                ....       0.000 sec  (  0.0 % of DIIS)
  Orb update                ....       0.000 sec  (  0.0 % of DIIS)
  Wake-sleep                ....       0.023 sec  (  1.7 % of DIIS)
SOSCF solution              ....       0.215 sec  (  0.3%)
  MO trafo                  ....       0.169 sec  ( 78.5 % of SOSCF)
  Orb grad                  ....       0.001 sec  (  0.5 % of SOSCF)
  Rot update                ....       0.000 sec  (  0.1 % of SOSCF)
  Step                      ....       0.045 sec  ( 20.8 % of SOSCF)
Finished LeanSCF after  76.4 sec

Maximum memory used throughout the entire LEANSCF-calculation: 73.1 MB


-------------------------------------------------------------------------------
                          DFT DISPERSION CORRECTION                            
                                                                               
                                DFTD4 V3.4.0                                   
-------------------------------------------------------------------------------
The R2SCAN3C composite method is recognized
Using three-body term ABC
Active option DFTDOPT                   ...         5   

-------------------------   ----------------
Dispersion correction           -0.021476598
-------------------------   ----------------

------------------   -----------------
gCP correction             0.046402319
------------------   -----------------

-------------------------   --------------------
FINAL SINGLE POINT ENERGY     -2932.460620038292
-------------------------   --------------------


------------------------------------------------------------------------------
                              ORCA PROPERTY CALCULATIONS
------------------------------------------------------------------------------

GBWName                                 ... sp_gas.gbw
Number of atoms                         ...     41
Number of basis functions               ...    539
Max core memory                         ...   1024 MB

Electric properties:
Dipole moment                           ... YES
Quadrupole moment                       ...  NO
Static polarizability (Dipole/Dipole)   ...  NO
Static polarizability (Dipole/Quad.)    ...  NO
Static polarizability (Quad./Quad.)     ...  NO
Static polarizability (Velocity)        ...  NO

Atomic electric properties:
Dipole moment                           ...  NO
Quadrupole moment                       ...  NO
Static polarizability                   ...  NO

Choice of electric origin               ... Center of mass
Position of electric origin             ...    -0.000000    -0.000005     0.000004

General magnetic properties:
Magnetizability                         ...  NO

EPR properties:
g-Tensor (aka g-matrix)                 ...  NO
Zero-Field splitting spin-orbit         ...  NO
Zero-field splitting spin-spin          ...  NO
Hyperfine couplings                     ...  NO (   0 nuclei)
Quadrupole couplings                    ...  NO (   0 nuclei)
Contact density                         ...  NO (   0 nuclei)

NMR properties:
Chemical shifts                         ...  NO (   0 nuclei)
Spin-rotation constants                 ...  NO (   0 nuclei)
Spin-spin couplings                     ...  NO (   0 nuclei,    0 pairs)

Choice of magnetic origin               ... GIAO
Position of magnetic origin             ...     0.000000     0.000000     0.000000

Properties with geometric perturbations:
SCF Hessian                             ...  NO
IR spectrum                             ...  NO
VCD spectrum                            ...  NO
X-ray spectroscopy properties:
SCF XES/XAS/RIXS spectra                ...  NO


-------------
DIPOLE MOMENT
-------------

Method             : SCF
Type of density    : Electron Density
Multiplicity       :   1
Irrep              :   0
Energy             : -2932.4855457599178408 Eh
Relativity type    : 
Basis              : AO
                                X                 Y                 Z
Electronic contribution:      3.490301782       8.863667208     -14.736412852
Nuclear contribution   :     -3.463227100     -10.619244336      16.366037309
                        -----------------------------------------
Total Dipole Moment    :      0.027074683      -1.755577128       1.629624457
                        -----------------------------------------
Magnitude (a.u.)       :      2.395508288
Magnitude (Debye)      :      6.088898177



--------------------
Rotational spectrum 
--------------------
 
Rotational constants in cm-1:             0.012990             0.004817             0.004429 
Rotational constants in MHz :           389.442599           144.412865           132.792522 

Dipole components along the rotational axes: 
x,y,z [a.u.] :    -0.223602    -1.058753    -2.137172 
x,y,z [Debye]:    -0.568350    -2.691137    -5.432259 

 

Dipole moment calculation done in   0.1 sec 

Maximum memory used throughout the entire PROP-calculation: 51.6 MB

--------------------------------
SUGGESTED CITATIONS FOR THIS RUN
--------------------------------

Below you find a list of papers that are relevant to this ORCA run
We neither can nor want to force you to cite these papers, but we appreciate if you do
You receive ORCA, which is the product of decades of hard work by many enthusiastic individuals, for free
The only thing we kindly ask in return is that you cite our papers,
We deeply appreciate it, if you show your appreciation for ORCA by not just citing the generic ORCA reference.

Please note that relegating all ORCA citations to the supporting information does *not* help us.
SI sections are not indexed - citations you put there will not count into any citation statistics
But we need these citations in order to attract the funding resources that allow us to do what we are doing

Therefore, if you are a happy ORCA user, please consider citing a few of the papers listed below in the main body of your paper

In addition to the list printed below, the program has created the file sp_gas.bibtex that contains the list in bibtex format
You can import this file easily into all common literature databanks and citation aid programs


List of essential papers. We consider these as the minimum necessary citations

  1. Neese,F.
     Software update: the ORCA program system, version 5.0
     WIRES Comput. Molec. Sci., 2022 12(1)e1606
     doi.org/10.1002/wcms.1606
  2. Grimme,S.; Hansen,A.; Ehlert,S.; Mewes,J.
     r2SCAN-3c: A 'Swiss army knife' composite electronic-structure method
     J. Chem. Phys., 2021 154 064103
     doi.org/10.1063/5.0040021

List of papers to cite with high priority. The work reported in these papers was absolutely
necessary for this run to complete.
Our perspective: the developers of density functionals and basis sets usually get cited in chemistry papers
Good! But without the algorithms to do something with them, the functionals or basis sets would not do anything.
Hence, in our opinion, the algorithm design and method developments papers are equally worthy of getting cited

  1. Neese,F.
     An improvement of the resolution of the identity approximation for the formation of the Coulomb matrix
     J. Comp. Chem., 2003 24(14)1740-1747
     doi.org/10.1002/jcc.10318
  2. Neese,F.
     The SHARK Integral Generation and Digestion System
     J. Comp. Chem., 2022  1-16
     doi.org/10.1002/jcc.26942
  3. Lehtola,S.; Steigemann,C.; Oliveira,M.; Marques,M.
     Recent developments in Libxc - A comprehensive library of functionals for density functional theory
     Software X, 2018 7 
     doi.org/10.1016/j.softx.2017.11.002
  4. Caldeweyher,E.; Bannwarth,C.; Grimme,S.
     Extension of the D3 dispersion coefficient model
     J. Chem. Phys., 2017 147 034112-XXXX
     doi.org/10.1063/1.4993215
  5. Caldeweyher,E.; Ehlert,S.; Hansen,A.; Neugebauer,H.; Spicher,S.; Bannwarth,C.; Grimme,S.
     A generally applicable atomic-charge dependent London dispersion correction
     J. Chem. Phys., 2019 150 154122-XXXX
     doi.org/10.1063/1.5090222
  6. Caldeweyher,E.; Mewes,J.; Ehlert,S.; Grimme,S.
     Extension and evaluation of the D4 London-dispersion model for periodic systems
     Phys. Chem. Chem. Phys., 2020 22(16)8499-8512
     doi.org/10.1039/D0CP00502A

List of suggested additional citations. These are papers that are important in the 'surrounding' of 
of this run, or papers that preceded the highly important papers. If you like your results we are grateful for a citation.

  1. Neese,F.
     The ORCA program system
     WIRES Comput. Molec. Sci., 2012 2(1)73-78
     doi.org/10.1002/wcms.81
  2. Neese,F.
     Software update: the ORCA program system, version 4.0
     WIRES Comput. Molec. Sci., 2018 8(1)1-6
     doi.org/10.1002/wcms.1327
  3. Neese,F.; Wennmohs,F.; Becker,U.; Riplinger,C.
     The ORCA quantum chemistry program package
     J. Chem. Phys., 2020 152 Art. No. L224108
     doi.org/10.1063/5.0004608

List of optional additional citations

  1. Neese,F.
     Approximate second-order SCF convergence for spin unrestricted wavefunctions
     Chem. Phys. Lett., 2000 325(1-3)93-98
     doi.org/10.1016/s0009-2614(00)00662-x

Timings for individual modules:

Sum of individual times          ...       80.069 sec (=   1.334 min)
Startup calculation              ...        2.832 sec (=   0.047 min)   3.5 %
SCF iterations                   ...       77.030 sec (=   1.284 min)  96.2 %
Property calculations            ...        0.208 sec (=   0.003 min)   0.3 %
                             ****ORCA TERMINATED NORMALLY****
TOTAL RUN TIME: 0 days 0 hours 1 minutes 20 seconds 910 msec
