
                                 *****************
                                 * O   R   C   A *
                                 *****************

                                            #,                                       
                                            ###                                      
                                            ####                                     
                                            #####                                    
                                            ######                                   
                                           ########,                                 
                                     ,,################,,,,,                         
                               ,,#################################,,                 
                          ,,##########################################,,             
                       ,#########################################, ''#####,          
                    ,#############################################,,   '####,        
                  ,##################################################,,,,####,       
                ,###########''''           ''''###############################       
              ,#####''   ,,,,##########,,,,          '''####'''          '####       
            ,##' ,,,,###########################,,,                        '##       
           ' ,,###''''                  '''############,,,                           
         ,,##''                                '''############,,,,        ,,,,,,###''
      ,#''                                            '''#######################'''  
     '                                                          ''''####''''         
             ,#######,   #######,   ,#######,      ##                                
            ,#'     '#,  ##    ##  ,#'     '#,    #''#        ,####,   ,####,        
            ##       ##  ##   ,#'  ##            #'  '#       #'       #'  '#        
            ##       ##  #######   ##           ,######,      #####,   #    #        
            '#,     ,#'  ##    ##  '#,     ,#' ,#      #,     #,   #   #,  ,#        
             '#######'   ##     ##  '#######'  #'      '#     '####' # '####'        



                #########################################################
                #                        -***-                          #
                #          Department of theory and spectroscopy        #
                #                                                       #
                #                      Frank Neese                      #
                #                                                       #
                #     Directorship, Architecture, Infrastructure        #
                #                    SHARK, DRIVERS                     #
                #        Core code/Algorithms in most modules           #
                #                                                       #
                #        Max Planck Institute fuer Kohlenforschung      #
                #                Kaiser Wilhelm Platz 1                 #
                #                 D-45470 Muelheim/Ruhr                 #
                #                      Germany                          #
                #                                                       #
                #                  All rights reserved                  #
                #                        -***-                          #
                #########################################################


                         Program Version 6.0.0  -   RELEASE  -


 With contributions from (in alphabetic order):
   Daniel Aravena         : Magnetic Suceptibility
   Michael Atanasov       : Ab Initio Ligand Field Theory (pilot matlab implementation)
   Alexander A. Auer      : GIAO ZORA, VPT2 properties, NMR spectrum
   Ute Becker             : All parallelization in ORCA, NUMFREQ, NUMCALC
   Giovanni Bistoni       : ED, misc. LED, open-shell LED, HFLD
   Martin Brehm           : Molecular dynamics
   Dmytro Bykov           : pre 5.0 version of the SCF Hessian
   Marcos Casanova-Páez   : Triplet and SCS-CIS(D). UHF-(DLPNO)-IP/EA/STEOM-CCSD. UHF-CVS-IP/STEOM-CCSD
   Vijay G. Chilkuri      : MRCI spin determinant printing, contributions to CSF-ICE
   Pauline Colinet        : FMM embedding
   Dipayan Datta          : RHF DLPNO-CCSD density
   Achintya Kumar Dutta   : EOM-CC, STEOM-CC
   Nicolas Foglia         : Exact transition moments, OPA infrastructure, MCD improvements
   Dmitry Ganyushin       : Spin-Orbit,Spin-Spin,Magnetic field MRCI
   Miquel Garcia          : C-PCM and meta-GGA Hessian, CCSD/C-PCM, Gaussian charge scheme
   Tiago L. C. Gouveia    : GS-ROHF, GS-ROCIS
   Yang Guo               : DLPNO-NEVPT2, F12-NEVPT2, CIM, IAO-localization
   Andreas Hansen         : Spin unrestricted coupled pair/coupled cluster methods
   Ingolf Harden          : AUTO-CI MPn and infrastructure 
   Benjamin Helmich-Paris : MC-RPA, TRAH-(SCF,CASSCF), AVAS, COSX integrals, SCF dyn. polar.
   Lee Huntington         : MR-EOM, pCC
   Robert Izsak           : Overlap fitted RIJCOSX, COSX-SCS-MP3, EOM
   Riya Kayal             : Wick's Theorem for AUTO-CI, AUTO-CI UHF-CCSDT
   Emily Kempfer          : AUTO-CI, RHF CISDT and CCSDT
   Christian Kollmar      : KDIIS, OOCD, Brueckner-CCSD(T), CCSD density, CASPT2, CASPT2-K, improved NEVPT2
   Axel Koslowski         : Symmetry handling
   Simone Kossmann        : Meta GGA functionals, TD-DFT gradient, OOMP2, (MP2 Hessian; deprecated post 5.0)
   Lucas Lang             : DCDCAS
   Marvin Lechner         : AUTO-CI (C++ implementation), FIC-MRCC
   Spencer Leger          : CASSCF response
   Dagmar Lenk            : GEPOL surface, SMD, ORCA-2-JSON
   Dimitrios Liakos       : Extrapolation schemes; Compound Job, initial MDCI parallelization
   Dimitrios Manganas     : Further ROCIS development; embedding schemes. LFT, Crystal Embedding
   Dimitrios Pantazis     : SARC Basis sets
   Anastasios Papadopoulos: AUTO-CI, single reference methods and gradients
   Taras Petrenko         : pre 6.0 DFT Hessian and TD-DFT gradient, (ASA, deprecated), ECA, 1-Electron XAS/XES, NRVS
   Peter Pinski           : DLPNO-MP2, DLPNO-MP2 Gradient
   Christoph Reimann      : Effective Core Potentials
   Marius Retegan         : Local ZFS, SOC
   Christoph Riplinger    : Optimizer, TS searches, QM/MM, DLPNO-CCSD(T), (RO)-DLPNO pert. Triples
   Michael Roemelt        : Original ROCIS implementation
   Masaaki Saitow         : Open-shell DLPNO-CCSD energy and density
   Barbara Sandhoefer     : DKH picture change effects
   Kantharuban Sivalingam : CASSCF convergence/infrastructure, NEVPT2 and variants, FIC-MRCI
   Bernardo de Souza      : ESD, SOC TD-DFT
   Georgi Stoychev        : AutoAux, RI-MP2 NMR, DLPNO-MP2 response, X2C
   Van Anh Tran           : RI-MP2 g-tensors
   Willem Van den Heuvel  : Paramagnetic NMR
   Zikuan Wang            : NOTCH, Electric field optimization 
   Frank Wennmohs         : Technical directorship and infrastructure
   Hang Xu                : AUTO-CI-Response properties 


 We gratefully acknowledge several colleagues who have allowed us to
 interface, adapt or use parts of their codes:
   Stefan Grimme, W. Hujo, H. Kruse, P. Pracht,  : VdW corrections, initial TS optimization,
                  C. Bannwarth, S. Ehlert,         DFT functionals, gCP, sTDA/sTD-DF
                  L. Wittmann, M. Mueller
   Ed Valeev, F. Pavosevic, A. Kumar             : LibInt (2-el integral package), F12 methods
   Garnet Chan, S. Sharma, J. Yang, R. Olivares  : DMRG
   Ulf Ekstrom                                   : XCFun DFT Library
   Mihaly Kallay                                 : mrcc  (arbitrary order and MRCC methods)
   Frank Weinhold                                : gennbo (NPA and NBO analysis)
   Simon Mueller                                 : openCOSMO-RS
   Christopher J. Cramer and Donald G. Truhlar   : smd solvation model
   Lars Goerigk                                  : TD-DFT with DH, B97 family of functionals
   V. Asgeirsson, H. Jonsson                     : NEB implementation
   FAccTs GmbH                                   : IRC, NEB, NEB-TS, DLPNO-Multilevel, CI-OPT
                                                   MM, QMMM, 2- and 3-layer-ONIOM, Crystal-QMMM,
                                                   LR-CPCM, SF, NACMEs, symmetry and pop. for TD-DFT,
                                                   nearIR, NL-DFT gradient (VV10), updates on ESD,
                                                   ML-optimized integration grids, MBIS, APM,
                                                   GOAT, DOCKER, SOLVATOR, interface openCOSMO-RS
   S Lehtola, MJT Oliveira, MAL Marques          : LibXC Library
   Liviu Ungur et al                             : ANISO software


 Your calculation uses the libint2 library for the computation of 2-el integrals
 For citations please refer to: http://libint.valeyev.net

 Your ORCA version has been built with support for libXC version: 6.2.2
 For citations please refer to: https://libxc.gitlab.io

 This ORCA versions uses:
   CBLAS   interface :  Fast vector & matrix operations
   LAPACKE interface :  Fast linear algebra routines
   SCALAPACK package :  Parallel linear algebra routines
   Shared memory     :  Shared parallel matrices
   BLAS/LAPACK       :  OpenBLAS 0.3.27  USE64BITINT DYNAMIC_ARCH NO_AFFINITY SkylakeX SINGLE_THREADED
        Core in use  :  SkylakeX
   Copyright (c) 2011-2014, The OpenBLAS Project


Your calculation utilizes the geometrical counterpoise correction gCP
Please cite in your paper:
H.Kruse, S. Grimme J.Chem.Phys., 136, (2012), 154101 
   

Your calculation utilizes the atom-pairwise dispersion correction
based on EEQ partial charges (D4)


================================================================================

----- Orbital basis set information -----
Your calculation utilizes the basis: def2-SV(P)
   F. Weigend and R. Ahlrichs, Phys. Chem. Chem. Phys. 7, 3297 (2005).

----- AuxJ basis set information -----
Your calculation utilizes the auxiliary basis: def2/J
   F. Weigend, Phys. Chem. Chem. Phys. 8, 1057 (2006).

================================================================================
                                        WARNINGS
                       Please study these warnings very carefully!
================================================================================


================================================================================
                                       INPUT FILE
================================================================================
NAME = sp.inp
|  1> ! pbe def2-sv(p) def2/J RI DEFGRID1 loosescf d4 GCP(DFT/SV(P)) printgap
|  2> %output
|  3>     printlevel normal
|  4> end
|  5> * xyz 0 1
|  6> C 2.3775774768 -2.14364e-05 0.4966027606
|  7> N 1.3715182242 3.292e-07 -0.5467969779
|  8> C 0.5333731149 1.1917099947 -0.5542236961
|  9> C -0.5332512474 1.1917783902 0.5538723527
| 10> N -1.3713100109 4.9459e-06 0.546806526
| 11> C -0.5332348294 -1.1917512869 0.5539050207
| 12> C 0.5333711308 -1.1917066859 -0.5542085852
| 13> C -2.3779797318 -3.3278e-06 -0.4960110961
| 14> H 3.0012318963 -0.8842414792 0.3721843203
| 15> H 1.9748028362 -0.0001116097 1.5183887225
| 16> H 3.0012087638 0.8841262475 0.3721981409
| 17> H 1.1732869478 2.070014549 -0.4556322643
| 18> H 0.044290992 1.235184689 -1.5326348964
| 19> H -0.0441184463 1.2355423405 1.5322480153
| 20> H -1.1732354809 2.0700045612 0.4550747071
| 21> H -0.0440670285 -1.2354695596 1.5322685754
| 22> H -1.1732098632 -2.0699952031 0.4551764084
| 23> H 1.1732805825 -2.0700145543 -0.4555968502
| 24> H 0.044291984 -1.2351644024 -1.5326218037
| 25> H -3.0016801577 0.8840079523 -0.3710424187
| 26> H -3.0013838553 -0.8842626325 -0.371336509
| 27> H -1.9758756389 0.0002384895 -1.5180531754
| 28> *
| 29> 
| 30>                          ****END OF INPUT****
================================================================================

                       ****************************
                       * Single Point Calculation *
                       ****************************

---------------------------------
CARTESIAN COORDINATES (ANGSTROEM)
---------------------------------
  C      2.377577   -0.000021    0.496603
  N      1.371518    0.000000   -0.546797
  C      0.533373    1.191710   -0.554224
  C     -0.533251    1.191778    0.553872
  N     -1.371310    0.000005    0.546807
  C     -0.533235   -1.191751    0.553905
  C      0.533371   -1.191707   -0.554209
  C     -2.377980   -0.000003   -0.496011
  H      3.001232   -0.884241    0.372184
  H      1.974803   -0.000112    1.518389
  H      3.001209    0.884126    0.372198
  H      1.173287    2.070015   -0.455632
  H      0.044291    1.235185   -1.532635
  H     -0.044118    1.235542    1.532248
  H     -1.173235    2.070005    0.455075
  H     -0.044067   -1.235470    1.532269
  H     -1.173210   -2.069995    0.455176
  H      1.173281   -2.070015   -0.455597
  H      0.044292   -1.235164   -1.532622
  H     -3.001680    0.884008   -0.371042
  H     -3.001384   -0.884263   -0.371337
  H     -1.975876    0.000238   -1.518053

----------------------------
CARTESIAN COORDINATES (A.U.)
----------------------------
  NO LB      ZA    FRAG     MASS         X           Y           Z
   0 C     6.0000    0    12.011    4.492970   -0.000041    0.938443
   1 N     7.0000    0    14.007    2.591794    0.000001   -1.033297
   2 C     6.0000    0    12.011    1.007929    2.252006   -1.047331
   3 C     6.0000    0    12.011   -1.007699    2.252135    1.046667
   4 N     7.0000    0    14.007   -2.591400    0.000009    1.033315
   5 C     6.0000    0    12.011   -1.007668   -2.252084    1.046729
   6 C     6.0000    0    12.011    1.007925   -2.251999   -1.047302
   7 C     6.0000    0    12.011   -4.493730   -0.000006   -0.937325
   8 H     1.0000    0     1.008    5.671506   -1.670974    0.703326
   9 H     1.0000    0     1.008    3.731837   -0.000211    2.869339
  10 H     1.0000    0     1.008    5.671463    1.670756    0.703353
  11 H     1.0000    0     1.008    2.217191    3.911761   -0.861020
  12 H     1.0000    0     1.008    0.083698    2.334161   -2.896260
  13 H     1.0000    0     1.008   -0.083372    2.334837    2.895529
  14 H     1.0000    0     1.008   -2.217094    3.911742    0.859967
  15 H     1.0000    0     1.008   -0.083275   -2.334699    2.895568
  16 H     1.0000    0     1.008   -2.217045   -3.911724    0.860159
  17 H     1.0000    0     1.008    2.217179   -3.911761   -0.860953
  18 H     1.0000    0     1.008    0.083700   -2.334122   -2.896235
  19 H     1.0000    0     1.008   -5.672353    1.670533   -0.701169
  20 H     1.0000    0     1.008   -5.671794   -1.671014   -0.701724
  21 H     1.0000    0     1.008   -3.733864    0.000451   -2.868705

--------------------------------
INTERNAL COORDINATES (ANGSTROEM)
--------------------------------
 C      0   0   0     0.000000000000     0.00000000     0.00000000
 N      1   0   0     1.449426864149     0.00000000     0.00000000
 C      2   1   0     1.456953776629   113.76479596     0.00000000
 C      3   2   1     1.538039137440   113.28549884   283.52332425
 N      4   3   2     1.456954480938   113.28951721   305.87627085
 C      5   4   3     1.456950004939   109.76714745    52.25321733
 C      2   1   3     1.456952673197   113.76286893   233.31095347
 C      5   4   3     1.449431792120   113.76552790   283.48519636
 H      1   2   3     1.089160166063   108.37447031   184.53563528
 H      1   2   3     1.098305044684   114.53008599    63.34938584
 H      1   2   3     1.089086598244   108.37394523   302.15304330
 H      3   2   1     1.091159417347   108.69659946    46.08581078
 H      3   2   1     1.094705370800   107.10083230   162.66325923
 H      4   3   2     1.094707777275   109.51388084    65.36102594
 H      4   3   2     1.091156268063   109.97142131   184.02288240
 H      6   5   4     1.094710770008   107.10110817    68.60311763
 H      6   5   4     1.091158906446   108.69641056   185.18069517
 H      7   2   1     1.091161350281   108.69678386   313.91575424
 H      7   2   1     1.094705170854   107.09947169   197.33714664
 H      8   5   4     1.089080040650   108.37194688   302.14479789
 H      8   5   4     1.089078037523   108.37286284   184.53205396
 H      8   5   4     1.098297669970   114.53418519    63.33781130

---------------------------
INTERNAL COORDINATES (A.U.)
---------------------------
 C      0   0   0     0.000000000000     0.00000000     0.00000000
 N      1   0   0     2.739019824390     0.00000000     0.00000000
 C      2   1   0     2.753243627611   113.76479596     0.00000000
 C      3   2   1     2.906472753013   113.28549884   283.52332425
 N      4   3   2     2.753244958562   113.28951721   305.87627085
 C      5   4   3     2.753236500149   109.76714745    52.25321733
 C      2   1   3     2.753241542427   113.76286893   233.31095347
 C      5   4   3     2.739029136905   113.76552790   283.48519636
 H      1   2   3     2.058214429835   108.37447031   184.53563528
 H      1   2   3     2.075495745956   114.53008599    63.34938584
 H      1   2   3     2.058075406804   108.37394523   302.15304330
 H      3   2   1     2.061992467235   108.69659946    46.08581078
 H      3   2   1     2.068693348144   107.10083230   162.66325923
 H      4   3   2     2.068697895723   109.51388084    65.36102594
 H      4   3   2     2.061986515951   109.97142131   184.02288240
 H      6   5   4     2.068703551168   107.10110817    68.60311763
 H      6   5   4     2.061991501772   108.69641056   185.18069517
 H      7   2   1     2.061996119952   108.69678386   313.91575424
 H      7   2   1     2.068692970301   107.09947169   197.33714664
 H      8   5   4     2.058063014749   108.37194688   302.14479789
 H      8   5   4     2.058059229386   108.37286284   184.53205396
 H      8   5   4     2.075481809768   114.53418519    63.33781130

---------------------
BASIS SET INFORMATION
---------------------
There are 3 groups of distinct atoms

 Group   1 Type C   : 7s4p1d contracted to 3s2p1d pattern {511/31/1}
 Group   2 Type N   : 7s4p1d contracted to 3s2p1d pattern {511/31/1}
 Group   3 Type H   : 4s contracted to 2s pattern {31}

Atom   0C    basis set group =>   1
Atom   1N    basis set group =>   2
Atom   2C    basis set group =>   1
Atom   3C    basis set group =>   1
Atom   4N    basis set group =>   2
Atom   5C    basis set group =>   1
Atom   6C    basis set group =>   1
Atom   7C    basis set group =>   1
Atom   8H    basis set group =>   3
Atom   9H    basis set group =>   3
Atom  10H    basis set group =>   3
Atom  11H    basis set group =>   3
Atom  12H    basis set group =>   3
Atom  13H    basis set group =>   3
Atom  14H    basis set group =>   3
Atom  15H    basis set group =>   3
Atom  16H    basis set group =>   3
Atom  17H    basis set group =>   3
Atom  18H    basis set group =>   3
Atom  19H    basis set group =>   3
Atom  20H    basis set group =>   3
Atom  21H    basis set group =>   3
---------------------------------
AUXILIARY/J BASIS SET INFORMATION
---------------------------------
There are 3 groups of distinct atoms

 Group   1 Type C   : 12s5p4d2f1g contracted to 6s4p3d1f1g pattern {711111/2111/211/2/1}
 Group   2 Type N   : 12s5p4d2f1g contracted to 6s4p3d1f1g pattern {711111/2111/211/2/1}
 Group   3 Type H   : 5s2p1d contracted to 3s1p1d pattern {311/2/1}

Atom   0C    basis set group =>   1
Atom   1N    basis set group =>   2
Atom   2C    basis set group =>   1
Atom   3C    basis set group =>   1
Atom   4N    basis set group =>   2
Atom   5C    basis set group =>   1
Atom   6C    basis set group =>   1
Atom   7C    basis set group =>   1
Atom   8H    basis set group =>   3
Atom   9H    basis set group =>   3
Atom  10H    basis set group =>   3
Atom  11H    basis set group =>   3
Atom  12H    basis set group =>   3
Atom  13H    basis set group =>   3
Atom  14H    basis set group =>   3
Atom  15H    basis set group =>   3
Atom  16H    basis set group =>   3
Atom  17H    basis set group =>   3
Atom  18H    basis set group =>   3
Atom  19H    basis set group =>   3
Atom  20H    basis set group =>   3
Atom  21H    basis set group =>   3
------------------------------------------------------------------------------
                             ORCA STARTUP CALCULATIONS
                           -- RI-GTO INTEGRALS CHOSEN --
------------------------------------------------------------------------------
------------------------------------------------------------------------------
                   ___                                                        
                  /   \      - P O W E R E D   B Y -                         
                 /     \                                                     
                 |  |  |   _    _      __       _____    __    __             
                 |  |  |  | |  | |    /  \     |  _  \  |  |  /  |          
                  \  \/   | |  | |   /    \    | | | |  |  | /  /          
                 / \  \   | |__| |  /  /\  \   | |_| |  |  |/  /          
                |  |  |   |  __  | /  /__\  \  |    /   |      \           
                |  |  |   | |  | | |   __   |  |    \   |  |\   \          
                \     /   | |  | | |  |  |  |  | |\  \  |  | \   \       
                 \___/    |_|  |_| |__|  |__|  |_| \__\ |__|  \__/        
                                                                              
                      - O R C A' S   B I G   F R I E N D -                    
                                      &                                       
                       - I N T E G R A L  F E E D E R -                       
                                                                              
 v1 FN, 2020, v2 2021, v3 2022-2024                                           
------------------------------------------------------------------------------


----------------------
SHARK INTEGRAL PACKAGE
----------------------

Number of atoms                             ...     22
Number of basis functions                   ...    140
Number of shells                            ...     76
Maximum angular momentum                    ...      2
Integral batch strategy                     ... SHARK/LIBINT Hybrid
RI-J (if used) integral strategy            ... SPLIT-RIJ (Revised 2003 algorithm where possible)
Printlevel                                  ...      1
Contraction scheme used                     ... SEGMENTED contraction
Prescreening option                         ... SCHWARTZ
   Thresh                                   ... 1.000e-09
   Tcut                                     ... 1.000e-10
   Tpresel                                  ... 1.000e-10 
Coulomb Range Separation                    ... NOT USED
Exchange Range Separation                   ... NOT USED
Multipole approximations                    ... NOT USED
Finite Nucleus Model                        ... NOT USED
CABS basis                                  ... NOT available
Auxiliary Coulomb fitting basis             ... AVAILABLE
   # of basis functions in Aux-J            ...    546
   # of shells in Aux-J                     ...    190
   Maximum angular momentum in Aux-J        ...      4
Auxiliary J/K fitting basis                 ... NOT available
Auxiliary Correlation fitting basis         ... NOT available
Auxiliary 'external' fitting basis          ... NOT available

Checking pre-screening integrals            ... done (  0.0 sec) Dimension = 76
Check shell pair data                       ... done (  0.0 sec)
Shell pair information
Shell pair cut-off parameter TPreSel        ...   1.0e-10
Total number of shell pairs                 ...      2926
Shell pairs after pre-screening             ...      2849
Total number of primitive shell pairs       ...     11774
Primitive shell pairs kept                  ...      8285
          la=0 lb=0:   1324 shell pairs
          la=1 lb=0:    822 shell pairs
          la=1 lb=1:    136 shell pairs
          la=2 lb=0:    404 shell pairs
          la=2 lb=1:    128 shell pairs
          la=2 lb=2:     35 shell pairs

Calculating one electron integrals          ... done (  0.0 sec)
Calculating RI/J V-Matrix + Cholesky decomp.... done (  0.1 sec)
Calculating Nuclear repulsion               ... done (  0.0 sec) ENN=    428.735010984528 Eh

Diagonalization of the overlap matrix:
Smallest eigenvalue                        ... 1.405e-03
Time for diagonalization                   ...    0.002 sec
Threshold for overlap eigenvalues          ... 1.000e-07
Number of eigenvalues below threshold      ... 0
Time for construction of square roots      ...    0.013 sec
Total time needed                          ...    0.024 sec

-------------------
DFT GRID GENERATION
-------------------

General Integration Accuracy     IntAcc      ... 4.159
Radial Grid Type                 RadialGrid  ... OptM3 with GC (2021)
Angular Grid (max. ang.)         AngularGrid ... 3 (Lebedev-194)
Angular grid pruning method      GridPruning ... 4 (adaptive)
Weight generation scheme         WeightScheme... mBecke (2022)
Basis function cutoff            BFCut       ... 1.0000e-10
Integration weight cutoff        WCut        ... 1.0000e-14
Partially contracted basis set               ... off
Rotationally invariant grid construction     ... off
Angular grids for H and He will be reduced by one unit

Total number of grid points                  ...    45232
Total number of batches                      ...      716
Average number of points per batch           ...       63
Average number of grid points per atom       ...     2056
Initializing property integral containers    ... done (  0.0 sec)

SHARK setup successfully completed in   0.9 seconds

Maximum memory used throughout the entire STARTUP-calculation: 22.2 MB
-------------------------------------------------------------------------------
                                 ORCA GUESS
                   Start orbitals & Density for SCF / CASSCF
-------------------------------------------------------------------------------

------------
SCF SETTINGS
------------
Hamiltonian:
 Density Functional     Method          .... DFT(GTOs)
 Exchange Functional    Exchange        .... PBE
   PBE kappa parameter   XKappa         ....  0.804000
   PBE mue parameter    XMuePBE         ....  0.219520
 Correlation Functional Correlation     .... PBE
   PBE beta parameter  CBetaPBE         ....  0.066725
 LDA part of GGA corr.  LDAOpt          .... PW91-LDA
 Gradients option       PostSCFGGA      .... off
   NL short-range parameter             ....  6.400000
 RI-approximation to the Coulomb term is turned on
   Number of AuxJ basis functions       .... 546


General Settings:
 Integral files         IntName         .... sp
 Hartree-Fock type      HFTyp           .... RHF
 Total Charge           Charge          ....    0
 Multiplicity           Mult            ....    1
 Number of Electrons    NEL             ....   64
 Basis Dimension        Dim             ....  140
 Nuclear Repulsion      ENuc            ....    428.7350109845 Eh

Convergence Acceleration:
 AO-DIIS                CNVDIIS         .... on
   Start iteration      DIISMaxIt       ....    12
   Startup error        DIISStart       ....  0.200000
   # of expansion vecs  DIISMaxEq       ....     5
   Bias factor          DIISBfac        ....   1.050
   Max. coefficient     DIISMaxC        ....  10.000
 MO-DIIS                CNVKDIIS        .... off
 Trust-Rad. Augm. Hess. CNVTRAH         .... auto
   Auto Start mean grad. ratio tolernc. ....  1.125000
   Auto Start start iteration           ....    50
   Auto Start num. interpolation iter.  ....    10
   Max. Number of Micro iterations      ....    24
   Max. Number of Macro iterations      .... Maxiter - #DIIS iter
   Number of Davidson start vectors     ....     2
   Converg. threshold    (grad. norm)   ....   1.000e-04
   Grad. Scal. Fac. for Micro threshold ....   0.100
   Minimum threshold for Micro iter.    ....   1.000e-02
   NR start threshold (gradient norm)   ....   1.000e-04
   Initial trust radius                 ....   0.400
   Minimum AH scaling param. (alpha)    ....   1.000
   Maximum AH scaling param. (alpha)    .... 1000.000
   Quad. conv. algorithm                .... NR
   White noise on init. David. guess    .... on
   Maximum white noise                  ....   0.010
   Pseudo random numbers                .... off
   Inactive MOs                         .... canonical
   Orbital update algorithm             .... Taylor
   Preconditioner                       .... Diag
   Full preconditioner red. dimension   ....   250
 SOSCF                  CNVSOSCF        .... on
   Start iteration      SOSCFMaxIt      ....   150
   Startup grad/error   SOSCFStart      ....  0.003300
   Hessian update       SOSCFHessUp     .... L-BFGS
 Level Shifting         CNVShift        .... on
   Level shift para.    LevelShift      ....    0.2500
   Turn off err/grad.   ShiftErr        ....    0.0010
 Zerner damping         CNVZerner       .... off
 Static damping         CNVDamp         .... on
   Fraction old density DampFac         ....    0.7000
   Max. Damping (<1)    DampMax         ....    0.9800
   Min. Damping (>=0)   DampMin         ....    0.0000
   Turn off err/grad.   DampErr         ....    0.1000

SCF Procedure:
 Maximum # iterations   MaxIter         ....   125
 SCF integral mode      SCFMode         .... Direct
   Integral package                     .... SHARK and LIBINT hybrid scheme
 Reset frequency        DirectResetFreq ....    20
 Integral Threshold     Thresh          ....  1.000e-09 Eh
 Primitive CutOff       TCut            ....  1.000e-10 Eh

Convergence Tolerance:
 Convergence Check Mode ConvCheckMode   .... Total+1el-Energy
 Convergence forced     ConvForced      .... 0
 Energy Change          TolE            ....  1.000e-05 Eh
 1-El. energy change                    ....  1.000e-02 Eh
 Orbital Gradient       TolG            ....  1.000e-04
 Orbital Rotation angle TolX            ....  1.000e-04
 DIIS Error             TolErr          ....  5.000e-04

------------------------------
INITIAL GUESS: MODEL POTENTIAL
------------------------------
Loading Hartree-Fock densities                     ... done
Calculating cut-offs                               ... done
Initializing the effective Hamiltonian             ... done
Setting up the integral package (SHARK)            ... done
Starting the Coulomb interaction                   ... done (   0.2 sec)
Making the grid                                    ... done (   0.3 sec)
Mapping shells                                     ... done
Starting the XC term evaluation                    ... done (   0.2 sec)
  promolecular density results
     # of electrons  =     63.975330480
     EX              =    -47.949346683
     EC              =     -2.129396899
     EX+EC           =    -50.078743583
Transforming the Hamiltonian                       ... done (   0.0 sec)
Diagonalizing the Hamiltonian                      ... done (   0.0 sec)
Back transforming the eigenvectors                 ... done (   0.0 sec)
Now organizing SCF variables                       ... done
                      ------------------
                      INITIAL GUESS DONE (   0.7 sec)
                      ------------------
             **** ENERGY FILE WAS UPDATED (sp.en.tmp) ****
Finished Guess after   0.8 sec
Maximum memory used throughout the entire GUESS-calculation: 17.0 MB

-------------------------------------------------------------------------------------------
                                      ORCA LEAN-SCF
                              memory conserving SCF solver
-------------------------------------------------------------------------------------------

----------------------------------------D-I-I-S--------------------------------------------
Iteration    Energy (Eh)           Delta-E    RMSDP     MaxDP     DIISErr   Damp  Time(sec)
-------------------------------------------------------------------------------------------
               ***  Starting incremental Fock matrix formation  ***
    1    -345.5988418793626238     0.00e+00  4.57e-03  6.52e-02  1.32e-01  0.700   1.1
    2    -345.6922486776274468    -9.34e-02  3.39e-03  3.83e-02  6.37e-02  0.700   1.1
                               ***Turning on AO-DIIS***
    3    -345.7248456675100101    -3.26e-02  1.39e-03  1.56e-02  1.84e-02  0.700   1.1
    4    -345.7441962367201427    -1.94e-02  2.05e-03  2.21e-02  9.76e-03  0.000   1.2
    5    -345.7882015427236979    -4.40e-02  6.11e-04  9.16e-03  5.28e-03  0.000   1.4
                              *** Initializing SOSCF ***
---------------------------------------S-O-S-C-F--------------------------------------
Iteration    Energy (Eh)           Delta-E    RMSDP     MaxDP     MaxGrad    Time(sec)
--------------------------------------------------------------------------------------
    6    -345.7886983937692662    -4.97e-04  2.38e-04  3.38e-03  1.68e-03     0.9
               *** Restarting incremental Fock matrix formation ***
    7    -345.7887498553361070    -5.15e-05  1.96e-04  2.20e-03  3.56e-04     1.0
    8    -345.7887522276380992    -2.37e-06  4.59e-05  7.41e-04  3.89e-04     1.0
                 **** Energy Check signals convergence ****

               *****************************************************
               *                     SUCCESS                       *
               *           SCF CONVERGED AFTER   8 CYCLES          *
               *****************************************************

             **** ENERGY FILE WAS UPDATED (sp.en.tmp) ****

----------------
TOTAL SCF ENERGY
----------------

Total Energy       :       -345.78875222763810 Eh           -9409.39031 eV

Components:
Nuclear Repulsion  :        428.73501098452806 Eh           11666.47276 eV
Electronic Energy  :       -774.52376321216616 Eh          -21075.86307 eV
One Electron Energy:      -1316.55976043317150 Eh          -35825.41241 eV
Two Electron Energy:        542.03599722100535 Eh           14749.54934 eV

Virial components:
Potential Energy   :       -688.46672948129708 Eh          -18734.13213 eV
Kinetic Energy     :        342.67797725365904 Eh            9324.74182 eV
Virial Ratio       :          2.00907783744643

DFT components:
N(Alpha)           :       32.001202567439 electrons
N(Beta)            :       32.001202567439 electrons
N(Total)           :       64.002405134878 electrons
E(X)               :      -49.066501590680 Eh       
E(C)               :       -2.129865340375 Eh       
E(XC)              :      -51.196366931056 Eh       

---------------
SCF CONVERGENCE
---------------

  Last Energy change         ...    2.3723e-06  Tolerance :   1.0000e-05
  Last MAX-Density change    ...    7.4101e-04  Tolerance :   1.0000e-03
  Last RMS-Density change    ...    4.5924e-05  Tolerance :   1.0000e-04
  Last DIIS Error            ...    1.6807e-03  Tolerance :   5.0000e-04
  Last Orbital Gradient      ...    3.8917e-04  Tolerance :   1.0000e-04
  Last Orbital Rotation      ...    3.2931e-04  Tolerance :   1.0000e-04


----------------
ORBITAL ENERGIES
----------------

  NO   OCC          E(Eh)            E(eV) 
   0   2.0000     -13.976668      -380.3245 
   1   2.0000     -13.976619      -380.3231 
   2   2.0000      -9.903172      -269.4790 
   3   2.0000      -9.903157      -269.4786 
   4   2.0000      -9.903110      -269.4773 
   5   2.0000      -9.903097      -269.4770 
   6   2.0000      -9.898826      -269.3608 
   7   2.0000      -9.898818      -269.3605 
   8   2.0000      -0.855698       -23.2847 
   9   2.0000      -0.811268       -22.0757 
  10   2.0000      -0.680100       -18.5065 
  11   2.0000      -0.650449       -17.6996 
  12   2.0000      -0.617954       -16.8154 
  13   2.0000      -0.573207       -15.5978 
  14   2.0000      -0.548177       -14.9167 
  15   2.0000      -0.486126       -13.2282 
  16   2.0000      -0.442176       -12.0322 
  17   2.0000      -0.423360       -11.5202 
  18   2.0000      -0.414082       -11.2677 
  19   2.0000      -0.401101       -10.9145 
  20   2.0000      -0.398042       -10.8313 
  21   2.0000      -0.389568       -10.6007 
  22   2.0000      -0.347758        -9.4630 
  23   2.0000      -0.343302        -9.3417 
  24   2.0000      -0.335508        -9.1296 
  25   2.0000      -0.328657        -8.9432 
  26   2.0000      -0.326740        -8.8910 
  27   2.0000      -0.298992        -8.1360 
  28   2.0000      -0.294510        -8.0140 
  29   2.0000      -0.293009        -7.9732 
  30   2.0000      -0.193090        -5.2542 
  31   2.0000      -0.136834        -3.7234 
  32   0.0000       0.027887         0.7588 
  33   0.0000       0.049052         1.3348 
  34   0.0000       0.068417         1.8617 
  35   0.0000       0.074423         2.0252 
  36   0.0000       0.088093         2.3971 
  37   0.0000       0.090853         2.4722 
  38   0.0000       0.094301         2.5661 
  39   0.0000       0.109464         2.9787 
  40   0.0000       0.111144         3.0244 
  41   0.0000       0.120323         3.2741 
  42   0.0000       0.124668         3.3924 
*Only the first 10 virtual orbitals were printed.

                    ********************************
                    * MULLIKEN POPULATION ANALYSIS *
                    ********************************

-----------------------
MULLIKEN ATOMIC CHARGES
-----------------------
   0 C :   -0.180972
   1 N :   -0.280981
   2 C :   -0.073740
   3 C :   -0.073754
   4 N :   -0.281009
   5 C :   -0.073772
   6 C :   -0.073731
   7 C :   -0.180904
   8 H :    0.101052
   9 H :    0.082843
  10 H :    0.101050
  11 H :    0.079476
  12 H :    0.082772
  13 H :    0.082788
  14 H :    0.079472
  15 H :    0.082790
  16 H :    0.079477
  17 H :    0.079475
  18 H :    0.082768
  19 H :    0.101042
  20 H :    0.101040
  21 H :    0.082820
Sum of atomic charges:    0.0000000

--------------------------------
MULLIKEN REDUCED ORBITAL CHARGES
--------------------------------
  0 C s       :     3.090657  s :     3.090657
      pz      :     0.977116  p :     3.046041
      px      :     0.985371
      py      :     1.083554
      dz2     :     0.017607  d :     0.044274
      dxz     :     0.009572
      dyz     :     0.002152
      dx2y2   :     0.004130
      dxy     :     0.010812

  1 N s       :     3.479186  s :     3.479186
      pz      :     1.503858  p :     3.773382
      px      :     1.206142
      py      :     1.063382
      dz2     :     0.005466  d :     0.028413
      dxz     :     0.005231
      dyz     :     0.003974
      dx2y2   :     0.005051
      dxy     :     0.008690

  2 C s       :     3.027407  s :     3.027407
      pz      :     1.067094  p :     2.996186
      px      :     0.980223
      py      :     0.948869
      dz2     :     0.010606  d :     0.050148
      dxz     :     0.011722
      dyz     :     0.005937
      dx2y2   :     0.007638
      dxy     :     0.014245

  3 C s       :     3.027397  s :     3.027397
      pz      :     1.067107  p :     2.996210
      px      :     0.980247
      py      :     0.948856
      dz2     :     0.010604  d :     0.050147
      dxz     :     0.011724
      dyz     :     0.005940
      dx2y2   :     0.007635
      dxy     :     0.014243

  4 N s       :     3.479150  s :     3.479150
      pz      :     1.504159  p :     3.773448
      px      :     1.205909
      py      :     1.063380
      dz2     :     0.005461  d :     0.028411
      dxz     :     0.005233
      dyz     :     0.003974
      dx2y2   :     0.005053
      dxy     :     0.008689

  5 C s       :     3.027411  s :     3.027411
      pz      :     1.067108  p :     2.996214
      px      :     0.980247
      py      :     0.948859
      dz2     :     0.010604  d :     0.050148
      dxz     :     0.011725
      dyz     :     0.005940
      dx2y2   :     0.007636
      dxy     :     0.014244

  6 C s       :     3.027408  s :     3.027408
      pz      :     1.067087  p :     2.996175
      px      :     0.980222
      py      :     0.948866
      dz2     :     0.010606  d :     0.050148
      dxz     :     0.011722
      dyz     :     0.005937
      dx2y2   :     0.007638
      dxy     :     0.014245

  7 C s       :     3.090590  s :     3.090590
      pz      :     0.977220  p :     3.046039
      px      :     0.985249
      py      :     1.083570
      dz2     :     0.017610  d :     0.044275
      dxz     :     0.009566
      dyz     :     0.002151
      dx2y2   :     0.004134
      dxy     :     0.010814

  8 H s       :     0.898948  s :     0.898948

  9 H s       :     0.917157  s :     0.917157

 10 H s       :     0.898950  s :     0.898950

 11 H s       :     0.920524  s :     0.920524

 12 H s       :     0.917228  s :     0.917228

 13 H s       :     0.917212  s :     0.917212

 14 H s       :     0.920528  s :     0.920528

 15 H s       :     0.917210  s :     0.917210

 16 H s       :     0.920523  s :     0.920523

 17 H s       :     0.920525  s :     0.920525

 18 H s       :     0.917232  s :     0.917232

 19 H s       :     0.898958  s :     0.898958

 20 H s       :     0.898960  s :     0.898960

 21 H s       :     0.917180  s :     0.917180


------------------------
MULLIKEN OVERLAP CHARGES
------------------------
B(  0-C ,  1-N ) :   0.7637 B(  0-C ,  2-C ) :  -0.1365 B(  0-C ,  6-C ) :  -0.1365 
B(  0-C ,  8-H ) :   0.7547 B(  0-C ,  9-H ) :   0.7050 B(  0-C , 10-H ) :   0.7547 
B(  1-N ,  2-C ) :   0.7939 B(  1-N ,  3-C ) :  -0.1333 B(  1-N ,  5-C ) :  -0.1333 
B(  1-N ,  6-C ) :   0.7939 B(  1-N ,  8-H ) :  -0.0642 B(  1-N ,  9-H ) :  -0.0921 
B(  1-N , 10-H ) :  -0.0642 B(  1-N , 11-H ) :  -0.0581 B(  1-N , 12-H ) :  -0.0772 
B(  1-N , 17-H ) :  -0.0581 B(  1-N , 18-H ) :  -0.0772 B(  2-C ,  3-C ) :   0.7169 
B(  2-C ,  4-N ) :  -0.1333 B(  2-C ,  6-C ) :  -0.1250 B(  2-C , 11-H ) :   0.6548 
B(  2-C , 12-H ) :   0.6873 B(  2-C , 13-H ) :  -0.0652 B(  3-C ,  4-N ) :   0.7939 
B(  3-C ,  5-C ) :  -0.1250 B(  3-C ,  7-C ) :  -0.1365 B(  3-C , 12-H ) :  -0.0651 
B(  3-C , 13-H ) :   0.6873 B(  3-C , 14-H ) :   0.6547 B(  4-N ,  5-C ) :   0.7939 
B(  4-N ,  6-C ) :  -0.1333 B(  4-N ,  7-C ) :   0.7638 B(  4-N , 13-H ) :  -0.0772 
B(  4-N , 14-H ) :  -0.0581 B(  4-N , 15-H ) :  -0.0772 B(  4-N , 16-H ) :  -0.0581 
B(  4-N , 19-H ) :  -0.0642 B(  4-N , 20-H ) :  -0.0642 B(  4-N , 21-H ) :  -0.0921 
B(  5-C ,  6-C ) :   0.7169 B(  5-C ,  7-C ) :  -0.1365 B(  5-C , 15-H ) :   0.6873 
B(  5-C , 16-H ) :   0.6547 B(  5-C , 18-H ) :  -0.0651 B(  6-C , 15-H ) :  -0.0652 
B(  6-C , 17-H ) :   0.6548 B(  6-C , 18-H ) :   0.6873 B(  7-C , 19-H ) :   0.7548 
B(  7-C , 20-H ) :   0.7548 B(  7-C , 21-H ) :   0.7050 B(  8-H ,  9-H ) :  -0.0853 
B(  9-H , 10-H ) :  -0.0853 B( 19-H , 21-H ) :  -0.0853 B( 20-H , 21-H ) :  -0.0853 



                     *******************************
                     * LOEWDIN POPULATION ANALYSIS *
                     *******************************

----------------------
LOEWDIN ATOMIC CHARGES
----------------------
   0 C :   -0.261265
   1 N :   -0.149149
   2 C :   -0.175681
   3 C :   -0.175678
   4 N :   -0.149148
   5 C :   -0.175680
   6 C :   -0.175682
   7 C :   -0.261263
   8 H :    0.113959
   9 H :    0.086955
  10 H :    0.113964
  11 H :    0.112751
  12 H :    0.110695
  13 H :    0.110696
  14 H :    0.112756
  15 H :    0.110695
  16 H :    0.112755
  17 H :    0.112750
  18 H :    0.110694
  19 H :    0.113960
  20 H :    0.113962
  21 H :    0.086955

-------------------------------
LOEWDIN REDUCED ORBITAL CHARGES
-------------------------------
  0 C s       :     2.944722  s :     2.944722
      pz      :     1.046333  p :     3.214728
      px      :     1.034026
      py      :     1.134369
      dz2     :     0.041605  d :     0.101815
      dxz     :     0.023022
      dyz     :     0.003558
      dx2y2   :     0.008753
      dxy     :     0.024878

  1 N s       :     3.140650  s :     3.140650
      pz      :     1.534576  p :     3.945017
      px      :     1.263105
      py      :     1.147337
      dz2     :     0.010752  d :     0.063481
      dxz     :     0.011699
      dyz     :     0.007229
      dx2y2   :     0.011943
      dxy     :     0.021858

  2 C s       :     2.911523  s :     2.911523
      pz      :     1.101310  p :     3.146401
      px      :     1.045869
      py      :     0.999222
      dz2     :     0.024507  d :     0.117757
      dxz     :     0.030957
      dyz     :     0.011505
      dx2y2   :     0.016502
      dxy     :     0.034286

  3 C s       :     2.911517  s :     2.911517
      pz      :     1.101326  p :     3.146404
      px      :     1.045878
      py      :     0.999200
      dz2     :     0.024502  d :     0.117757
      dxz     :     0.030962
      dyz     :     0.011513
      dx2y2   :     0.016497
      dxy     :     0.034283

  4 N s       :     3.140620  s :     3.140620
      pz      :     1.534822  p :     3.945050
      px      :     1.262895
      py      :     1.147333
      dz2     :     0.010740  d :     0.063478
      dxz     :     0.011702
      dyz     :     0.007227
      dx2y2   :     0.011950
      dxy     :     0.021858

  5 C s       :     2.911517  s :     2.911517
      pz      :     1.101325  p :     3.146405
      px      :     1.045878
      py      :     0.999203
      dz2     :     0.024502  d :     0.117758
      dxz     :     0.030963
      dyz     :     0.011512
      dx2y2   :     0.016497
      dxy     :     0.034284

  6 C s       :     2.911526  s :     2.911526
      pz      :     1.101308  p :     3.146399
      px      :     1.045870
      py      :     0.999222
      dz2     :     0.024508  d :     0.117757
      dxz     :     0.030957
      dyz     :     0.011505
      dx2y2   :     0.016502
      dxy     :     0.034286

  7 C s       :     2.944707  s :     2.944707
      pz      :     1.046432  p :     3.214736
      px      :     1.033921
      py      :     1.134384
      dz2     :     0.041611  d :     0.101819
      dxz     :     0.023007
      dyz     :     0.003556
      dx2y2   :     0.008763
      dxy     :     0.024881

  8 H s       :     0.886041  s :     0.886041

  9 H s       :     0.913045  s :     0.913045

 10 H s       :     0.886036  s :     0.886036

 11 H s       :     0.887249  s :     0.887249

 12 H s       :     0.889305  s :     0.889305

 13 H s       :     0.889304  s :     0.889304

 14 H s       :     0.887244  s :     0.887244

 15 H s       :     0.889305  s :     0.889305

 16 H s       :     0.887245  s :     0.887245

 17 H s       :     0.887250  s :     0.887250

 18 H s       :     0.889306  s :     0.889306

 19 H s       :     0.886040  s :     0.886040

 20 H s       :     0.886038  s :     0.886038

 21 H s       :     0.913045  s :     0.913045


---------------------------------
LOEWDIN BOND ORDERS (THRESH 0.050000)
---------------------------------
B(  0-C ,  1-N ) :   1.1381 B(  0-C ,  2-C ) :   0.0614 B(  0-C ,  6-C ) :   0.0614 
B(  0-C ,  8-H ) :   0.9391 B(  0-C ,  9-H ) :   0.9278 B(  0-C , 10-H ) :   0.9391 
B(  1-N ,  2-C ) :   1.1133 B(  1-N ,  3-C ) :   0.0636 B(  1-N ,  5-C ) :   0.0636 
B(  1-N ,  6-C ) :   1.1133 B(  2-C ,  3-C ) :   1.0794 B(  2-C ,  4-N ) :   0.0636 
B(  2-C ,  6-C ) :   0.0616 B(  2-C , 11-H ) :   0.9025 B(  2-C , 12-H ) :   0.9018 
B(  3-C ,  4-N ) :   1.1132 B(  3-C ,  5-C ) :   0.0616 B(  3-C ,  7-C ) :   0.0614 
B(  3-C , 13-H ) :   0.9018 B(  3-C , 14-H ) :   0.9025 B(  4-N ,  5-C ) :   1.1133 
B(  4-N ,  6-C ) :   0.0636 B(  4-N ,  7-C ) :   1.1381 B(  5-C ,  6-C ) :   1.0794 
B(  5-C ,  7-C ) :   0.0614 B(  5-C , 15-H ) :   0.9018 B(  5-C , 16-H ) :   0.9025 
B(  6-C , 17-H ) :   0.9025 B(  6-C , 18-H ) :   0.9018 B(  7-C , 19-H ) :   0.9391 
B(  7-C , 20-H ) :   0.9391 B(  7-C , 21-H ) :   0.9278 

------------------------------------------
LOEWDIN REDUCED ORBITAL POPULATIONS PER MO
-------------------------------------------
THRESHOLD FOR PRINTING IS 0.1%%
                      0         1         2         3         4         5   
                 -13.97667 -13.97662  -9.90317  -9.90316  -9.90311  -9.90310
                   2.00000   2.00000   2.00000   2.00000   2.00000   2.00000
                  --------  --------  --------  --------  --------  --------
 1 N  s              50.2      49.6       0.0       0.0       0.0       0.0
 2 C  s               0.0       0.0      27.0      23.5      26.7      22.5
 3 C  s               0.0       0.0      26.3      22.9      27.3      23.2
 4 N  s              49.6      50.2       0.0       0.0       0.0       0.0
 5 C  s               0.0       0.0      23.6      27.2      22.3      26.4
 6 C  s               0.0       0.0      22.7      26.1      23.3      27.5

                      6         7         8         9        10        11   
                  -9.89883  -9.89882  -0.85570  -0.81127  -0.68010  -0.65045
                   2.00000   2.00000   2.00000   2.00000   2.00000   2.00000
                  --------  --------  --------  --------  --------  --------
 0 C  s              94.2       5.5       3.4       5.8       0.0      14.5
 0 C  pz              0.0       0.0       1.0       1.5       0.0       0.2
 0 C  px              0.0       0.0       1.4       1.6       0.0       0.1
 0 C  py              0.0       0.0       0.0       0.0       0.4       0.0
 0 C  dxz             0.0       0.0       0.1       0.2       0.0       0.0
 1 N  s               0.0       0.0      17.4      21.4       0.0       1.1
 1 N  pz              0.1       0.0       0.6       0.8       0.0       1.9
 1 N  px              0.1       0.0       0.7       0.1       0.0       7.3
 1 N  py              0.0       0.0       0.0       0.0       7.6       0.0
 1 N  dxy             0.0       0.0       0.0       0.0       0.2       0.0
 2 C  s               0.0       0.0       7.0       2.6      13.4       4.3
 2 C  pz              0.0       0.0       0.4       0.1       0.7       0.1
 2 C  px              0.0       0.0       0.1       2.6       0.5       1.5
 2 C  py              0.0       0.0       2.4       1.8       0.4       0.0
 2 C  dxy             0.0       0.0       0.1       0.1       0.0       0.0
 3 C  s               0.0       0.0       7.0       2.6      13.4       4.3
 3 C  pz              0.0       0.0       0.4       0.1       0.7       0.1
 3 C  px              0.0       0.0       0.1       2.6       0.5       1.5
 3 C  py              0.0       0.0       2.4       1.8       0.4       0.0
 3 C  dxy             0.0       0.0       0.1       0.1       0.0       0.0
 4 N  s               0.0       0.0      17.4      21.4       0.0       1.1
 4 N  pz              0.0       0.1       0.6       0.8       0.0       1.9
 4 N  px              0.0       0.1       0.7       0.1       0.0       7.3
 4 N  py              0.0       0.0       0.0       0.0       7.6       0.0
 4 N  dxy             0.0       0.0       0.0       0.0       0.2       0.0
 5 C  s               0.0       0.0       7.0       2.6      13.4       4.3
 5 C  pz              0.0       0.0       0.4       0.1       0.7       0.1
 5 C  px              0.0       0.0       0.1       2.6       0.5       1.5
 5 C  py              0.0       0.0       2.4       1.8       0.4       0.0
 5 C  dxy             0.0       0.0       0.1       0.1       0.0       0.0
 6 C  s               0.0       0.0       7.0       2.6      13.4       4.3
 6 C  pz              0.0       0.0       0.4       0.1       0.7       0.1
 6 C  px              0.0       0.0       0.1       2.6       0.5       1.5
 6 C  py              0.0       0.0       2.4       1.8       0.4       0.0
 6 C  dxy             0.0       0.0       0.1       0.1       0.0       0.0
 7 C  s               5.5      94.2       3.4       5.8       0.0      14.5
 7 C  pz              0.0       0.0       1.0       1.5       0.0       0.2
 7 C  px              0.0       0.0       1.4       1.6       0.0       0.1
 7 C  py              0.0       0.0       0.0       0.0       0.4       0.0
 7 C  dxz             0.0       0.0       0.1       0.2       0.0       0.0
 8 H  s               0.1       0.0       0.4       0.8       0.0       3.4
 9 H  s               0.1       0.0       0.5       0.8       0.0       2.6
10 H  s               0.1       0.0       0.4       0.8       0.0       3.4
11 H  s               0.0       0.0       0.9       0.4       3.2       0.7
12 H  s               0.0       0.0       1.1       0.3       2.6       1.1
13 H  s               0.0       0.0       1.1       0.3       2.6       1.1
14 H  s               0.0       0.0       0.9       0.4       3.2       0.7
15 H  s               0.0       0.0       1.1       0.3       2.6       1.1
16 H  s               0.0       0.0       0.9       0.4       3.2       0.7
17 H  s               0.0       0.0       0.9       0.4       3.2       0.7
18 H  s               0.0       0.0       1.1       0.3       2.6       1.1
19 H  s               0.0       0.1       0.4       0.8       0.0       3.4
20 H  s               0.0       0.1       0.4       0.8       0.0       3.4
21 H  s               0.0       0.1       0.5       0.8       0.0       2.6

                     12        13        14        15        16        17   
                  -0.61795  -0.57321  -0.54818  -0.48613  -0.44218  -0.42336
                   2.00000   2.00000   2.00000   2.00000   2.00000   2.00000
                  --------  --------  --------  --------  --------  --------
 0 C  s              14.6       0.0       4.6       2.7       0.7       0.0
 0 C  pz              0.3       0.0       2.1       1.7       8.9       0.0
 0 C  px              0.3       0.0       1.5       5.4       0.7       0.0
 0 C  py              0.0       1.3       0.0       0.0       0.0       6.8
 0 C  dxz             0.0       0.0       0.1       0.2       0.2       0.0
 1 N  s               0.9       0.0       6.4       2.5       1.1       0.0
 1 N  pz              3.2       0.0       0.4       2.0       0.2       0.0
 1 N  px              6.5       0.0       0.5       0.2       8.4       0.0
 1 N  py              0.0      13.3       0.0       0.0       0.0       3.0
 1 N  dyz             0.0       0.0       0.0       0.0       0.0       0.1
 1 N  dxy             0.0       0.2       0.0       0.0       0.0       0.0
 2 C  s               2.3       7.4       2.6       2.3       0.1       0.7
 2 C  pz              1.6       1.2       0.5       5.0       0.1       7.3
 2 C  px              0.1       2.9       1.8       0.5       2.4       4.1
 2 C  py              0.4       0.2       5.3       0.8       6.3       0.3
 2 C  dxy             0.0       0.0       0.1       0.1       0.0       0.0
 3 C  s               2.3       7.4       2.6       2.3       0.1       0.7
 3 C  pz              1.6       1.2       0.5       5.0       0.1       7.3
 3 C  px              0.1       2.9       1.8       0.5       2.4       4.1
 3 C  py              0.4       0.2       5.3       0.8       6.3       0.3
 3 C  dxy             0.0       0.0       0.1       0.1       0.0       0.0
 4 N  s               0.9       0.0       6.4       2.5       1.1       0.0
 4 N  pz              3.2       0.0       0.4       2.0       0.2       0.0
 4 N  px              6.5       0.0       0.5       0.2       8.4       0.0
 4 N  py              0.0      13.3       0.0       0.0       0.0       3.0
 4 N  dyz             0.0       0.0       0.0       0.0       0.0       0.1
 4 N  dxy             0.0       0.2       0.0       0.0       0.0       0.0
 5 C  s               2.3       7.4       2.6       2.3       0.1       0.7
 5 C  pz              1.6       1.2       0.5       5.0       0.1       7.3
 5 C  px              0.1       2.9       1.8       0.5       2.4       4.1
 5 C  py              0.4       0.2       5.3       0.8       6.3       0.3
 5 C  dxy             0.0       0.0       0.1       0.1       0.0       0.0
 6 C  s               2.3       7.4       2.6       2.3       0.1       0.7
 6 C  pz              1.6       1.2       0.5       5.0       0.1       7.3
 6 C  px              0.1       2.9       1.8       0.5       2.4       4.1
 6 C  py              0.4       0.2       5.3       0.8       6.3       0.3
 6 C  dxy             0.0       0.0       0.1       0.1       0.0       0.0
 7 C  s              14.6       0.0       4.6       2.7       0.7       0.0
 7 C  pz              0.3       0.0       2.1       1.7       8.9       0.0
 7 C  px              0.3       0.0       1.5       5.4       0.7       0.0
 7 C  py              0.0       1.3       0.0       0.0       0.0       6.8
 7 C  dxz             0.0       0.0       0.1       0.2       0.2       0.0
 8 H  s               4.0       0.2       2.3       2.7       0.3       1.6
 9 H  s               4.2       0.0       2.7       1.0       4.3       0.0
10 H  s               4.0       0.2       2.3       2.7       0.3       1.6
11 H  s               0.3       3.5       2.1       1.2       3.3       0.0
12 H  s               1.3       2.1       1.1       4.5       0.0       5.9
13 H  s               1.3       2.1       1.1       4.5       0.0       5.9
14 H  s               0.3       3.5       2.1       1.2       3.3       0.0
15 H  s               1.3       2.1       1.1       4.5       0.0       5.9
16 H  s               0.3       3.5       2.1       1.2       3.3       0.0
17 H  s               0.3       3.5       2.1       1.2       3.3       0.0
18 H  s               1.3       2.1       1.1       4.5       0.0       5.9
19 H  s               4.0       0.2       2.3       2.6       0.3       1.6
20 H  s               4.0       0.2       2.3       2.6       0.3       1.6
21 H  s               4.2       0.0       2.7       1.0       4.3       0.0

                     18        19        20        21        22        23   
                  -0.41408  -0.40110  -0.39804  -0.38957  -0.34776  -0.34330
                   2.00000   2.00000   2.00000   2.00000   2.00000   2.00000
                  --------  --------  --------  --------  --------  --------
 0 C  s               0.0       0.3       0.1       0.1       0.0       0.0
 0 C  pz              0.0       0.2       0.1      20.6       9.8       0.0
 0 C  px              0.0       1.7       8.5       1.0      11.3       0.0
 0 C  py             11.0       0.0       0.0       0.0       0.0       5.0
 0 C  dz2             0.0       0.0       0.0       0.0       0.3       0.0
 0 C  dxz             0.0       0.0       0.1       0.2       0.0       0.0
 0 C  dxy             0.0       0.0       0.0       0.0       0.0       0.2
 1 N  s               0.0       1.5       0.2       0.2       0.1       0.0
 1 N  pz              0.0       1.4      12.8       0.1       0.0       0.0
 1 N  px              0.0       0.4       0.5      12.1       0.0       0.0
 1 N  py             13.5       0.0       0.0       0.0       0.0       4.1
 1 N  dx2y2           0.0       0.1       0.0       0.0       0.1       0.0
 1 N  dxy             0.0       0.0       0.0       0.0       0.0       0.4
 2 C  s               0.3       1.1       0.0       0.1       0.1       0.6
 2 C  pz              0.2       1.0       8.5       0.3       2.7       0.0
 2 C  px              5.8       4.2       1.2       0.1       1.8       1.1
 2 C  py              2.8       6.5       0.1       1.1       0.5      10.1
 2 C  dz2             0.1       0.0       0.0       0.0       0.0       0.1
 2 C  dxy             0.1       0.3       0.0       0.0       0.0       0.1
 3 C  s               0.3       1.1       0.0       0.1       0.1       0.6
 3 C  pz              0.2       1.0       8.5       0.3       2.7       0.0
 3 C  px              5.8       4.2       1.2       0.1       1.8       1.1
 3 C  py              2.9       6.5       0.1       1.1       0.5      10.1
 3 C  dz2             0.1       0.0       0.0       0.0       0.0       0.1
 3 C  dxy             0.1       0.3       0.0       0.0       0.0       0.1
 4 N  s               0.0       1.5       0.2       0.2       0.1       0.0
 4 N  pz              0.0       1.4      12.8       0.1       0.0       0.0
 4 N  px              0.0       0.4       0.5      12.1       0.0       0.0
 4 N  py             13.5       0.0       0.0       0.0       0.0       4.1
 4 N  dx2y2           0.0       0.1       0.0       0.0       0.1       0.0
 4 N  dxy             0.0       0.0       0.0       0.0       0.0       0.4
 5 C  s               0.3       1.1       0.0       0.1       0.1       0.6
 5 C  pz              0.2       1.0       8.5       0.3       2.7       0.0
 5 C  px              5.8       4.2       1.2       0.1       1.8       1.1
 5 C  py              2.9       6.5       0.1       1.1       0.5      10.1
 5 C  dz2             0.1       0.0       0.0       0.0       0.0       0.1
 5 C  dxy             0.1       0.3       0.0       0.0       0.0       0.1
 6 C  s               0.3       1.1       0.0       0.1       0.1       0.6
 6 C  pz              0.2       1.0       8.5       0.3       2.7       0.0
 6 C  px              5.8       4.2       1.2       0.1       1.8       1.1
 6 C  py              2.8       6.5       0.1       1.1       0.5      10.1
 6 C  dz2             0.1       0.0       0.0       0.0       0.0       0.1
 6 C  dxy             0.1       0.3       0.0       0.0       0.0       0.1
 7 C  s               0.0       0.3       0.1       0.1       0.0       0.0
 7 C  pz              0.0       0.2       0.1      20.6       9.8       0.0
 7 C  px              0.0       1.7       8.5       1.0      11.4       0.0
 7 C  py             11.0       0.0       0.0       0.0       0.0       5.0
 7 C  dz2             0.0       0.0       0.0       0.0       0.3       0.0
 7 C  dxz             0.0       0.0       0.0       0.2       0.0       0.0
 7 C  dxy             0.0       0.0       0.0       0.0       0.0       0.2
 8 H  s               2.8       0.4       1.7       0.3       2.8       2.3
 9 H  s               0.0       0.2       0.1      10.6       9.8       0.0
10 H  s               2.8       0.4       1.7       0.3       2.8       2.3
11 H  s               0.1       8.2       0.0       0.1       0.4       5.3
12 H  s               0.6       0.2       2.0       0.3       0.7       0.5
13 H  s               0.6       0.2       2.0       0.3       0.8       0.5
14 H  s               0.1       8.2       0.0       0.1       0.4       5.3
15 H  s               0.6       0.2       2.0       0.3       0.8       0.5
16 H  s               0.1       8.2       0.0       0.1       0.4       5.3
17 H  s               0.1       8.2       0.0       0.1       0.4       5.3
18 H  s               0.6       0.2       2.0       0.3       0.8       0.5
19 H  s               2.8       0.4       1.7       0.3       2.8       2.3
20 H  s               2.8       0.4       1.7       0.3       2.8       2.3
21 H  s               0.0       0.2       0.1      10.6       9.8       0.0

                     24        25        26        27        28        29   
                  -0.33551  -0.32866  -0.32674  -0.29899  -0.29451  -0.29301
                   2.00000   2.00000   2.00000   2.00000   2.00000   2.00000
                  --------  --------  --------  --------  --------  --------
 0 C  s               0.0       0.0       0.4       0.0       0.2       0.0
 0 C  pz              0.0       0.0       0.3       0.0       3.8       0.0
 0 C  px              0.0       0.0      15.6       0.0       2.2       0.0
 0 C  py             18.3       7.6       0.0       4.4       0.0       1.8
 0 C  dz2             0.0       0.0       0.3       0.0       0.0       0.0
 0 C  dxy             0.4       0.2       0.0       0.2       0.0       0.2
 1 N  s               0.0       0.0       0.0       0.0       0.1       0.0
 1 N  pz              0.0       0.0       3.8       0.0       0.8       0.0
 1 N  px              0.0       0.0       4.3       0.0       5.9       0.0
 1 N  py              0.0       1.3       0.0       1.8       0.0      12.6
 1 N  dz2             0.0       0.0       0.2       0.0       0.1       0.0
 1 N  dxz             0.0       0.0       0.1       0.0       0.1       0.0
 1 N  dyz             0.0       0.2       0.0       0.1       0.0       0.0
 1 N  dx2y2           0.0       0.0       0.0       0.0       0.2       0.0
 1 N  dxy             0.1       0.0       0.0       0.0       0.0       0.3
 2 C  s               0.1       0.0       0.0       0.1       0.0       0.1
 2 C  pz              1.7       8.1       2.2       8.4       2.5       0.1
 2 C  px              2.6       6.4       2.6       1.7       5.7       0.1
 2 C  py              0.5       0.5       0.4       0.0       0.2       9.0
 2 C  dz2             0.0       0.0       0.0       0.3       0.4       0.0
 2 C  dxz             0.0       0.1       0.1       0.1       0.1       0.0
 2 C  dxy             0.1       0.0       0.0       0.0       0.0       0.6
 3 C  s               0.1       0.0       0.0       0.1       0.0       0.1
 3 C  pz              1.7       8.1       2.2       8.4       2.5       0.1
 3 C  px              2.6       6.4       2.6       1.7       5.7       0.1
 3 C  py              0.5       0.5       0.4       0.0       0.2       9.0
 3 C  dz2             0.0       0.0       0.0       0.3       0.4       0.0
 3 C  dxz             0.0       0.1       0.1       0.1       0.1       0.0
 3 C  dxy             0.1       0.0       0.0       0.0       0.0       0.6
 4 N  s               0.0       0.0       0.0       0.0       0.1       0.0
 4 N  pz              0.0       0.0       3.8       0.0       0.8       0.0
 4 N  px              0.0       0.0       4.3       0.0       5.9       0.0
 4 N  py              0.0       1.3       0.0       1.8       0.0      12.6
 4 N  dz2             0.0       0.0       0.2       0.0       0.1       0.0
 4 N  dxz             0.0       0.0       0.1       0.0       0.1       0.0
 4 N  dyz             0.0       0.2       0.0       0.1       0.0       0.0
 4 N  dx2y2           0.0       0.0       0.0       0.0       0.2       0.0
 4 N  dxy             0.1       0.0       0.0       0.0       0.0       0.3
 5 C  s               0.1       0.0       0.0       0.1       0.0       0.1
 5 C  pz              1.7       8.1       2.2       8.4       2.5       0.1
 5 C  px              2.6       6.4       2.6       1.7       5.7       0.1
 5 C  py              0.5       0.5       0.4       0.0       0.2       9.0
 5 C  dz2             0.0       0.0       0.0       0.3       0.4       0.0
 5 C  dxz             0.0       0.1       0.1       0.1       0.1       0.0
 5 C  dxy             0.1       0.0       0.0       0.0       0.0       0.6
 6 C  s               0.1       0.0       0.0       0.1       0.0       0.1
 6 C  pz              1.7       8.1       2.2       8.4       2.5       0.1
 6 C  px              2.6       6.4       2.6       1.7       5.7       0.1
 6 C  py              0.5       0.5       0.4       0.0       0.2       9.0
 6 C  dz2             0.0       0.0       0.0       0.3       0.4       0.0
 6 C  dxz             0.0       0.1       0.1       0.1       0.1       0.0
 6 C  dxy             0.1       0.0       0.0       0.0       0.0       0.6
 7 C  s               0.0       0.0       0.4       0.0       0.2       0.0
 7 C  pz              0.0       0.0       0.3       0.0       3.8       0.0
 7 C  px              0.0       0.0      15.6       0.0       2.2       0.0
 7 C  py             18.3       7.6       0.0       4.4       0.0       1.8
 7 C  dz2             0.0       0.0       0.3       0.0       0.0       0.0
 7 C  dxy             0.4       0.2       0.0       0.2       0.0       0.2
 8 H  s               7.5       2.9       3.0       2.3       0.3       1.3
 9 H  s               0.0       0.0       2.5       0.0       0.2       0.0
10 H  s               7.5       2.9       3.0       2.3       0.3       1.3
11 H  s               1.9       1.5       0.4       1.0       2.7       6.3
12 H  s               1.2       0.8       2.6       7.8       6.1       0.0
13 H  s               1.3       0.8       2.6       7.8       6.1       0.0
14 H  s               1.9       1.5       0.4       1.0       2.7       6.3
15 H  s               1.3       0.8       2.6       7.8       6.1       0.0
16 H  s               1.9       1.5       0.4       1.0       2.7       6.3
17 H  s               1.9       1.5       0.4       1.0       2.7       6.3
18 H  s               1.2       0.8       2.6       7.8       6.1       0.0
19 H  s               7.5       2.9       3.0       2.3       0.3       1.3
20 H  s               7.5       2.9       2.9       2.3       0.3       1.3
21 H  s               0.0       0.0       2.4       0.0       0.2       0.0

                     30        31        32        33        34        35   
                  -0.19309  -0.13683   0.02789   0.04905   0.06842   0.07442
                   2.00000   2.00000   0.00000   0.00000   0.00000   0.00000
                  --------  --------  --------  --------  --------  --------
 0 C  s               0.2       0.1       6.0       3.0       2.1       0.0
 0 C  pz              1.0       0.7       1.3       3.2       0.2       0.0
 0 C  px              0.2       0.0       0.5       0.2       5.7       0.0
 0 C  py              0.0       0.0       0.0       0.0       0.0       3.3
 0 C  dz2             0.7       0.7       0.0       0.0       0.1       0.0
 0 C  dx2y2           0.0       0.0       0.0       0.0       0.2       0.0
 1 N  s               1.8       2.6       0.6       0.1       1.0       0.0
 1 N  pz             26.7      22.0       0.4       0.3       0.3       0.0
 1 N  px              8.7       7.4       0.1       0.3       0.0       0.0
 1 N  py              0.0       0.0       0.0       0.0       0.0       0.9
 1 N  dx2y2           0.0       0.0       0.0       0.1       0.0       0.0
 1 N  dxy             0.0       0.0       0.0       0.0       0.0       0.1
 2 C  s               0.5       0.2       2.6       0.8       2.4       1.6
 2 C  pz              0.3       2.1       1.0       1.6       0.1       0.3
 2 C  px              0.6       1.9       0.0       2.4       0.3       0.3
 2 C  py              0.2       0.1       1.1       0.1       1.4       4.5
 2 C  dz2             0.0       0.0       0.0       0.4       0.0       0.0
 2 C  dxz             0.4       0.4       0.0       0.0       0.0       0.0
 2 C  dyz             0.1       0.2       0.0       0.0       0.1       0.0
 2 C  dx2y2           0.1       0.1       0.0       0.0       0.0       0.0
 2 C  dxy             0.0       0.1       0.1       0.0       0.0       0.2
 3 C  s               0.5       0.2       2.6       0.8       2.4       1.6
 3 C  pz              0.3       2.1       1.0       1.6       0.1       0.3
 3 C  px              0.6       1.9       0.0       2.4       0.3       0.3
 3 C  py              0.2       0.1       1.1       0.1       1.4       4.5
 3 C  dz2             0.0       0.0       0.0       0.4       0.0       0.0
 3 C  dxz             0.4       0.4       0.0       0.0       0.0       0.0
 3 C  dyz             0.1       0.2       0.0       0.0       0.1       0.0
 3 C  dx2y2           0.1       0.1       0.0       0.0       0.0       0.0
 3 C  dxy             0.0       0.1       0.1       0.0       0.0       0.2
 4 N  s               1.8       2.6       0.6       0.1       1.0       0.0
 4 N  pz             26.7      22.0       0.4       0.3       0.3       0.0
 4 N  px              8.7       7.4       0.1       0.3       0.0       0.0
 4 N  py              0.0       0.0       0.0       0.0       0.0       0.9
 4 N  dx2y2           0.0       0.0       0.0       0.1       0.0       0.0
 4 N  dxy             0.0       0.0       0.0       0.0       0.0       0.1
 5 C  s               0.5       0.2       2.6       0.8       2.4       1.6
 5 C  pz              0.3       2.1       1.0       1.6       0.1       0.3
 5 C  px              0.6       1.9       0.0       2.4       0.3       0.3
 5 C  py              0.2       0.1       1.1       0.1       1.4       4.5
 5 C  dz2             0.0       0.0       0.0       0.4       0.0       0.0
 5 C  dxz             0.4       0.4       0.0       0.0       0.0       0.0
 5 C  dyz             0.1       0.2       0.0       0.0       0.1       0.0
 5 C  dx2y2           0.1       0.1       0.0       0.0       0.0       0.0
 5 C  dxy             0.0       0.1       0.1       0.0       0.0       0.2
 6 C  s               0.5       0.2       2.6       0.8       2.4       1.6
 6 C  pz              0.3       2.1       1.0       1.6       0.1       0.3
 6 C  px              0.6       1.9       0.0       2.4       0.3       0.3
 6 C  py              0.2       0.1       1.1       0.1       1.4       4.5
 6 C  dz2             0.0       0.0       0.0       0.4       0.0       0.0
 6 C  dxz             0.4       0.4       0.0       0.0       0.0       0.0
 6 C  dyz             0.1       0.2       0.0       0.0       0.1       0.0
 6 C  dx2y2           0.1       0.1       0.0       0.0       0.0       0.0
 6 C  dxy             0.0       0.1       0.1       0.0       0.0       0.2
 7 C  s               0.2       0.1       6.0       3.0       2.1       0.0
 7 C  pz              1.0       0.7       1.3       3.2       0.2       0.0
 7 C  px              0.2       0.0       0.5       0.2       5.7       0.0
 7 C  py              0.0       0.0       0.0       0.0       0.0       3.3
 7 C  dz2             0.7       0.7       0.0       0.0       0.1       0.0
 7 C  dx2y2           0.0       0.0       0.0       0.0       0.2       0.0
 8 H  s               0.6       0.5       4.0       1.6       7.4       3.5
 9 H  s               3.7       2.4       6.5       8.2       0.7       0.0
10 H  s               0.6       0.5       4.0       1.6       7.4       3.5
11 H  s               0.0       0.7       4.5       0.8       6.1      11.3
12 H  s               0.6       0.8       3.8       9.6       1.8       1.2
13 H  s               0.6       0.8       3.8       9.6       1.8       1.2
14 H  s               0.0       0.7       4.5       0.8       6.1      11.3
15 H  s               0.6       0.8       3.8       9.6       1.8       1.2
16 H  s               0.0       0.7       4.5       0.8       6.2      11.3
17 H  s               0.0       0.7       4.5       0.8       6.1      11.3
18 H  s               0.6       0.8       3.8       9.6       1.8       1.2
19 H  s               0.6       0.5       4.0       1.6       7.4       3.5
20 H  s               0.6       0.5       4.0       1.6       7.4       3.5
21 H  s               3.7       2.4       6.6       8.2       0.7       0.0

                     36        37        38        39        40        41   
                   0.08809   0.09085   0.09430   0.10946   0.11114   0.12032
                   0.00000   0.00000   0.00000   0.00000   0.00000   0.00000
                  --------  --------  --------  --------  --------  --------
 0 C  s               0.0       2.9       0.0       8.8       1.7       3.3
 0 C  pz              0.0       0.9       0.0       0.8       0.6       3.8
 0 C  px              0.0       2.4       0.0       1.3       6.7       3.6
 0 C  py              7.7       0.0       5.8       0.0       0.0       0.0
 0 C  dxz             0.0       0.1       0.0       0.3       0.1       1.1
 0 C  dx2y2           0.0       0.1       0.0       0.3       0.3       0.2
 0 C  dxy             0.3       0.0       1.2       0.0       0.0       0.0
 1 N  s               0.0       0.1       0.0       1.1       4.4       9.5
 1 N  pz              0.0       1.3       0.0       1.0       0.3       1.1
 1 N  px              0.0       0.2       0.0       0.4       1.1       0.7
 1 N  py              0.2       0.0       0.9       0.0       0.0       0.0
 1 N  dz2             0.0       0.1       0.0       0.0       0.0       0.2
 1 N  dxz             0.0       0.1       0.0       0.5       0.0       0.1
 1 N  dyz             0.3       0.0       0.4       0.0       0.0       0.0
 1 N  dx2y2           0.0       0.4       0.0       0.3       0.2       0.0
 1 N  dxy             0.1       0.0       0.4       0.0       0.0       0.0
 2 C  s               0.6       0.9       3.1       0.1       2.1       0.2
 2 C  pz              1.0       0.8       1.3       0.3       0.4       0.4
 2 C  px              0.2       2.6       0.3       1.4       1.0       1.6
 2 C  py              2.1       0.9       0.3       1.6       1.5       3.2
 2 C  dz2             0.0       0.0       0.0       0.3       0.1       0.0
 2 C  dxz             0.2       0.0       0.3       0.0       0.0       0.0
 2 C  dyz             0.1       0.0       0.0       0.4       0.0       0.0
 2 C  dx2y2           0.1       0.3       0.0       0.0       0.4       0.3
 2 C  dxy             0.0       0.1       0.2       0.3       0.4       1.3
 3 C  s               0.6       0.9       3.1       0.1       2.1       0.2
 3 C  pz              1.0       0.8       1.3       0.2       0.4       0.4
 3 C  px              0.2       2.6       0.3       1.4       1.0       1.6
 3 C  py              2.1       0.9       0.3       1.6       1.5       3.2
 3 C  dz2             0.0       0.0       0.0       0.3       0.1       0.0
 3 C  dxz             0.2       0.0       0.3       0.0       0.0       0.0
 3 C  dyz             0.1       0.0       0.0       0.4       0.0       0.0
 3 C  dx2y2           0.1       0.3       0.0       0.0       0.4       0.3
 3 C  dxy             0.0       0.1       0.2       0.3       0.4       1.3
 4 N  s               0.0       0.1       0.0       1.1       4.4       9.5
 4 N  pz              0.0       1.3       0.0       1.0       0.3       1.1
 4 N  px              0.0       0.2       0.0       0.4       1.1       0.7
 4 N  py              0.2       0.0       0.9       0.0       0.0       0.0
 4 N  dz2             0.0       0.1       0.0       0.0       0.0       0.2
 4 N  dxz             0.0       0.1       0.0       0.5       0.0       0.1
 4 N  dyz             0.3       0.0       0.4       0.0       0.0       0.0
 4 N  dx2y2           0.0       0.4       0.0       0.3       0.2       0.0
 4 N  dxy             0.1       0.0       0.4       0.0       0.0       0.0
 5 C  s               0.6       0.9       3.1       0.1       2.1       0.2
 5 C  pz              1.0       0.8       1.3       0.2       0.4       0.4
 5 C  px              0.2       2.6       0.3       1.4       1.0       1.6
 5 C  py              2.1       0.9       0.3       1.6       1.5       3.2
 5 C  dz2             0.0       0.0       0.0       0.3       0.1       0.0
 5 C  dxz             0.2       0.0       0.3       0.0       0.0       0.0
 5 C  dyz             0.1       0.0       0.0       0.4       0.0       0.0
 5 C  dx2y2           0.1       0.3       0.0       0.0       0.4       0.3
 5 C  dxy             0.0       0.1       0.2       0.3       0.4       1.3
 6 C  s               0.6       0.9       3.1       0.1       2.1       0.2
 6 C  pz              1.0       0.8       1.3       0.3       0.4       0.4
 6 C  px              0.2       2.6       0.3       1.4       1.0       1.6
 6 C  py              2.1       0.9       0.3       1.6       1.5       3.2
 6 C  dz2             0.0       0.0       0.0       0.3       0.1       0.0
 6 C  dxz             0.2       0.0       0.3       0.0       0.0       0.0
 6 C  dyz             0.1       0.0       0.0       0.4       0.0       0.0
 6 C  dx2y2           0.1       0.3       0.0       0.0       0.4       0.3
 6 C  dxy             0.0       0.1       0.2       0.3       0.4       1.3
 7 C  s               0.0       2.9       0.0       8.8       1.7       3.3
 7 C  pz              0.0       0.9       0.0       0.8       0.6       3.8
[...]
 1 N  dx2y2          22.3       7.0       9.9       0.0      11.0       7.7
 2 C  s               0.1       0.0       0.2       0.1       0.2       0.2
 2 C  pz              0.1       0.3       0.1       0.1       0.0       0.1
 2 C  px              0.0       0.4       0.0       0.2       0.4       0.2
 2 C  py              0.1       0.2       0.0       0.1       0.2       0.3
 2 C  dz2             0.1       1.9       0.0       0.1       0.5       0.5
 2 C  dxz             0.0       0.8       0.7       6.9       0.0       0.0
 2 C  dyz             0.0       0.5       2.7       2.9       0.0       0.4
 2 C  dx2y2           5.5       4.6       1.4       0.2       0.0       0.1
 2 C  dxy             0.6       0.1       4.5       0.3       1.7       1.4
 3 C  s               0.1       0.0       0.2       0.1       0.2       0.2
 3 C  pz              0.1       0.3       0.1       0.1       0.0       0.1
 3 C  px              0.0       0.4       0.0       0.2       0.4       0.2
 3 C  py              0.1       0.2       0.0       0.1       0.2       0.3
 3 C  dz2             0.1       1.9       0.0       0.1       0.5       0.5
 3 C  dxz             0.0       0.8       0.7       6.9       0.0       0.0
 3 C  dyz             0.0       0.5       2.7       2.9       0.0       0.4
 3 C  dx2y2           5.5       4.6       1.4       0.2       0.0       0.1
 3 C  dxy             0.6       0.1       4.5       0.3       1.7       1.4
 4 N  s               0.4       1.4       1.6       0.0       0.0       0.0
 4 N  pz              0.1       0.3       0.1       0.0       0.5       0.5
 4 N  px              1.5       0.3       0.1       0.0       1.9       2.0
 4 N  py              0.0       0.0       0.0       0.5       0.0       0.0
 4 N  dz2             6.7      14.9       0.4       0.0      10.8       9.2
 4 N  dxz             1.8       3.5      16.0       0.0      10.7      14.8
 4 N  dyz             0.0       0.0       0.0      23.6       0.0       0.0
 4 N  dx2y2          22.3       7.0       9.9       0.0      11.0       7.7
 5 C  s               0.1       0.0       0.2       0.1       0.2       0.2
 5 C  pz              0.1       0.3       0.1       0.1       0.0       0.1
 5 C  px              0.0       0.4       0.0       0.2       0.4       0.1
 5 C  py              0.1       0.2       0.0       0.1       0.2       0.3
 5 C  dz2             0.1       1.9       0.0       0.1       0.5       0.5
 5 C  dxz             0.0       0.8       0.7       6.9       0.0       0.0
 5 C  dyz             0.0       0.5       2.7       2.9       0.0       0.4
 5 C  dx2y2           5.5       4.6       1.4       0.2       0.0       0.1
 5 C  dxy             0.6       0.1       4.5       0.3       1.7       1.3
 6 C  s               0.1       0.0       0.2       0.1       0.2       0.2
 6 C  pz              0.1       0.3       0.1       0.1       0.0       0.1
 6 C  px              0.0       0.4       0.0       0.2       0.4       0.1
 6 C  py              0.1       0.2       0.0       0.1       0.2       0.3
 6 C  dz2             0.1       1.9       0.0       0.1       0.5       0.5
 6 C  dxz             0.0       0.8       0.7       6.9       0.0       0.0
 6 C  dyz             0.0       0.5       2.7       2.9       0.0       0.4
 6 C  dx2y2           5.5       4.6       1.4       0.2       0.0       0.1
 6 C  dxy             0.6       0.1       4.5       0.3       1.7       1.3
 7 C  s               0.1       0.0       0.2       0.0       1.1       1.2
 7 C  pz              0.0       0.1       0.2       0.0       0.8       0.8
 7 C  px              0.1       0.0       0.1       0.0       1.0       1.1
 7 C  dz2             3.1       4.2       0.1       0.0       0.4       0.5
 7 C  dxz             0.4       0.3       1.8       0.0       4.1       4.3
 7 C  dyz             0.0       0.0       0.0       0.7       0.0       0.0
 7 C  dx2y2           0.3       0.1       0.1       0.0       1.3       1.6
 7 C  dxy             0.0       0.0       0.0       2.8       0.0       0.0
 8 H  s               0.0       0.0       0.0       0.1       0.0       0.1
 9 H  s               0.1       0.1       0.1       0.0       0.0       0.0
10 H  s               0.0       0.0       0.0       0.1       0.0       0.1
11 H  s               0.1       0.1       0.2       0.0       0.0       0.0
12 H  s               0.0       0.1       0.0       0.2       0.0       0.0
13 H  s               0.0       0.1       0.0       0.2       0.0       0.0
14 H  s               0.1       0.1       0.2       0.0       0.0       0.0
15 H  s               0.0       0.1       0.0       0.2       0.0       0.0
16 H  s               0.1       0.1       0.2       0.0       0.0       0.0
17 H  s               0.1       0.1       0.2       0.0       0.0       0.0
18 H  s               0.0       0.1       0.0       0.2       0.0       0.0
19 H  s               0.0       0.0       0.0       0.1       0.0       0.1
20 H  s               0.0       0.0       0.0       0.1       0.0       0.1
21 H  s               0.1       0.1       0.1       0.0       0.0       0.0

                    138       139   
                   2.97587   2.99279
                   0.00000   0.00000
                  --------  --------
 0 C  dyz             0.4       0.5
 1 N  py              2.3       2.2
 1 N  dxy            32.7      30.8
 2 C  s               0.9       0.5
 2 C  px              0.3       0.7
 2 C  py              1.2       0.8
 2 C  dz2             0.8       1.2
 2 C  dxz             0.0       0.2
 2 C  dx2y2           0.9       1.4
 2 C  dxy             2.8       3.3
 3 C  s               0.9       0.5
 3 C  px              0.3       0.7
 3 C  py              1.2       0.8
 3 C  dz2             0.8       1.2
 3 C  dxz             0.0       0.2
 3 C  dx2y2           0.9       1.4
 3 C  dxy             2.8       3.3
 4 N  py              2.3       2.2
 4 N  dxy            32.8      30.7
 5 C  s               0.9       0.5
 5 C  px              0.3       0.7
 5 C  py              1.2       0.8
 5 C  dz2             0.8       1.2
 5 C  dxz             0.0       0.2
 5 C  dx2y2           0.9       1.4
 5 C  dxy             2.8       3.3
 6 C  s               0.9       0.5
 6 C  px              0.3       0.7
 6 C  py              1.2       0.8
 6 C  dz2             0.8       1.2
 6 C  dxz             0.0       0.2
 6 C  dx2y2           0.9       1.4
 6 C  dxy             2.8       3.3
 7 C  dyz             0.4       0.5


                      *****************************
                      * MAYER POPULATION ANALYSIS *
                      *****************************

  NA   - Mulliken gross atomic population
  ZA   - Total nuclear charge
  QA   - Mulliken gross atomic charge
  VA   - Mayer's total valence
  BVA  - Mayer's bonded valence
  FA   - Mayer's free valence

  ATOM       NA         ZA         QA         VA         BVA        FA
  0 C      6.1810     6.0000    -0.1810     3.9327     3.9327    -0.0000
  1 N      7.2810     7.0000    -0.2810     3.2165     3.2165    -0.0000
  2 C      6.0737     6.0000    -0.0737     4.0683     4.0683    -0.0000
  3 C      6.0738     6.0000    -0.0738     4.0682     4.0682    -0.0000
  4 N      7.2810     7.0000    -0.2810     3.2166     3.2166    -0.0000
  5 C      6.0738     6.0000    -0.0738     4.0682     4.0682     0.0000
  6 C      6.0737     6.0000    -0.0737     4.0683     4.0683     0.0000
  7 C      6.1809     6.0000    -0.1809     3.9327     3.9327     0.0000
  8 H      0.8989     1.0000     0.1011     0.9594     0.9594     0.0000
  9 H      0.9172     1.0000     0.0828     0.9555     0.9555     0.0000
 10 H      0.8990     1.0000     0.1010     0.9595     0.9595     0.0000
 11 H      0.9205     1.0000     0.0795     0.9618     0.9618     0.0000
 12 H      0.9172     1.0000     0.0828     0.9589     0.9589     0.0000
 13 H      0.9172     1.0000     0.0828     0.9589     0.9589    -0.0000
 14 H      0.9205     1.0000     0.0795     0.9618     0.9618     0.0000
 15 H      0.9172     1.0000     0.0828     0.9589     0.9589     0.0000
 16 H      0.9205     1.0000     0.0795     0.9618     0.9618     0.0000
 17 H      0.9205     1.0000     0.0795     0.9618     0.9618     0.0000
 18 H      0.9172     1.0000     0.0828     0.9589     0.9589     0.0000
 19 H      0.8990     1.0000     0.1010     0.9594     0.9594     0.0000
 20 H      0.8990     1.0000     0.1010     0.9595     0.9595     0.0000
 21 H      0.9172     1.0000     0.0828     0.9555     0.9555    -0.0000

  Mayer bond orders larger than 0.100000
B(  0-C ,  1-N ) :   1.0465 B(  0-C ,  8-H ) :   0.9541 B(  0-C ,  9-H ) :   0.9237 
B(  0-C , 10-H ) :   0.9541 B(  1-N ,  2-C ) :   1.0553 B(  1-N ,  6-C ) :   1.0553 
B(  2-C ,  3-C ) :   1.0930 B(  2-C , 11-H ) :   0.9186 B(  2-C , 12-H ) :   0.9130 
B(  3-C ,  4-N ) :   1.0553 B(  3-C , 13-H ) :   0.9130 B(  3-C , 14-H ) :   0.9186 
B(  4-N ,  5-C ) :   1.0553 B(  4-N ,  7-C ) :   1.0465 B(  5-C ,  6-C ) :   1.0930 
B(  5-C , 15-H ) :   0.9130 B(  5-C , 16-H ) :   0.9186 B(  6-C , 17-H ) :   0.9186 
B(  6-C , 18-H ) :   0.9130 B(  7-C , 19-H ) :   0.9541 B(  7-C , 20-H ) :   0.9541 
B(  7-C , 21-H ) :   0.9237 

-------
TIMINGS
-------

Total SCF time: 0 days 0 hours 0 min 9 sec 

Total time                  ....       9.060 sec
Sum of individual times     ....       8.294 sec  ( 91.5%)

SCF preparation             ....       0.230 sec  (  2.5%)
Fock matrix formation       ....       7.309 sec  ( 80.7%)
  Startup                   ....       0.046 sec  (  0.6% of F)
  Split-RI-J                ....       2.240 sec  ( 30.6% of F)
  XC integration            ....       4.655 sec  ( 63.7% of F)
    Basis function eval.    ....       1.168 sec  ( 25.1% of XC)
    Density eval.           ....       0.622 sec  ( 13.4% of XC)
    XC-Functional eval.     ....       0.250 sec  (  5.4% of XC)
    XC-Potential eval.      ....       0.879 sec  ( 18.9% of XC)
Diagonalization             ....       0.000 sec  (  0.0%)
Density matrix formation    ....       0.144 sec  (  1.6%)
Total Energy calculation    ....       0.026 sec  (  0.3%)
Population analysis         ....       0.075 sec  (  0.8%)
Orbital Transformation      ....       0.044 sec  (  0.5%)
Orbital Orthonormalization  ....       0.000 sec  (  0.0%)
DIIS solution               ....       0.388 sec  (  4.3%)
  MO trafo                  ....       0.000 sec  (  0.0 % of DIIS)
  Orb grad                  ....       0.000 sec  (  0.0 % of DIIS)
  Energy W gradient         ....       0.000 sec  (  0.0 % of DIIS)
  DIIS error                ....       0.003 sec  (  0.8 % of DIIS)
  DIIS work                 ....       0.351 sec  ( 90.3 % of DIIS)
  Form Q                    ....       0.000 sec  (  0.0 % of DIIS)
  Form QpQm                 ....       0.000 sec  (  0.0 % of DIIS)
  Exp/Cayley                ....       0.000 sec  (  0.0 % of DIIS)
  Orb update                ....       0.000 sec  (  0.0 % of DIIS)
  Wake-sleep                ....       0.014 sec  (  3.5 % of DIIS)
SOSCF solution              ....       0.077 sec  (  0.9%)
  MO trafo                  ....       0.041 sec  ( 53.1 % of SOSCF)
  Orb grad                  ....       0.001 sec  (  1.4 % of SOSCF)
  Rot update                ....       0.016 sec  ( 20.6 % of SOSCF)
  Step                      ....       0.019 sec  ( 24.7 % of SOSCF)
Finished LeanSCF after   9.1 sec

Maximum memory used throughout the entire LEANSCF-calculation: 14.0 MB


-------------------------------------------------------------------------------
                          DFT DISPERSION CORRECTION                            
                                                                               
                                DFTD4 V3.4.0                                   
-------------------------------------------------------------------------------
The PBE functional is recognized
Active option DFTDOPT                   ...         5   

-------------------------   ----------------
Dispersion correction           -0.021375353
-------------------------   ----------------

------------------   -----------------
gCP correction             0.104536748
------------------   -----------------

-------------------------   --------------------
FINAL SINGLE POINT ENERGY      -345.705590832439
-------------------------   --------------------


------------------------------------------------------------------------------
                              ORCA PROPERTY CALCULATIONS
------------------------------------------------------------------------------

GBWName                                 ... sp.gbw
Number of atoms                         ...     22
Number of basis functions               ...    140
Max core memory                         ...   1024 MB

Electric properties:
Dipole moment                           ... YES
Quadrupole moment                       ...  NO
Static polarizability (Dipole/Dipole)   ...  NO
Static polarizability (Dipole/Quad.)    ...  NO
Static polarizability (Quad./Quad.)     ...  NO
Static polarizability (Velocity)        ...  NO

Atomic electric properties:
Dipole moment                           ...  NO
Quadrupole moment                       ...  NO
Static polarizability                   ...  NO

Choice of electric origin               ... Center of mass
Position of electric origin             ...    -0.000000    -0.000000     0.000000

General magnetic properties:
Magnetizability                         ...  NO

EPR properties:
g-Tensor (aka g-matrix)                 ...  NO
Zero-Field splitting spin-orbit         ...  NO
Zero-field splitting spin-spin          ...  NO
Hyperfine couplings                     ...  NO (   0 nuclei)
Quadrupole couplings                    ...  NO (   0 nuclei)
Contact density                         ...  NO (   0 nuclei)

NMR properties:
Chemical shifts                         ...  NO (   0 nuclei)
Spin-rotation constants                 ...  NO (   0 nuclei)
Spin-spin couplings                     ...  NO (   0 nuclei,    0 pairs)

Choice of magnetic origin               ... GIAO
Position of magnetic origin             ...     0.000000     0.000000     0.000000

Properties with geometric perturbations:
SCF Hessian                             ...  NO
IR spectrum                             ...  NO
VCD spectrum                            ...  NO
X-ray spectroscopy properties:
SCF XES/XAS/RIXS spectra                ...  NO


-------------
DIPOLE MOMENT
-------------

Method             : SCF
Type of density    : Electron Density
Multiplicity       :   1
Irrep              :   0
Energy             :  -345.7887522276380992 Eh
Relativity type    : 
Basis              : AO
                                X                 Y                 Z
Electronic contribution:      0.000894174       0.000134810      -0.000574069
Nuclear contribution   :     -0.001102582      -0.000131888       0.000582627
                        -----------------------------------------
Total Dipole Moment    :     -0.000208408       0.000002922       0.000008558
                        -----------------------------------------
Magnitude (a.u.)       :      0.000208604
Magnitude (Debye)      :      0.000530230



--------------------
Rotational spectrum 
--------------------
 
Rotational constants in cm-1:             0.120966             0.056862             0.048618 
Rotational constants in MHz :          3626.481875          1704.687265          1457.525424 

Dipole components along the rotational axes: 
x,y,z [a.u.] :     0.000208     0.000003     0.000010 
x,y,z [Debye]:     0.000530     0.000007     0.000025 

 

Dipole moment calculation done in   0.0 sec 

Maximum memory used throughout the entire PROP-calculation: 8.8 MB

--------------------------------
SUGGESTED CITATIONS FOR THIS RUN
--------------------------------

Below you find a list of papers that are relevant to this ORCA run
We neither can nor want to force you to cite these papers, but we appreciate if you do
You receive ORCA, which is the product of decades of hard work by many enthusiastic individuals, for free
The only thing we kindly ask in return is that you cite our papers,
We deeply appreciate it, if you show your appreciation for ORCA by not just citing the generic ORCA reference.

Please note that relegating all ORCA citations to the supporting information does *not* help us.
SI sections are not indexed - citations you put there will not count into any citation statistics
But we need these citations in order to attract the funding resources that allow us to do what we are doing

Therefore, if you are a happy ORCA user, please consider citing a few of the papers listed below in the main body of your paper

In addition to the list printed below, the program has created the file sp.bibtex that contains the list in bibtex format
You can import this file easily into all common literature databanks and citation aid programs


List of essential papers. We consider these as the minimum necessary citations

  1. Neese,F.
     Software update: the ORCA program system, version 5.0
     WIRES Comput. Molec. Sci., 2022 12(1)e1606
     doi.org/10.1002/wcms.1606

List of papers to cite with high priority. The work reported in these papers was absolutely
necessary for this run to complete.
Our perspective: the developers of density functionals and basis sets usually get cited in chemistry papers
Good! But without the algorithms to do something with them, the functionals or basis sets would not do anything.
Hence, in our opinion, the algorithm design and method developments papers are equally worthy of getting cited

  1. Neese,F.
     An improvement of the resolution of the identity approximation for the formation of the Coulomb matrix
     J. Comp. Chem., 2003 24(14)1740-1747
     doi.org/10.1002/jcc.10318
  2. Neese,F.
     The SHARK Integral Generation and Digestion System
     J. Comp. Chem., 2022  1-16
     doi.org/10.1002/jcc.26942
  3. Caldeweyher,E.; Bannwarth,C.; Grimme,S.
     Extension of the D3 dispersion coefficient model
     J. Chem. Phys., 2017 147 034112-XXXX
     doi.org/10.1063/1.4993215
  4. Caldeweyher,E.; Ehlert,S.; Hansen,A.; Neugebauer,H.; Spicher,S.; Bannwarth,C.; Grimme,S.
     A generally applicable atomic-charge dependent London dispersion correction
     J. Chem. Phys., 2019 150 154122-XXXX
     doi.org/10.1063/1.5090222
  5. Caldeweyher,E.; Mewes,J.; Ehlert,S.; Grimme,S.
     Extension and evaluation of the D4 London-dispersion model for periodic systems
     Phys. Chem. Chem. Phys., 2020 22(16)8499-8512
     doi.org/10.1039/D0CP00502A

List of suggested additional citations. These are papers that are important in the 'surrounding' of 
of this run, or papers that preceded the highly important papers. If you like your results we are grateful for a citation.

  1. Neese,F.
     The ORCA program system
     WIRES Comput. Molec. Sci., 2012 2(1)73-78
     doi.org/10.1002/wcms.81
  2. Neese,F.
     Software update: the ORCA program system, version 4.0
     WIRES Comput. Molec. Sci., 2018 8(1)1-6
     doi.org/10.1002/wcms.1327
  3. Neese,F.; Wennmohs,F.; Becker,U.; Riplinger,C.
     The ORCA quantum chemistry program package
     J. Chem. Phys., 2020 152 Art. No. L224108
     doi.org/10.1063/5.0004608

List of optional additional citations

  1. Neese,F.
     Approximate second-order SCF convergence for spin unrestricted wavefunctions
     Chem. Phys. Lett., 2000 325(1-3)93-98
     doi.org/10.1016/s0009-2614(00)00662-x

Timings for individual modules:

Sum of individual times          ...       11.018 sec (=   0.184 min)
Startup calculation              ...        0.891 sec (=   0.015 min)   8.1 %
SCF iterations                   ...       10.030 sec (=   0.167 min)  91.0 %
Property calculations            ...        0.096 sec (=   0.002 min)   0.9 %
                             ****ORCA TERMINATED NORMALLY****
TOTAL RUN TIME: 0 days 0 hours 0 minutes 11 seconds 757 msec
