
                                 *****************
                                 * O   R   C   A *
                                 *****************

                                            #,                                       
                                            ###                                      
                                            ####                                     
                                            #####                                    
                                            ######                                   
                                           ########,                                 
                                     ,,################,,,,,                         
                               ,,#################################,,                 
                          ,,##########################################,,             
                       ,#########################################, ''#####,          
                    ,#############################################,,   '####,        
                  ,##################################################,,,,####,       
                ,###########''''           ''''###############################       
              ,#####''   ,,,,##########,,,,          '''####'''          '####       
            ,##' ,,,,###########################,,,                        '##       
           ' ,,###''''                  '''############,,,                           
         ,,##''                                '''############,,,,        ,,,,,,###''
      ,#''                                            '''#######################'''  
     '                                                          ''''####''''         
             ,#######,   #######,   ,#######,      ##                                
            ,#'     '#,  ##    ##  ,#'     '#,    #''#        ,####,   ,####,        
            ##       ##  ##   ,#'  ##            #'  '#       #'       #'  '#        
            ##       ##  #######   ##           ,######,      #####,   #    #        
            '#,     ,#'  ##    ##  '#,     ,#' ,#      #,     #,   #   #,  ,#        
             '#######'   ##     ##  '#######'  #'      '#     '####' # '####'        



                #########################################################
                #                        -***-                          #
                #          Department of theory and spectroscopy        #
                #                                                       #
                #                      Frank Neese                      #
                #                                                       #
                #     Directorship, Architecture, Infrastructure        #
                #                    SHARK, DRIVERS                     #
                #        Core code/Algorithms in most modules           #
                #                                                       #
                #        Max Planck Institute fuer Kohlenforschung      #
                #                Kaiser Wilhelm Platz 1                 #
                #                 D-45470 Muelheim/Ruhr                 #
                #                      Germany                          #
                #                                                       #
                #                  All rights reserved                  #
                #                        -***-                          #
                #########################################################


                         Program Version 6.0.0  -   RELEASE  -


 With contributions from (in alphabetic order):
   Daniel Aravena         : Magnetic Suceptibility
   Michael Atanasov       : Ab Initio Ligand Field Theory (pilot matlab implementation)
   Alexander A. Auer      : GIAO ZORA, VPT2 properties, NMR spectrum
   Ute Becker             : All parallelization in ORCA, NUMFREQ, NUMCALC
   Giovanni Bistoni       : ED, misc. LED, open-shell LED, HFLD
   Martin Brehm           : Molecular dynamics
   Dmytro Bykov           : pre 5.0 version of the SCF Hessian
   Marcos Casanova-Páez   : Triplet and SCS-CIS(D). UHF-(DLPNO)-IP/EA/STEOM-CCSD. UHF-CVS-IP/STEOM-CCSD
   Vijay G. Chilkuri      : MRCI spin determinant printing, contributions to CSF-ICE
   Pauline Colinet        : FMM embedding
   Dipayan Datta          : RHF DLPNO-CCSD density
   Achintya Kumar Dutta   : EOM-CC, STEOM-CC
   Nicolas Foglia         : Exact transition moments, OPA infrastructure, MCD improvements
   Dmitry Ganyushin       : Spin-Orbit,Spin-Spin,Magnetic field MRCI
   Miquel Garcia          : C-PCM and meta-GGA Hessian, CCSD/C-PCM, Gaussian charge scheme
   Tiago L. C. Gouveia    : GS-ROHF, GS-ROCIS
   Yang Guo               : DLPNO-NEVPT2, F12-NEVPT2, CIM, IAO-localization
   Andreas Hansen         : Spin unrestricted coupled pair/coupled cluster methods
   Ingolf Harden          : AUTO-CI MPn and infrastructure 
   Benjamin Helmich-Paris : MC-RPA, TRAH-(SCF,CASSCF), AVAS, COSX integrals, SCF dyn. polar.
   Lee Huntington         : MR-EOM, pCC
   Robert Izsak           : Overlap fitted RIJCOSX, COSX-SCS-MP3, EOM
   Riya Kayal             : Wick's Theorem for AUTO-CI, AUTO-CI UHF-CCSDT
   Emily Kempfer          : AUTO-CI, RHF CISDT and CCSDT
   Christian Kollmar      : KDIIS, OOCD, Brueckner-CCSD(T), CCSD density, CASPT2, CASPT2-K, improved NEVPT2
   Axel Koslowski         : Symmetry handling
   Simone Kossmann        : Meta GGA functionals, TD-DFT gradient, OOMP2, (MP2 Hessian; deprecated post 5.0)
   Lucas Lang             : DCDCAS
   Marvin Lechner         : AUTO-CI (C++ implementation), FIC-MRCC
   Spencer Leger          : CASSCF response
   Dagmar Lenk            : GEPOL surface, SMD, ORCA-2-JSON
   Dimitrios Liakos       : Extrapolation schemes; Compound Job, initial MDCI parallelization
   Dimitrios Manganas     : Further ROCIS development; embedding schemes. LFT, Crystal Embedding
   Dimitrios Pantazis     : SARC Basis sets
   Anastasios Papadopoulos: AUTO-CI, single reference methods and gradients
   Taras Petrenko         : pre 6.0 DFT Hessian and TD-DFT gradient, (ASA, deprecated), ECA, 1-Electron XAS/XES, NRVS
   Peter Pinski           : DLPNO-MP2, DLPNO-MP2 Gradient
   Christoph Reimann      : Effective Core Potentials
   Marius Retegan         : Local ZFS, SOC
   Christoph Riplinger    : Optimizer, TS searches, QM/MM, DLPNO-CCSD(T), (RO)-DLPNO pert. Triples
   Michael Roemelt        : Original ROCIS implementation
   Masaaki Saitow         : Open-shell DLPNO-CCSD energy and density
   Barbara Sandhoefer     : DKH picture change effects
   Kantharuban Sivalingam : CASSCF convergence/infrastructure, NEVPT2 and variants, FIC-MRCI
   Bernardo de Souza      : ESD, SOC TD-DFT
   Georgi Stoychev        : AutoAux, RI-MP2 NMR, DLPNO-MP2 response, X2C
   Van Anh Tran           : RI-MP2 g-tensors
   Willem Van den Heuvel  : Paramagnetic NMR
   Zikuan Wang            : NOTCH, Electric field optimization 
   Frank Wennmohs         : Technical directorship and infrastructure
   Hang Xu                : AUTO-CI-Response properties 


 We gratefully acknowledge several colleagues who have allowed us to
 interface, adapt or use parts of their codes:
   Stefan Grimme, W. Hujo, H. Kruse, P. Pracht,  : VdW corrections, initial TS optimization,
                  C. Bannwarth, S. Ehlert,         DFT functionals, gCP, sTDA/sTD-DF
                  L. Wittmann, M. Mueller
   Ed Valeev, F. Pavosevic, A. Kumar             : LibInt (2-el integral package), F12 methods
   Garnet Chan, S. Sharma, J. Yang, R. Olivares  : DMRG
   Ulf Ekstrom                                   : XCFun DFT Library
   Mihaly Kallay                                 : mrcc  (arbitrary order and MRCC methods)
   Frank Weinhold                                : gennbo (NPA and NBO analysis)
   Simon Mueller                                 : openCOSMO-RS
   Christopher J. Cramer and Donald G. Truhlar   : smd solvation model
   Lars Goerigk                                  : TD-DFT with DH, B97 family of functionals
   V. Asgeirsson, H. Jonsson                     : NEB implementation
   FAccTs GmbH                                   : IRC, NEB, NEB-TS, DLPNO-Multilevel, CI-OPT
                                                   MM, QMMM, 2- and 3-layer-ONIOM, Crystal-QMMM,
                                                   LR-CPCM, SF, NACMEs, symmetry and pop. for TD-DFT,
                                                   nearIR, NL-DFT gradient (VV10), updates on ESD,
                                                   ML-optimized integration grids, MBIS, APM,
                                                   GOAT, DOCKER, SOLVATOR, interface openCOSMO-RS
   S Lehtola, MJT Oliveira, MAL Marques          : LibXC Library
   Liviu Ungur et al                             : ANISO software


 Your calculation uses the libint2 library for the computation of 2-el integrals
 For citations please refer to: http://libint.valeyev.net

 Your ORCA version has been built with support for libXC version: 6.2.2
 For citations please refer to: https://libxc.gitlab.io

 This ORCA versions uses:
   CBLAS   interface :  Fast vector & matrix operations
   LAPACKE interface :  Fast linear algebra routines
   SCALAPACK package :  Parallel linear algebra routines
   Shared memory     :  Shared parallel matrices
   BLAS/LAPACK       :  OpenBLAS 0.3.27  USE64BITINT DYNAMIC_ARCH NO_AFFINITY SapphireRapids SINGLE_THREADED
        Core in use  :  SapphireRapids
   Copyright (c) 2011-2014, The OpenBLAS Project


Your calculation utilizes the geometrical counterpoise correction gCP
Please cite in your paper:
H.Kruse, S. Grimme J.Chem.Phys., 136, (2012), 154101 
   

Your calculation utilizes the atom-pairwise dispersion correction
based on EEQ partial charges (D4)


================================================================================

----- Orbital basis set information -----
Your calculation utilizes the basis: def2-mTZVPP
   Stefan Grimme, Andreas Hansen, Sebastian Ehlert, and Jan-Michael Mewes 
   J. Chem. Phys. 154, 064103 (2021). DOI: 10.1063/5.0040021

----- AuxJ basis set information -----
Your calculation utilizes the auxiliary basis: def2/J
   F. Weigend, Phys. Chem. Chem. Phys. 8, 1057 (2006).

================================================================================
                                        WARNINGS
                       Please study these warnings very carefully!
================================================================================

Using LibXC functional ID 497 : Re-regularized SCAN exchange by Furness et al
[ 1]  J. W. Furness, A. D. Kaplan, J. Ning, J. P. Perdew, and J. Sun.,  J. Phys. Chem. Lett. 11, 8208-8215 (2020)
[ 2]  J. W. Furness, A. D. Kaplan, J. Ning, J. P. Perdew, and J. Sun.,  J. Phys. Chem. Lett. 11, 9248-9248 (2020)
Using LibXC functional ID 498 : Re-regularized SCAN correlation by Furness et al
[ 1]  J. W. Furness, A. D. Kaplan, J. Ning, J. P. Perdew, and J. Sun.,  J. Phys. Chem. Lett. 11, 8208-8215 (2020)
[ 2]  J. W. Furness, A. D. Kaplan, J. Ning, J. P. Perdew, and J. Sun.,  J. Phys. Chem. Lett. 11, 9248-9248 (2020)
Using LibXC functional ID 497 : Re-regularized SCAN exchange by Furness et al
[ 1]  J. W. Furness, A. D. Kaplan, J. Ning, J. P. Perdew, and J. Sun.,  J. Phys. Chem. Lett. 11, 8208-8215 (2020)
[ 2]  J. W. Furness, A. D. Kaplan, J. Ning, J. P. Perdew, and J. Sun.,  J. Phys. Chem. Lett. 11, 9248-9248 (2020)
Using LibXC functional ID 498 : Re-regularized SCAN correlation by Furness et al
[ 1]  J. W. Furness, A. D. Kaplan, J. Ning, J. P. Perdew, and J. Sun.,  J. Phys. Chem. Lett. 11, 8208-8215 (2020)
[ 2]  J. W. Furness, A. D. Kaplan, J. Ning, J. P. Perdew, and J. Sun.,  J. Phys. Chem. Lett. 11, 9248-9248 (2020)

================================================================================
                                       INPUT FILE
================================================================================
NAME = sp_gas.inp
|  1> ! r2scan-3c def2/J RI DEFGRID2 scfconv6 printgap
|  2> %output
|  3>     printlevel normal
|  4> end
|  5> * xyz 0 1
|  6> C 0.45148027 -2.4814357838 2.0342829318
|  7> C 1.5153819996 -1.4358635747 2.3027299732
|  8> O 1.3382608614 -0.301708536 1.4212198503
|  9> P 2.2484605094 -0.0463823851 0.1564109541
| 10> S 2.9965200859 -1.6144180895 -0.7573076599
| 11> O 3.3430982819 0.9276720504 0.7743723174
| 12> C 4.5094877706 1.3417209545 0.0339910712
| 13> C 5.5828875005 1.7319085056 1.030156404
| 14> S 1.0413490887 1.2520872283 -0.9872012937
| 15> C 0.3020716456 -0.0104948449 -2.0624041836
| 16> S -0.6824422141 -1.2281458082 -1.1529703151
| 17> P -2.0904423955 0.1305499688 -0.3517743618
| 18> S -2.6478890321 1.5930331875 -1.5374873879
| 19> O -1.4260500838 0.5337019964 1.0238410355
| 20> C -1.6361945624 1.822184805 1.6328528582
| 21> C -3.0220985755 1.9219169404 2.2339553124
| 22> O -3.2558232708 -0.8244736682 0.1459907702
| 23> C -4.1868479484 -1.4202141733 -0.7811940721
| 24> C -5.3418207802 -1.9854305361 0.0202427828
| 25> H -0.5351149175 -2.0253437467 2.0710446235
| 26> H 0.594511781 -2.9203190216 1.0488253813
| 27> H 0.5182865962 -3.26187219 2.7853829453
| 28> H 2.5168597995 -1.8514233317 2.1599362079
| 29> H 1.4274541936 -1.0230070438 3.3088223322
| 30> H 4.8345628474 0.5092544464 -0.5993496322
| 31> H 4.2252343866 2.1858870005 -0.599410178
| 32> H 6.4600543584 2.0745966917 0.4912649564
| 33> H 5.2197030861 2.5287579957 1.6726149194
| 34> H 5.8510613809 0.8775912099 1.6453702193
| 35> H 1.0889840341 -0.5669143769 -2.5702139511
| 36> H -0.3322733779 0.523660137 -2.76905415
| 37> H -0.8522265561 1.8879464516 2.3886562421
| 38> H -1.4826668103 2.5976928703 0.8747944744
| 39> H -3.1854243376 1.1124952314 2.9402470062
| 40> H -3.1289778399 2.8754670767 2.7413410201
| 41> H -3.7679174395 1.8549196707 1.4424952662
| 42> H -4.5208303022 -0.6479252447 -1.4821526719
| 43> H -3.6639662819 -2.2038787599 -1.3364994981
| 44> H -5.848768493 -1.1905821404 0.5596710436
| 45> H -6.0430785693 -2.4636633256 -0.655590211
| 46> H -4.9731852729 -2.71643078 0.7338309557
| 47> *
| 48> 
| 49>                          ****END OF INPUT****
================================================================================

                       ****************************
                       * Single Point Calculation *
                       ****************************

---------------------------------
CARTESIAN COORDINATES (ANGSTROEM)
---------------------------------
  C      0.451480   -2.481436    2.034283
  C      1.515382   -1.435864    2.302730
  O      1.338261   -0.301709    1.421220
  P      2.248461   -0.046382    0.156411
  S      2.996520   -1.614418   -0.757308
  O      3.343098    0.927672    0.774372
  C      4.509488    1.341721    0.033991
  C      5.582888    1.731909    1.030156
  S      1.041349    1.252087   -0.987201
  C      0.302072   -0.010495   -2.062404
  S     -0.682442   -1.228146   -1.152970
  P     -2.090442    0.130550   -0.351774
  S     -2.647889    1.593033   -1.537487
  O     -1.426050    0.533702    1.023841
  C     -1.636195    1.822185    1.632853
  C     -3.022099    1.921917    2.233955
  O     -3.255823   -0.824474    0.145991
  C     -4.186848   -1.420214   -0.781194
  C     -5.341821   -1.985431    0.020243
  H     -0.535115   -2.025344    2.071045
  H      0.594512   -2.920319    1.048825
  H      0.518287   -3.261872    2.785383
  H      2.516860   -1.851423    2.159936
  H      1.427454   -1.023007    3.308822
  H      4.834563    0.509254   -0.599350
  H      4.225234    2.185887   -0.599410
  H      6.460054    2.074597    0.491265
  H      5.219703    2.528758    1.672615
  H      5.851061    0.877591    1.645370
  H      1.088984   -0.566914   -2.570214
  H     -0.332273    0.523660   -2.769054
  H     -0.852227    1.887946    2.388656
  H     -1.482667    2.597693    0.874794
  H     -3.185424    1.112495    2.940247
  H     -3.128978    2.875467    2.741341
  H     -3.767917    1.854920    1.442495
  H     -4.520830   -0.647925   -1.482153
  H     -3.663966   -2.203879   -1.336499
  H     -5.848768   -1.190582    0.559671
  H     -6.043079   -2.463663   -0.655590
  H     -4.973185   -2.716431    0.733831

----------------------------
CARTESIAN COORDINATES (A.U.)
----------------------------
  NO LB      ZA    FRAG     MASS         X           Y           Z
   0 C     6.0000    0    12.011    0.853174   -4.689234    3.844238
   1 C     6.0000    0    12.011    2.863657   -2.713389    4.351529
   2 O     8.0000    0    15.999    2.528947   -0.570147    2.685716
   3 P    15.0000    0    30.974    4.248975   -0.087650    0.295574
   4 S    16.0000    0    32.060    5.662602   -3.050808   -1.431104
   5 O     8.0000    0    15.999    6.317540    1.753046    1.463352
   6 C     6.0000    0    12.011    8.521697    2.535485    0.064234
   7 C     6.0000    0    12.011   10.550128    3.272833    1.946713
   8 S    16.0000    0    32.060    1.967865    2.366102   -1.865540
   9 C     6.0000    0    12.011    0.570833   -0.019832   -3.897379
  10 S    16.0000    0    32.060   -1.289629   -2.320859   -2.178798
  11 P    15.0000    0    30.974   -3.950364    0.246704   -0.664757
  12 S    16.0000    0    32.060   -5.003785    3.010396   -2.905430
  13 O     8.0000    0    15.999   -2.694844    1.008551    1.934779
  14 C     6.0000    0    12.011   -3.091960    3.443430    3.085645
  15 C     6.0000    0    12.011   -5.710939    3.631897    4.221564
  16 O     8.0000    0    15.999   -6.152614   -1.558029    0.275883
  17 C     6.0000    0    12.011   -7.911996   -2.683816   -1.476243
  18 C     6.0000    0    12.011  -10.094578   -3.751920    0.038253
  19 H     1.0000    0     1.008   -1.011221   -3.827345    3.913707
  20 H     1.0000    0     1.008    1.123464   -5.518603    1.981993
  21 H     1.0000    0     1.008    0.979420   -6.164045    5.263611
  22 H     1.0000    0     1.008    4.756176   -3.498683    4.081688
  23 H     1.0000    0     1.008    2.697497   -1.933203    6.252768
  24 H     1.0000    0     1.008    9.136000    0.962351   -1.132607
  25 H     1.0000    0     1.008    7.984536    4.130728   -1.132721
  26 H     1.0000    0     1.008   12.207734    3.920420    0.928356
  27 H     1.0000    0     1.008    9.863809    4.778660    3.160784
  28 H     1.0000    0     1.008   11.056904    1.658407    3.109299
  29 H     1.0000    0     1.008    2.057882   -1.071313   -4.857000
  30 H     1.0000    0     1.008   -0.627906    0.989574   -5.232754
  31 H     1.0000    0     1.008   -1.610475    3.567702    4.513906
  32 H     1.0000    0     1.008   -2.801834    4.908928    1.653122
  33 H     1.0000    0     1.008   -6.019580    2.102311    5.556262
  34 H     1.0000    0     1.008   -5.912911    5.433845    5.180384
  35 H     1.0000    0     1.008   -7.120332    3.505290    2.725921
  36 H     1.0000    0     1.008   -8.543131   -1.224401   -2.800863
  37 H     1.0000    0     1.008   -6.923893   -4.164727   -2.525618
  38 H     1.0000    0     1.008  -11.052571   -2.249874    1.057625
  39 H     1.0000    0     1.008  -11.419764   -4.655649   -1.238886
  40 H     1.0000    0     1.008   -9.397958   -5.133310    1.386740

--------------------------------
INTERNAL COORDINATES (ANGSTROEM)
--------------------------------
 C      0   0   0     0.000000000000     0.00000000     0.00000000
 C      1   0   0     1.515642421129     0.00000000     0.00000000
 O      2   1   0     1.447321542084   110.29212081     0.00000000
 P      3   2   1     1.579049203305   122.95792161   256.35740002
 S      4   3   2     1.962959705607   117.60345149    30.42483506
 O      4   3   2     1.590248453177   100.63530474   265.92077436
 C      6   4   3     1.442243157051   122.21145905   173.03106473
 C      7   6   4     1.515512677431   108.01616993   203.86646675
 S      4   3   2     2.109737019684   101.76517893   159.92545804
 C      9   4   3     1.815683310462    97.23735596   264.00075722
 S     10   9   4     1.810804067132   113.05156378    62.29767272
 P     11  10   9     2.114340010699    96.90679305    60.68864971
 S     12  11  10     1.963547630667   116.03104243    38.04099244
 O     12  11  10     1.579957728072   102.34900776   269.32988403
 C     14  12  11     1.440570737636   122.34153537   150.41106899
 C     15  14  12     1.513935465204   111.11952897    74.15379505
 O     12  11  10     1.586805866632   102.77848936   164.95034800
 C     17  12  11     1.442700742187   121.39074279   283.50039767
 C     18  17  12     1.515167585241   107.81984421   193.30491250
 H      1   2   3     1.087539163562   109.96803531   307.56936475
 H      1   2   3     1.088210959970   110.26449882    67.30048616
 H      1   2   3     1.085216706295   109.28768935   187.32412341
 H      2   1   3     1.093635110418   110.94918630   238.75857952
 H      2   1   3     1.091056207999   111.57979361   116.03343228
 H      7   6   4     1.095351422717   108.58146970   324.85429017
 H      7   6   4     1.092983733650   107.99296259    83.16312085
 H      8   7   6     1.085016535260   109.11384803   181.64220225
 H      8   7   6     1.086105415117   109.92986415   301.63315214
 H      8   7   6     1.086399240794   110.15742374    61.68675042
 H     10   9   4     1.089359703098   109.70079076   303.64484076
 H     10   9   4     1.089527112348   106.27313033   182.81866921
 H     15  14  12     1.090948754149   104.00291742   195.14023495
 H     15  14  12     1.095278979648   108.67805349   311.87993204
 H     16  15  14     1.086594112029   110.28000062    55.59282935
 H     16  15  14     1.085412961031   109.48847001   176.28864543
 H     16  15  14     1.089561111997   109.52137969   295.79853187
 H     18  17  12     1.095133489818   108.47915052   314.38686916
 H     18  17  12     1.093571916976   108.28205431    72.58818920
 H     19  18  17     1.086168865421   110.21114198    61.53005713
 H     19  18  17     1.084997383976   109.12472889   181.53846423
 H     19  18  17     1.086030190339   109.87054781   301.46861913

---------------------------
INTERNAL COORDINATES (A.U.)
---------------------------
 C      0   0   0     0.000000000000     0.00000000     0.00000000
 C      1   0   0     2.864149092886     0.00000000     0.00000000
 O      2   1   0     2.735041342264   110.29212081     0.00000000
 P      3   2   1     2.983970546234   122.95792161   256.35740002
 S      4   3   2     3.709456255520   117.60345149    30.42483506
 O      4   3   2     3.005134061397   100.63530474   265.92077436
 C      6   4   3     2.725444585349   122.21145905   173.03106473
 C      7   6   4     2.863903912831   108.01616993   203.86646675
 S      4   3   2     3.986825181798   101.76517893   159.92545804
 C      9   4   3     3.431144202706    97.23735596   264.00075722
 S     10   9   4     3.421923769070   113.05156378    62.29767272
 P     11  10   9     3.995523574214    96.90679305    60.68864971
 S     12  11  10     3.710567272871   116.03104243    38.04099244
 O     12  11  10     2.985687409228   102.34900776   269.32988403
 C     14  12  11     2.722284170672   122.34153537   150.41106899
 C     15  14  12     2.860923413667   111.11952897    74.15379505
 O     12  11  10     2.998628515635   102.77848936   164.95034800
 C     17  12  11     2.726309295939   121.39074279   283.50039767
 C     18  17  12     2.863251783100   107.81984421   193.30491250
 H      1   2   3     2.055151179046   109.96803531   307.56936475
 H      1   2   3     2.056420690274   110.26449882    67.30048616
 H      1   2   3     2.050762370854   109.28768935   187.32412341
 H      2   1   3     2.066670849131   110.94918630   238.75857952
 H      2   1   3     2.061797429833   111.57979361   116.03343228
 H      7   6   4     2.069914209336   108.58146970   324.85429017
 H      7   6   4     2.065439925429   107.99296259    83.16312085
 H      8   7   6     2.050384102417   109.11384803   181.64220225
 H      8   7   6     2.052441787139   109.92986415   301.63315214
 H      8   7   6     2.052997037200   110.15742374    61.68675042
 H     10   9   4     2.058591500185   109.70079076   303.64484076
 H     10   9   4     2.058907857819   106.27313033   182.81866921
 H     15  14  12     2.061594371485   104.00291742   195.14023495
 H     15  14  12     2.069777311776   108.67805349   311.87993204
 H     16  15  14     2.053365290467   110.28000062    55.59282935
 H     16  15  14     2.051133238558   109.48847001   176.28864543
 H     16  15  14     2.058972107845   109.52137969   295.79853187
 H     18  17  12     2.069502375842   108.47915052   314.38686916
 H     18  17  12     2.066551430831   108.28205431    72.58818920
 H     19  18  17     2.052561690837   110.21114198    61.53005713
 H     19  18  17     2.050347911736   109.12472889   181.53846423
 H     19  18  17     2.052299632910   109.87054781   301.46861913

---------------------
BASIS SET INFORMATION
---------------------
There are 5 groups of distinct atoms

 Group   1 Type C   : 11s6p1d contracted to 5s3p1d pattern {62111/411/1}
 Group   2 Type O   : 11s6p2d contracted to 5s3p2d pattern {62111/411/11}
 Group   3 Type P   : 14s9p2d contracted to 5s4p2d pattern {73211/6111/11}
 Group   4 Type S   : 14s9p2d contracted to 5s4p2d pattern {73211/6111/11}
 Group   5 Type H   : 4s1p contracted to 2s1p pattern {31/1}

Atom   0C    basis set group =>   1
Atom   1C    basis set group =>   1
Atom   2O    basis set group =>   2
Atom   3P    basis set group =>   3
Atom   4S    basis set group =>   4
Atom   5O    basis set group =>   2
Atom   6C    basis set group =>   1
Atom   7C    basis set group =>   1
Atom   8S    basis set group =>   4
Atom   9C    basis set group =>   1
Atom  10S    basis set group =>   4
Atom  11P    basis set group =>   3
Atom  12S    basis set group =>   4
Atom  13O    basis set group =>   2
Atom  14C    basis set group =>   1
Atom  15C    basis set group =>   1
Atom  16O    basis set group =>   2
Atom  17C    basis set group =>   1
Atom  18C    basis set group =>   1
Atom  19H    basis set group =>   5
Atom  20H    basis set group =>   5
Atom  21H    basis set group =>   5
Atom  22H    basis set group =>   5
Atom  23H    basis set group =>   5
Atom  24H    basis set group =>   5
Atom  25H    basis set group =>   5
Atom  26H    basis set group =>   5
Atom  27H    basis set group =>   5
Atom  28H    basis set group =>   5
Atom  29H    basis set group =>   5
Atom  30H    basis set group =>   5
Atom  31H    basis set group =>   5
Atom  32H    basis set group =>   5
Atom  33H    basis set group =>   5
Atom  34H    basis set group =>   5
Atom  35H    basis set group =>   5
Atom  36H    basis set group =>   5
Atom  37H    basis set group =>   5
Atom  38H    basis set group =>   5
Atom  39H    basis set group =>   5
Atom  40H    basis set group =>   5
---------------------------------
AUXILIARY/J BASIS SET INFORMATION
---------------------------------
There are 5 groups of distinct atoms

 Group   1 Type C   : 12s5p4d2f1g contracted to 6s4p3d1f1g pattern {711111/2111/211/2/1}
 Group   2 Type O   : 12s5p4d2f1g contracted to 6s4p3d1f1g pattern {711111/2111/211/2/1}
 Group   3 Type P   : 14s5p5d2f1g contracted to 8s4p3d1f1g pattern {71111111/2111/311/2/1}
 Group   4 Type S   : 14s5p5d2f1g contracted to 8s4p3d1f1g pattern {71111111/2111/311/2/1}
 Group   5 Type H   : 5s2p1d contracted to 3s1p1d pattern {311/2/1}

Atom   0C    basis set group =>   1
Atom   1C    basis set group =>   1
Atom   2O    basis set group =>   2
Atom   3P    basis set group =>   3
Atom   4S    basis set group =>   4
Atom   5O    basis set group =>   2
Atom   6C    basis set group =>   1
Atom   7C    basis set group =>   1
Atom   8S    basis set group =>   4
Atom   9C    basis set group =>   1
Atom  10S    basis set group =>   4
Atom  11P    basis set group =>   3
Atom  12S    basis set group =>   4
Atom  13O    basis set group =>   2
Atom  14C    basis set group =>   1
Atom  15C    basis set group =>   1
Atom  16O    basis set group =>   2
Atom  17C    basis set group =>   1
Atom  18C    basis set group =>   1
Atom  19H    basis set group =>   5
Atom  20H    basis set group =>   5
Atom  21H    basis set group =>   5
Atom  22H    basis set group =>   5
Atom  23H    basis set group =>   5
Atom  24H    basis set group =>   5
Atom  25H    basis set group =>   5
Atom  26H    basis set group =>   5
Atom  27H    basis set group =>   5
Atom  28H    basis set group =>   5
Atom  29H    basis set group =>   5
Atom  30H    basis set group =>   5
Atom  31H    basis set group =>   5
Atom  32H    basis set group =>   5
Atom  33H    basis set group =>   5
Atom  34H    basis set group =>   5
Atom  35H    basis set group =>   5
Atom  36H    basis set group =>   5
Atom  37H    basis set group =>   5
Atom  38H    basis set group =>   5
Atom  39H    basis set group =>   5
Atom  40H    basis set group =>   5

Checking for AutoStart:
The File: sp_gas.gbw exists
Trying to determine its content:
     ... Fine, the file contains calculation information
     ... Fine, the calculation information was read
     ... Fine, the file contains a basis set
     ... Fine, the basis set was read
     ... Fine, the file contains a geometry
     ... Fine, the geometry was read
     ... Fine, the file contains a set of orbitals
     ... Fine, the orbitals can be read
     => possible old guess file was deleted
     => GBW file was renamed to GES file
     => GES file is set as startup file
     => Guess is set to MORead
     ... now leaving AutoStart

------------------------------------------------------------------------------
                             ORCA STARTUP CALCULATIONS
                           -- RI-GTO INTEGRALS CHOSEN --
------------------------------------------------------------------------------
------------------------------------------------------------------------------
                   ___                                                        
                  /   \      - P O W E R E D   B Y -                         
                 /     \                                                     
                 |  |  |   _    _      __       _____    __    __             
                 |  |  |  | |  | |    /  \     |  _  \  |  |  /  |          
                  \  \/   | |  | |   /    \    | | | |  |  | /  /          
                 / \  \   | |__| |  /  /\  \   | |_| |  |  |/  /          
                |  |  |   |  __  | /  /__\  \  |    /   |      \           
                |  |  |   | |  | | |   __   |  |    \   |  |\   \          
                \     /   | |  | | |  |  |  |  | |\  \  |  | \   \       
                 \___/    |_|  |_| |__|  |__|  |_| \__\ |__|  \__/        
                                                                              
                      - O R C A' S   B I G   F R I E N D -                    
                                      &                                       
                       - I N T E G R A L  F E E D E R -                       
                                                                              
 v1 FN, 2020, v2 2021, v3 2022-2024                                           
------------------------------------------------------------------------------


----------------------
SHARK INTEGRAL PACKAGE
----------------------

Number of atoms                             ...     41
Number of basis functions                   ...    539
Number of shells                            ...    253
Maximum angular momentum                    ...      2
Integral batch strategy                     ... SHARK/LIBINT Hybrid
RI-J (if used) integral strategy            ... SPLIT-RIJ (Revised 2003 algorithm where possible)
Printlevel                                  ...      1
Contraction scheme used                     ... SEGMENTED contraction
Prescreening option                         ... SCHWARTZ
   Thresh                                   ... 1.000e-10
   Tcut                                     ... 1.000e-11
   Tpresel                                  ... 1.000e-11 
Coulomb Range Separation                    ... NOT USED
Exchange Range Separation                   ... NOT USED
Multipole approximations                    ... NOT USED
Finite Nucleus Model                        ... NOT USED
CABS basis                                  ... NOT available
Auxiliary Coulomb fitting basis             ... AVAILABLE
   # of basis functions in Aux-J            ...   1185
   # of shells in Aux-J                     ...    407
   Maximum angular momentum in Aux-J        ...      4
Auxiliary J/K fitting basis                 ... NOT available
Auxiliary Correlation fitting basis         ... NOT available
Auxiliary 'external' fitting basis          ... NOT available

Checking pre-screening integrals            ... done (  0.1 sec) Dimension = 253
Check shell pair data                       ... done (  0.0 sec)
Shell pair information
Shell pair cut-off parameter TPreSel        ...   1.0e-11
Total number of shell pairs                 ...     32131
Shell pairs after pre-screening             ...     21205
Total number of primitive shell pairs       ...    124843
Primitive shell pairs kept                  ...     49574
          la=0 lb=0:   5988 shell pairs
          la=1 lb=0:   7681 shell pairs
          la=1 lb=1:   2527 shell pairs
          la=2 lb=0:   2844 shell pairs
          la=2 lb=1:   1815 shell pairs
          la=2 lb=2:    350 shell pairs

Calculating one electron integrals          ... done (  0.1 sec)
Calculating RI/J V-Matrix + Cholesky decomp.... done (  0.3 sec)
Calculating Nuclear repulsion               ... done (  0.1 sec) ENN=   2777.291975580286 Eh

Diagonalization of the overlap matrix:
Smallest eigenvalue                        ... 2.737e-04
Time for diagonalization                   ...    0.032 sec
Threshold for overlap eigenvalues          ... 1.000e-07
Number of eigenvalues below threshold      ... 0
Time for construction of square roots      ...    0.123 sec
Total time needed                          ...    0.217 sec

-------------------
DFT GRID GENERATION
-------------------

General Integration Accuracy     IntAcc      ... 4.388
Radial Grid Type                 RadialGrid  ... OptM3 with GC (2021)
Angular Grid (max. ang.)         AngularGrid ... 4 (Lebedev-302)
Angular grid pruning method      GridPruning ... 4 (adaptive)
Weight generation scheme         WeightScheme... mBecke (2022)
Basis function cutoff            BFCut       ... 1.0000e-10
Integration weight cutoff        WCut        ... 1.0000e-14
Partially contracted basis set               ... off
Rotationally invariant grid construction     ... off
Angular grids for H and He will be reduced by one unit
Diffuse basis detected: some atoms will have their outermost
                        angular grid increased by 1.

Total number of grid points                  ...   192815
Total number of batches                      ...     3034
Average number of points per batch           ...       63
Average number of grid points per atom       ...     4703
Initializing property integral containers    ... done (  0.3 sec)

SHARK setup successfully completed in   3.8 seconds

Maximum memory used throughout the entire STARTUP-calculation: 101.3 MB
-------------------------------------------------------------------------------
                                 ORCA GUESS
                   Start orbitals & Density for SCF / CASSCF
-------------------------------------------------------------------------------

------------
SCF SETTINGS
------------
Hamiltonian:
 Density Functional     Method          .... DFT(GTOs)
  Functional kind                       .... Exchange
  Functional name                       .... Re-regularized SCAN exchange by Furness et al
  Functional family                     .... MGGA
  Functional refs                              
    [ 0] J. W. Furness, A. D. Kaplan, J. Ning, J. P. Perdew, and J. Sun.,  J. Phys. Chem. Lett. 11, 8208-8215 (2020), doi: 10.1021/acs.jpclett.0c02405
    [ 1] J. W. Furness, A. D. Kaplan, J. Ning, J. P. Perdew, and J. Sun.,  J. Phys. Chem. Lett. 11, 9248-9248 (2020), doi: 10.1021/acs.jpclett.0c03077
  Functional external parameters        .... 6
    Parameter  0 _c1        =  6.670000e-01 : c1 parameter        
    Parameter  1 _c2        =  8.000000e-01 : c2 parameter        
    Parameter  2 _d         =  1.240000e+00 : d parameter         
    Parameter  3 _k1        =  6.500000e-02 : k1 parameter        
    Parameter  4 _eta       =  1.000000e-03 : eta parameter       
    Parameter  5 _dp2       =  3.610000e-01 : dp2 parameter       
  Functional kind                       .... Correlation
  Functional name                       .... Re-regularized SCAN correlation by Furness et al
  Functional family                     .... MGGA
  Functional refs                              
    [ 0] J. W. Furness, A. D. Kaplan, J. Ning, J. P. Perdew, and J. Sun.,  J. Phys. Chem. Lett. 11, 8208-8215 (2020), doi: 10.1021/acs.jpclett.0c02405
    [ 1] J. W. Furness, A. D. Kaplan, J. Ning, J. P. Perdew, and J. Sun.,  J. Phys. Chem. Lett. 11, 9248-9248 (2020), doi: 10.1021/acs.jpclett.0c03077
  Functional external parameters        .... 1
    Parameter  0 _eta       =  1.000000e-03 : Regularization parameter
 Gradients option       PostSCFGGA      .... off
 RI-approximation to the Coulomb term is turned on
   Number of AuxJ basis functions       .... 1185


General Settings:
 Integral files         IntName         .... sp_gas
 Hartree-Fock type      HFTyp           .... RHF
 Total Charge           Charge          ....    0
 Multiplicity           Mult            ....    1
 Number of Electrons    NEL             ....  202
 Basis Dimension        Dim             ....  539
 Nuclear Repulsion      ENuc            ....   2777.2919755803 Eh

Convergence Acceleration:
 AO-DIIS                CNVDIIS         .... on
   Start iteration      DIISMaxIt       ....    12
   Startup error        DIISStart       ....  0.200000
   # of expansion vecs  DIISMaxEq       ....     5
   Bias factor          DIISBfac        ....   1.050
   Max. coefficient     DIISMaxC        ....  10.000
 MO-DIIS                CNVKDIIS        .... off
 Trust-Rad. Augm. Hess. CNVTRAH         .... auto
   Auto Start mean grad. ratio tolernc. ....  1.125000
   Auto Start start iteration           ....     1
   Auto Start num. interpolation iter.  ....    10
   Max. Number of Micro iterations      ....    24
   Max. Number of Macro iterations      .... Maxiter - #DIIS iter
   Number of Davidson start vectors     ....     2
   Converg. threshold    (grad. norm)   ....   3.330e-04
   Grad. Scal. Fac. for Micro threshold ....   0.100
   Minimum threshold for Micro iter.    ....   1.000e-02
   NR start threshold (gradient norm)   ....   1.000e-04
   Initial trust radius                 ....   0.400
   Minimum AH scaling param. (alpha)    ....   1.000
   Maximum AH scaling param. (alpha)    .... 1000.000
   Quad. conv. algorithm                .... NR
   White noise on init. David. guess    .... on
   Maximum white noise                  ....   0.010
   Pseudo random numbers                .... off
   Inactive MOs                         .... canonical
   Orbital update algorithm             .... Taylor
   Preconditioner                       .... Diag
   Full preconditioner red. dimension   ....   250
   COSX micro iterations for RIJONX calc.... off
 SOSCF                  CNVSOSCF        .... on
   Start iteration      SOSCFMaxIt      ....   150
   Startup grad/error   SOSCFStart      ....  0.003300
   Hessian update       SOSCFHessUp     .... L-BFGS
 Level Shifting         CNVShift        .... on
   Level shift para.    LevelShift      ....    0.2500
   Turn off err/grad.   ShiftErr        ....    0.0010
 Zerner damping         CNVZerner       .... off
 Static damping         CNVDamp         .... on
   Fraction old density DampFac         ....    0.7000
   Max. Damping (<1)    DampMax         ....    0.9800
   Min. Damping (>=0)   DampMin         ....    0.0000
   Turn off err/grad.   DampErr         ....    0.1000

SCF Procedure:
 Maximum # iterations   MaxIter         ....   125
 SCF integral mode      SCFMode         .... Direct
   Integral package                     .... SHARK and LIBINT hybrid scheme
 Reset frequency        DirectResetFreq ....    20
 Integral Threshold     Thresh          ....  1.000e-10 Eh
 Primitive CutOff       TCut            ....  1.000e-11 Eh

Convergence Tolerance:
 Convergence Check Mode ConvCheckMode   .... Total+1el-Energy
 Convergence forced     ConvForced      .... 0
 Energy Change          TolE            ....  1.000e-06 Eh
 1-El. energy change                    ....  1.000e-03 Eh
 Orbital Gradient       TolG            ....  3.330e-04
 Orbital Rotation angle TolX            ....  3.330e-04
 DIIS Error             TolErr          ....  1.000e-06

---------------------
INITIAL GUESS: MOREAD
---------------------
Guess MOs are being read from file: sp_gas.ges
Input Geometry matches current geometry (good)
Atom 0: N(Shells)= 9 and 6 - projection required
Input basis set needs projection
NBasis(read)= 334
NBasis(calc)= 539
Basis set overlap was calculated
Using GuessMode=FMatrix for the initial guess
C*T matrix was formed
Effective Fockian was calculated
Effective Fockian was diagonalized
Initial density was built
                      ------------------
                      INITIAL GUESS DONE (   0.2 sec)
                      ------------------
             **** ENERGY FILE WAS UPDATED (sp_gas.en.tmp) ****
Finished Guess after   1.2 sec
Maximum memory used throughout the entire GUESS-calculation: 58.7 MB

-------------------------------------------------------------------------------------------
                                      ORCA LEAN-SCF
                              memory conserving SCF solver
-------------------------------------------------------------------------------------------

----------------------------------------D-I-I-S--------------------------------------------
Iteration    Energy (Eh)           Delta-E    RMSDP     MaxDP     DIISErr   Damp  Time(sec)
-------------------------------------------------------------------------------------------
               ***  Starting incremental Fock matrix formation  ***
    1    -2932.0108462435214278     0.00e+00  2.18e-03  1.22e-01  6.36e-01  0.700   8.6
    2    -2932.1537482093258404    -1.43e-01  1.78e-03  8.14e-02  4.47e-01  0.700   7.2
    3    -2932.2547119874411692    -1.01e-01  1.30e-03  5.51e-02  3.13e-01  0.700   7.2
    4    -2932.3255466410632835    -7.08e-02  9.34e-04  3.89e-02  2.20e-01  0.700   7.0
                               ***Turning on AO-DIIS***
    5    -2932.3752065506837425    -4.97e-02  6.76e-04  2.78e-02  1.54e-01  0.700   7.0
    6    -2932.4100031599850809    -3.48e-02  4.79e-04  1.96e-02  1.07e-01  0.700   6.7
    7    -2932.4343902456535034    -2.44e-02  3.37e-04  1.38e-02  7.52e-02  0.700   6.7
    8    -2932.4514740792697012    -1.71e-02  7.91e-04  3.22e-02  5.27e-02  0.000   6.2
                              *** Initializing SOSCF ***
---------------------------------------S-O-S-C-F--------------------------------------
Iteration    Energy (Eh)           Delta-E    RMSDP     MaxDP     MaxGrad    Time(sec)
--------------------------------------------------------------------------------------
    9    -2932.4913788632225078    -3.99e-02  5.27e-06  1.83e-04  1.23e-04     6.6
               *** Restarting incremental Fock matrix formation ***
   10    -2932.4913793415566943    -4.78e-07  5.34e-06  1.91e-04  3.44e-05     8.4
                  *** Gradient check signals convergence ***

               *****************************************************
               *                     SUCCESS                       *
               *           SCF CONVERGED AFTER  10 CYCLES          *
               *****************************************************

             **** ENERGY FILE WAS UPDATED (sp_gas.en.tmp) ****

----------------
TOTAL SCF ENERGY
----------------

Total Energy       :      -2932.49137934155669 Eh          -79797.14724 eV

Components:
Nuclear Repulsion  :       2777.29197558028636 Eh           75573.95676 eV
Electronic Energy  :      -5709.78335492184306 Eh         -155371.10400 eV
One Electron Energy:      -9575.84112369059221 Eh         -260571.88419 eV
Two Electron Energy:       3866.05776876874916 Eh          105200.78019 eV

Virial components:
Potential Energy   :      -5856.14901816536621 Eh         -159353.91618 eV
Kinetic Energy     :       2923.65763882380998 Eh           79556.76894 eV
Virial Ratio       :          2.00302146886162

DFT components:
N(Alpha)           :      100.999927198574 electrons
N(Beta)            :      100.999927198574 electrons
N(Total)           :      201.999854397147 electrons
E(X)               :     -233.535986658307 Eh       
E(C)               :       -7.117322346838 Eh       
E(XC)              :     -240.653309005145 Eh       

---------------
SCF CONVERGENCE
---------------

  Last Energy change         ...    4.7833e-07  Tolerance :   1.0000e-06
  Last MAX-Density change    ...    1.9145e-04  Tolerance :   1.0000e-05
  Last RMS-Density change    ...    5.3415e-06  Tolerance :   1.0000e-06
  Last DIIS Error            ...    1.2313e-04  Tolerance :   1.0000e-06
  Last Orbital Gradient      ...    3.4415e-05  Tolerance :   3.3300e-04
  Last Orbital Rotation      ...    9.9920e-05  Tolerance :   3.3300e-04


----------------
ORBITAL ENERGIES
----------------

  NO   OCC          E(Eh)            E(eV) 
   0   2.0000     -88.575353     -2410.2579 
   1   2.0000     -88.573703     -2410.2130 
   2   2.0000     -88.519891     -2408.7487 
   3   2.0000     -88.519314     -2408.7330 
   4   2.0000     -76.912329     -2092.8909 
   5   2.0000     -76.912031     -2092.8828 
   6   2.0000     -18.993040      -516.8269 
   7   2.0000     -18.989628      -516.7340 
   8   2.0000     -18.987062      -516.6642 
   9   2.0000     -18.985887      -516.6322 
  10   2.0000     -10.105128      -274.9745 
  11   2.0000     -10.099445      -274.8199 
  12   2.0000     -10.096500      -274.7397 
  13   2.0000     -10.096383      -274.7365 
  14   2.0000     -10.094191      -274.6769 
  15   2.0000     -10.034310      -273.0475 
  16   2.0000     -10.031984      -272.9842 
  17   2.0000     -10.026639      -272.8387 
  18   2.0000     -10.021329      -272.6942 
  19   2.0000      -7.869594      -214.1425 
  20   2.0000      -7.868095      -214.1018 
  21   2.0000      -7.814679      -212.6482 
  22   2.0000      -7.814158      -212.6341 
  23   2.0000      -6.591016      -179.3507 
  24   2.0000      -6.590547      -179.3379 
  25   2.0000      -5.816481      -158.2745 
  26   2.0000      -5.814981      -158.2337 
  27   2.0000      -5.813476      -158.1927 
  28   2.0000      -5.811944      -158.1510 
  29   2.0000      -5.806692      -158.0081 
  30   2.0000      -5.805190      -157.9672 
  31   2.0000      -5.762281      -156.7996 
  32   2.0000      -5.761750      -156.7852 
  33   2.0000      -5.754934      -156.5997 
  34   2.0000      -5.754748      -156.5947 
  35   2.0000      -5.754527      -156.5886 
  36   2.0000      -5.754116      -156.5774 
  37   2.0000      -4.736338      -128.8823 
  38   2.0000      -4.735968      -128.8722 
  39   2.0000      -4.735924      -128.8711 
  40   2.0000      -4.735459      -128.8584 
  41   2.0000      -4.734862      -128.8421 
  42   2.0000      -4.734411      -128.8299 
  43   2.0000      -1.049839       -28.5676 
  44   2.0000      -1.046529       -28.4775 
  45   2.0000      -1.010492       -27.4969 
  46   2.0000      -1.006605       -27.3911 
  47   2.0000      -0.802203       -21.8290 
  48   2.0000      -0.759420       -20.6649 
  49   2.0000      -0.749675       -20.3997 
  50   2.0000      -0.731372       -19.9017 
  51   2.0000      -0.728916       -19.8348 
  52   2.0000      -0.707290       -19.2464 
  53   2.0000      -0.682636       -18.5755 
  54   2.0000      -0.668376       -18.1874 
  55   2.0000      -0.630283       -17.1509 
  56   2.0000      -0.621978       -16.9249 
  57   2.0000      -0.602016       -16.3817 
  58   2.0000      -0.598450       -16.2846 
  59   2.0000      -0.590191       -16.0599 
  60   2.0000      -0.532177       -14.4813 
  61   2.0000      -0.525921       -14.3110 
  62   2.0000      -0.495989       -13.4965 
  63   2.0000      -0.493290       -13.4231 
  64   2.0000      -0.473723       -12.8907 
  65   2.0000      -0.461401       -12.5554 
  66   2.0000      -0.455113       -12.3842 
  67   2.0000      -0.451630       -12.2895 
  68   2.0000      -0.447540       -12.1782 
  69   2.0000      -0.431869       -11.7518 
  70   2.0000      -0.421260       -11.4631 
  71   2.0000      -0.410752       -11.1771 
  72   2.0000      -0.401367       -10.9217 
  73   2.0000      -0.397493       -10.8163 
  74   2.0000      -0.395713       -10.7679 
  75   2.0000      -0.388590       -10.5741 
  76   2.0000      -0.387515       -10.5448 
  77   2.0000      -0.373158       -10.1542 
  78   2.0000      -0.367797       -10.0083 
  79   2.0000      -0.366863        -9.9828 
  80   2.0000      -0.361499        -9.8369 
  81   2.0000      -0.360745        -9.8164 
  82   2.0000      -0.357567        -9.7299 
  83   2.0000      -0.352179        -9.5833 
  84   2.0000      -0.346887        -9.4393 
  85   2.0000      -0.331932        -9.0323 
  86   2.0000      -0.318779        -8.6744 
  87   2.0000      -0.314886        -8.5685 
  88   2.0000      -0.313465        -8.5298 
  89   2.0000      -0.304349        -8.2818 
  90   2.0000      -0.296662        -8.0726 
  91   2.0000      -0.293466        -7.9856 
  92   2.0000      -0.281651        -7.6641 
  93   2.0000      -0.276980        -7.5370 
  94   2.0000      -0.272465        -7.4141 
  95   2.0000      -0.245313        -6.6753 
  96   2.0000      -0.230204        -6.2642 
  97   2.0000      -0.226763        -6.1705 
  98   2.0000      -0.220059        -5.9881 
  99   2.0000      -0.213271        -5.8034 
 100   2.0000      -0.210652        -5.7321 
 101   0.0000      -0.047127        -1.2824 
 102   0.0000      -0.024594        -0.6692 
 103   0.0000       0.002559         0.0696 
 104   0.0000       0.004266         0.1161 
 105   0.0000       0.012548         0.3415 
 106   0.0000       0.028357         0.7716 
 107   0.0000       0.043123         1.1734 
 108   0.0000       0.045376         1.2347 
 109   0.0000       0.049128         1.3368 
 110   0.0000       0.068666         1.8685 
 111   0.0000       0.080686         2.1956 
*Only the first 10 virtual orbitals were printed.

                    ********************************
                    * MULLIKEN POPULATION ANALYSIS *
                    ********************************

-----------------------
MULLIKEN ATOMIC CHARGES
-----------------------
   0 C :   -0.475867
   1 C :   -0.120840
   2 O :   -0.259806
   3 P :    0.695739
   4 S :   -0.486287
   5 O :   -0.283927
   6 C :   -0.147980
   7 C :   -0.444814
   8 S :   -0.140081
   9 C :   -0.235905
  10 S :   -0.137044
  11 P :    0.711751
  12 S :   -0.489810
  13 O :   -0.256893
  14 C :   -0.160678
  15 C :   -0.443168
  16 O :   -0.289016
  17 C :   -0.160075
  18 C :   -0.438310
  19 H :    0.165361
  20 H :    0.177905
  21 H :    0.140913
  22 H :    0.158892
  23 H :    0.146933
  24 H :    0.170001
  25 H :    0.150773
  26 H :    0.146377
  27 H :    0.153171
  28 H :    0.156259
  29 H :    0.207672
  30 H :    0.208109
  31 H :    0.158163
  32 H :    0.175016
  33 H :    0.152865
  34 H :    0.146720
  35 H :    0.167940
  36 H :    0.170680
  37 H :    0.153127
  38 H :    0.155105
  39 H :    0.147406
  40 H :    0.153625
Sum of atomic charges:   -0.0000000

--------------------------------
MULLIKEN REDUCED ORBITAL CHARGES
--------------------------------
  0 C s       :     3.335696  s :     3.335696
      pz      :     1.097321  p :     3.114622
      px      :     1.005600
      py      :     1.011701
      dz2     :     0.005571  d :     0.025550
      dxz     :     0.001388
      dyz     :     0.007042
      dx2y2   :     0.004765
      dxy     :     0.006784

  1 C s       :     3.269336  s :     3.269336
      pz      :     0.940120  p :     2.797271
      px      :     1.037646
      py      :     0.819505
      dz2     :     0.012290  d :     0.054233
      dxz     :     0.004077
      dyz     :     0.014570
      dx2y2   :     0.011480
      dxy     :     0.011816

  2 O s       :     3.720048  s :     3.720048
      pz      :     1.328536  p :     4.529753
      px      :     1.684667
      py      :     1.516550
      dz2     :     0.005880  d :     0.010005
      dxz     :     0.008219
      dyz     :    -0.013863
      dx2y2   :     0.003471
      dxy     :     0.006299

  3 P s       :     5.131317  s :     5.131317
      pz      :     2.820902  p :     8.438614
      px      :     2.801605
      py      :     2.816107
      dz2     :     0.158393  d :     0.734329
      dxz     :     0.140971
      dyz     :     0.136656
      dx2y2   :     0.147220
      dxy     :     0.151089

  4 S s       :     5.912560  s :     5.912560
      pz      :     3.584541  p :    10.505964
      px      :     3.601619
      py      :     3.319804
      dz2     :     0.009790  d :     0.067764
      dxz     :     0.007459
      dyz     :     0.017410
      dx2y2   :     0.015585
      dxy     :     0.017521

  5 O s       :     3.741785  s :     3.741785
      pz      :     1.634402  p :     4.520999
      px      :     1.276961
      py      :     1.609636
      dz2     :     0.004048  d :     0.021144
      dxz     :     0.015910
      dyz     :     0.011664
      dx2y2   :    -0.007596
      dxy     :    -0.002882

  6 C s       :     3.294991  s :     3.294991
      pz      :     0.950190  p :     2.798726
      px      :     0.779356
      py      :     1.069180
      dz2     :     0.005326  d :     0.054264
      dxz     :     0.014848
      dyz     :     0.013072
      dx2y2   :     0.011446
      dxy     :     0.009572

  7 C s       :     3.314537  s :     3.314537
      pz      :     1.013373  p :     3.104449
      px      :     1.001757
      py      :     1.089319
      dz2     :     0.001315  d :     0.025827
      dxz     :     0.007900
      dyz     :     0.008188
      dx2y2   :     0.004524
      dxy     :     0.003900

  8 S s       :     5.908798  s :     5.908798
      pz      :     3.345957  p :    10.123760
      px      :     3.477272
      py      :     3.300532
      dz2     :     0.013283  d :     0.107523
      dxz     :     0.016865
      dyz     :     0.028842
      dx2y2   :     0.017867
      dxy     :     0.030666

  9 C s       :     3.176292  s :     3.176292
      pz      :     0.959102  p :     3.023713
      px      :     1.063288
      py      :     1.001324
      dz2     :     0.004448  d :     0.035900
      dxz     :     0.007470
      dyz     :     0.010048
      dx2y2   :     0.003559
      dxy     :     0.010375

 10 S s       :     5.912137  s :     5.912137
      pz      :     3.528145  p :    10.117299
      px      :     3.284174
      py      :     3.304980
      dz2     :     0.013361  d :     0.107609
      dxz     :     0.016634
      dyz     :     0.023119
      dx2y2   :     0.018168
      dxy     :     0.036326

 11 P s       :     5.136553  s :     5.136553
      pz      :     2.814713  p :     8.422712
      px      :     2.802975
      py      :     2.805024
      dz2     :     0.181754  d :     0.728983
      dxz     :     0.134257
      dyz     :     0.123645
      dx2y2   :     0.135414
      dxy     :     0.153913

 12 S s       :     5.914008  s :     5.914008
      pz      :     3.504181  p :    10.507591
      px      :     3.632876
      py      :     3.370534
      dz2     :     0.010915  d :     0.068211
      dxz     :     0.009022
      dyz     :     0.021704
      dx2y2   :     0.013542
      dxy     :     0.013027

 13 O s       :     3.725883  s :     3.725883
      pz      :     1.379324  p :     4.515610
      px      :     1.726593
      py      :     1.409693
      dz2     :     0.001708  d :     0.015399
      dxz     :     0.015046
      dyz     :    -0.014475
      dx2y2   :     0.007887
      dxy     :     0.005233

 14 C s       :     3.294369  s :     3.294369
      pz      :     1.022717  p :     2.811697
      px      :     0.998897
      py      :     0.790083
      dz2     :     0.005494  d :     0.054612
      dxz     :     0.011408
      dyz     :     0.013800
      dx2y2   :     0.015303
      dxy     :     0.008607

 15 C s       :     3.311292  s :     3.311292
      pz      :     1.064305  p :     3.106065
      px      :     0.952385
      py      :     1.089374
      dz2     :     0.002015  d :     0.025811
      dxz     :     0.007922
      dyz     :     0.006184
      dx2y2   :     0.007899
      dxy     :     0.001792

 16 O s       :     3.745274  s :     3.745274
      pz      :     1.589327  p :     4.517275
      px      :     1.357390
      py      :     1.570558
      dz2     :     0.006957  d :     0.026466
      dxz     :     0.011767
      dyz     :     0.010461
      dx2y2   :    -0.003790
      dxy     :     0.001071

 17 C s       :     3.303626  s :     3.303626
      pz      :     0.910283  p :     2.802160
      px      :     0.866286
      py      :     1.025591
      dz2     :     0.005691  d :     0.054289
      dxz     :     0.014812
      dyz     :     0.014238
      dx2y2   :     0.008489
      dxy     :     0.011058

 18 C s       :     3.310697  s :     3.310697
      pz      :     1.038233  p :     3.101798
      px      :     0.989772
      py      :     1.073793
      dz2     :     0.001191  d :     0.025815
      dxz     :     0.007641
      dyz     :     0.007776
      dx2y2   :     0.003225
      dxy     :     0.005982

 19 H s       :     0.816333  s :     0.816333
      pz      :     0.003579  p :     0.018306
      px      :     0.009909
      py      :     0.004818

 20 H s       :     0.803688  s :     0.803688
      pz      :     0.010229  p :     0.018406
      px      :     0.003582
      py      :     0.004596

 21 H s       :     0.840588  s :     0.840588
      pz      :     0.007084  p :     0.018499
      px      :     0.003693
      py      :     0.007722

 22 H s       :     0.823062  s :     0.823062
      pz      :     0.003203  p :     0.018046
      px      :     0.010672
      py      :     0.004171

 23 H s       :     0.835618  s :     0.835618
      pz      :     0.010196  p :     0.017449
      px      :     0.003560
      py      :     0.003694

 24 H s       :     0.811757  s :     0.811757
      pz      :     0.006137  p :     0.018242
      px      :     0.003406
      py      :     0.008700

 25 H s       :     0.831776  s :     0.831776
      pz      :     0.006156  p :     0.017451
      px      :     0.003020
      py      :     0.008275

 26 H s       :     0.835170  s :     0.835170
      pz      :     0.005219  p :     0.018453
      px      :     0.008719
      py      :     0.004515

 27 H s       :     0.828592  s :     0.828592
      pz      :     0.006335  p :     0.018238
      px      :     0.004307
      py      :     0.007595

 28 H s       :     0.825550  s :     0.825550
      pz      :     0.006072  p :     0.018191
      px      :     0.003974
      py      :     0.008145

 29 H s       :     0.773276  s :     0.773276
      pz      :     0.005031  p :     0.019052
      px      :     0.008404
      py      :     0.005617

 30 H s       :     0.772862  s :     0.772862
      pz      :     0.006780  p :     0.019029
      px      :     0.006832
      py      :     0.005416

 31 H s       :     0.824460  s :     0.824460
      pz      :     0.007127  p :     0.017378
      px      :     0.007829
      py      :     0.002421

 32 H s       :     0.807012  s :     0.807012
      pz      :     0.007661  p :     0.017972
      px      :     0.003480
      py      :     0.006831

 33 H s       :     0.828964  s :     0.828964
      pz      :     0.006649  p :     0.018171
      px      :     0.003731
      py      :     0.007791

 34 H s       :     0.834792  s :     0.834792
      pz      :     0.005409  p :     0.018488
      px      :     0.003726
      py      :     0.009352

 35 H s       :     0.813680  s :     0.813680
      pz      :     0.007694  p :     0.018379
      px      :     0.007122
      py      :     0.003564

 36 H s       :     0.811376  s :     0.811376
      pz      :     0.006613  p :     0.017944
      px      :     0.003684
      py      :     0.007648

 37 H s       :     0.829352  s :     0.829352
      pz      :     0.005312  p :     0.017521
      px      :     0.004659
      py      :     0.007550

 38 H s       :     0.826683  s :     0.826683
      pz      :     0.005534  p :     0.018212
      px      :     0.005190
      py      :     0.007488

 39 H s       :     0.834147  s :     0.834147
      pz      :     0.006270  p :     0.018447
      px      :     0.006941
      py      :     0.005236

 40 H s       :     0.828144  s :     0.828144
      pz      :     0.006959  p :     0.018231
      px      :     0.004293
      py      :     0.006980


------------------------
MULLIKEN OVERLAP CHARGES
------------------------
B(  0-C ,  1-C ) :   0.5241 B(  0-C ,  2-O ) :  -0.1296 B(  0-C , 19-H ) :   0.8251 
B(  0-C , 20-H ) :   0.8283 B(  0-C , 21-H ) :   0.7980 B(  0-C , 22-H ) :  -0.0794 
B(  0-C , 23-H ) :  -0.0618 B(  1-C ,  2-O ) :   0.2098 B(  1-C ,  3-P ) :  -0.1379 
B(  1-C , 19-H ) :  -0.0711 B(  1-C , 20-H ) :  -0.0712 B(  1-C , 21-H ) :  -0.0723 
B(  1-C , 22-H ) :   0.8495 B(  1-C , 23-H ) :   0.8082 B(  2-O ,  3-P ) :   0.6749 
B(  2-O ,  4-S ) :  -0.0878 B(  2-O ,  5-O ) :  -0.2322 B(  2-O ,  8-S ) :  -0.1329 
B(  2-O , 22-H ) :  -0.0704 B(  2-O , 23-H ) :  -0.0865 B(  3-P ,  4-S ) :   1.2195 
B(  3-P ,  5-O ) :   0.5822 B(  3-P ,  6-C ) :  -0.1742 B(  3-P ,  8-S ) :   0.7066 
B(  3-P ,  9-C ) :  -0.0890 B(  4-S ,  5-O ) :  -0.1065 B(  4-S ,  8-S ) :  -0.0998 
B(  5-O ,  6-C ) :   0.2769 B(  5-O ,  7-C ) :  -0.0998 B(  5-O ,  8-S ) :  -0.1147 
B(  5-O , 24-H ) :  -0.0883 B(  5-O , 25-H ) :  -0.0838 B(  6-C ,  7-C ) :   0.5008 
B(  6-C , 24-H ) :   0.8511 B(  6-C , 25-H ) :   0.7633 B(  6-C , 26-H ) :  -0.0719 
B(  6-C , 27-H ) :  -0.0547 B(  6-C , 28-H ) :  -0.0731 B(  7-C , 24-H ) :  -0.0555 
B(  7-C , 26-H ) :   0.8104 B(  7-C , 27-H ) :   0.8220 B(  7-C , 28-H ) :   0.8355 
B(  8-S ,  9-C ) :   0.4117 B(  8-S , 10-S ) :  -0.1678 B(  8-S , 29-H ) :  -0.0558 
B(  8-S , 30-H ) :  -0.0730 B(  9-C , 10-S ) :   0.4052 B(  9-C , 11-P ) :  -0.0956 
B(  9-C , 29-H ) :   0.7840 B(  9-C , 30-H ) :   0.7813 B( 10-S , 11-P ) :   0.6992 
B( 10-S , 12-S ) :  -0.1046 B( 10-S , 13-O ) :  -0.1345 B( 10-S , 16-O ) :  -0.1089 
B( 10-S , 29-H ) :  -0.0747 B( 10-S , 30-H ) :  -0.0555 B( 11-P , 12-S ) :   1.2213 
B( 11-P , 13-O ) :   0.6039 B( 11-P , 14-C ) :  -0.1815 B( 11-P , 16-O ) :   0.5496 
B( 11-P , 17-C ) :  -0.1803 B( 12-S , 13-O ) :  -0.0855 B( 12-S , 16-O ) :  -0.0858 
B( 13-O , 14-C ) :   0.2572 B( 13-O , 15-C ) :  -0.1500 B( 13-O , 16-O ) :  -0.2094 
B( 13-O , 31-H ) :  -0.1018 B( 13-O , 32-H ) :  -0.0683 B( 14-C , 15-C ) :   0.3997 
B( 14-C , 31-H ) :   0.8107 B( 14-C , 32-H ) :   0.8683 B( 14-C , 33-H ) :  -0.0655 
B( 14-C , 34-H ) :  -0.0679 B( 14-C , 35-H ) :  -0.0697 B( 15-C , 31-H ) :  -0.0532 
B( 15-C , 32-H ) :  -0.0991 B( 15-C , 33-H ) :   0.8150 B( 15-C , 34-H ) :   0.7966 
B( 15-C , 35-H ) :   0.8212 B( 16-O , 17-C ) :   0.2860 B( 16-O , 18-C ) :  -0.1141 
B( 16-O , 36-H ) :  -0.0908 B( 16-O , 37-H ) :  -0.0811 B( 17-C , 18-C ) :   0.4994 
B( 17-C , 36-H ) :   0.8408 B( 17-C , 37-H ) :   0.7764 B( 17-C , 38-H ) :  -0.0695 
B( 17-C , 39-H ) :  -0.0690 B( 17-C , 40-H ) :  -0.0585 B( 18-C , 36-H ) :  -0.0517 
B( 18-C , 38-H ) :   0.8323 B( 18-C , 39-H ) :   0.8074 B( 18-C , 40-H ) :   0.8250 
B( 22-H , 23-H ) :  -0.0503 B( 24-H , 25-H ) :  -0.0661 B( 36-H , 37-H ) :  -0.0691 



                     *******************************
                     * LOEWDIN POPULATION ANALYSIS *
                     *******************************

----------------------
LOEWDIN ATOMIC CHARGES
----------------------
   0 C :   -0.403155
   1 C :    0.028213
   2 O :   -0.659995
   3 P :    0.376339
   4 S :   -0.134774
   5 O :   -0.664753
   6 C :    0.019173
   7 C :   -0.386588
   8 S :    0.177776
   9 C :   -0.418093
  10 S :    0.169026
  11 P :    0.374398
  12 S :   -0.132690
  13 O :   -0.666533
  14 C :    0.017552
  15 C :   -0.399086
  16 O :   -0.663554
  17 C :    0.019443
  18 C :   -0.385414
  19 H :    0.164595
  20 H :    0.166719
  21 H :    0.155756
  22 H :    0.177632
  23 H :    0.176522
  24 H :    0.180813
  25 H :    0.171396
  26 H :    0.159715
  27 H :    0.159382
  28 H :    0.160391
  29 H :    0.189920
  30 H :    0.189600
  31 H :    0.181666
  32 H :    0.182128
  33 H :    0.158992
  34 H :    0.159352
  35 H :    0.164993
  36 H :    0.180219
  37 H :    0.172362
  38 H :    0.160346
  39 H :    0.160188
  40 H :    0.160026

-------------------------------
LOEWDIN REDUCED ORBITAL CHARGES
-------------------------------
  0 C s       :     2.975351  s :     2.975351
      pz      :     1.163528  p :     3.367359
      px      :     1.112379
      py      :     1.091453
      dz2     :     0.013551  d :     0.060445
      dxz     :     0.002671
      dyz     :     0.017493
      dx2y2   :     0.010913
      dxy     :     0.015817

  1 C s       :     2.875860  s :     2.875860
      pz      :     0.980532  p :     2.974651
      px      :     1.083937
      py      :     0.910182
      dz2     :     0.030490  d :     0.121276
      dxz     :     0.006641
      dyz     :     0.031705
      dx2y2   :     0.023181
      dxy     :     0.029259

  2 O s       :     3.464235  s :     3.464235
      pz      :     1.506765  p :     4.719652
      px      :     1.665857
      py      :     1.547029
      dz2     :     0.127740  d :     0.476109
      dxz     :     0.086107
      dyz     :     0.110800
      dx2y2   :     0.068113
      dxy     :     0.083349

  3 P s       :     4.652284  s :     4.652284
      pz      :     2.786665  p :     8.389223
      px      :     2.754958
      py      :     2.847600
      dz2     :     0.279280  d :     1.582154
      dxz     :     0.343816
      dyz     :     0.329540
      dx2y2   :     0.268298
      dxy     :     0.361220

  4 S s       :     5.566766  s :     5.566766
      pz      :     3.537226  p :    10.429381
      px      :     3.549239
      py      :     3.342916
      dz2     :     0.017780  d :     0.138627
      dxz     :     0.015449
      dyz     :     0.040500
      dx2y2   :     0.028470
      dxy     :     0.036427

  5 O s       :     3.468750  s :     3.468750
      pz      :     1.630673  p :     4.729397
      px      :     1.446106
      py      :     1.652619
      dz2     :     0.060627  d :     0.466605
      dxz     :     0.121579
      dyz     :     0.078267
      dx2y2   :     0.102606
      dxy     :     0.103526

  6 C s       :     2.876035  s :     2.876035
      pz      :     1.010325  p :     2.983381
      px      :     0.887396
      py      :     1.085661
      dz2     :     0.009295  d :     0.121410
      dxz     :     0.035412
      dyz     :     0.031194
      dx2y2   :     0.025235
      dxy     :     0.020273

  7 C s       :     2.973863  s :     2.973863
      pz      :     1.114969  p :     3.351838
      px      :     1.086760
      py      :     1.150109
      dz2     :     0.002529  d :     0.060888
      dxz     :     0.018940
      dyz     :     0.020211
      dx2y2   :     0.010451
      dxy     :     0.008756

  8 S s       :     5.436514  s :     5.436514
      pz      :     3.334206  p :    10.084584
      px      :     3.417935
      py      :     3.332444
      dz2     :     0.037506  d :     0.301126
      dxz     :     0.060522
      dyz     :     0.081401
      dx2y2   :     0.041113
      dxy     :     0.080584

  9 C s       :     3.010379  s :     3.010379
      pz      :     1.082296  p :     3.324273
      px      :     1.130817
      py      :     1.111160
      dz2     :     0.008174  d :     0.083442
      dxz     :     0.016931
      dyz     :     0.025600
      dx2y2   :     0.007316
      dxy     :     0.025421

 10 S s       :     5.434683  s :     5.434683
      pz      :     3.490068  p :    10.092836
      px      :     3.265719
      py      :     3.337049
      dz2     :     0.036808  d :     0.303455
      dxz     :     0.055929
      dyz     :     0.062593
      dx2y2   :     0.046624
      dxy     :     0.101501

 11 P s       :     4.649307  s :     4.649307
      pz      :     2.794136  p :     8.393132
      px      :     2.759516
      py      :     2.839481
      dz2     :     0.330874  d :     1.583163
      dxz     :     0.309032
      dyz     :     0.326954
      dx2y2   :     0.247676
      dxy     :     0.368627

 12 S s       :     5.565244  s :     5.565244
      pz      :     3.475955  p :    10.428745
      px      :     3.572290
      py      :     3.380500
      dz2     :     0.017261  d :     0.138702
      dxz     :     0.017621
      dyz     :     0.053173
      dx2y2   :     0.025060
      dxy     :     0.025588

 13 O s       :     3.461675  s :     3.461675
      pz      :     1.540921  p :     4.718552
      px      :     1.686861
      py      :     1.490770
      dz2     :     0.102356  d :     0.486306
      dxz     :     0.087172
      dyz     :     0.129840
      dx2y2   :     0.085342
      dxy     :     0.081597

 14 C s       :     2.875337  s :     2.875337
      pz      :     1.050321  p :     2.984840
      px      :     1.067384
      py      :     0.867135
      dz2     :     0.010670  d :     0.122271
      dxz     :     0.026283
      dyz     :     0.032530
      dx2y2   :     0.035740
      dxy     :     0.017048

 15 C s       :     2.974893  s :     2.974893
      pz      :     1.140324  p :     3.363185
      px      :     1.075689
      py      :     1.147173
      dz2     :     0.003995  d :     0.061007
      dxz     :     0.018299
      dyz     :     0.016001
      dx2y2   :     0.019208
      dxy     :     0.003503

 16 O s       :     3.468244  s :     3.468244
      pz      :     1.600630  p :     4.727376
      px      :     1.501670
      py      :     1.625076
      dz2     :     0.072192  d :     0.467933
      dxz     :     0.110571
      dyz     :     0.090898
      dx2y2   :     0.090824
      dxy     :     0.103448

 17 C s       :     2.875950  s :     2.875950
      pz      :     0.972480  p :     2.983318
      px      :     0.956790
      py      :     1.054048
      dz2     :     0.011267  d :     0.121290
      dxz     :     0.034371
      dyz     :     0.033803
      dx2y2   :     0.017079
      dxy     :     0.024768

 18 C s       :     2.973128  s :     2.973128
      pz      :     1.128481  p :     3.351422
      px      :     1.083164
      py      :     1.139777
      dz2     :     0.002169  d :     0.060864
      dxz     :     0.018779
      dyz     :     0.019446
      dx2y2   :     0.006561
      dxy     :     0.013909

 19 H s       :     0.791512  s :     0.791512
      pz      :     0.008020  p :     0.043893
      px      :     0.024550
      py      :     0.011323

 20 H s       :     0.788689  s :     0.788689
      pz      :     0.025678  p :     0.044593
      px      :     0.008196
      py      :     0.010719

 21 H s       :     0.800310  s :     0.800310
      pz      :     0.017315  p :     0.043935
      px      :     0.008255
      py      :     0.018365

 22 H s       :     0.779934  s :     0.779934
      pz      :     0.007294  p :     0.042434
      px      :     0.025757
      py      :     0.009383

 23 H s       :     0.783478  s :     0.783478
      pz      :     0.022686  p :     0.040000
      px      :     0.008161
      py      :     0.009152

 24 H s       :     0.775950  s :     0.775950
      pz      :     0.014141  p :     0.043236
      px      :     0.007578
      py      :     0.021517

 25 H s       :     0.787706  s :     0.787706
      pz      :     0.013860  p :     0.040898
      px      :     0.007336
      py      :     0.019701

 26 H s       :     0.796392  s :     0.796392
      pz      :     0.012621  p :     0.043893
      px      :     0.021037
      py      :     0.010235

 27 H s       :     0.797246  s :     0.797246
      pz      :     0.015034  p :     0.043372
      px      :     0.009903
      py      :     0.018435

 28 H s       :     0.796198  s :     0.796198
      pz      :     0.014426  p :     0.043411
      px      :     0.008672
      py      :     0.020314

 29 H s       :     0.762357  s :     0.762357
      pz      :     0.012491  p :     0.047722
      px      :     0.021030
      py      :     0.014201

 30 H s       :     0.762663  s :     0.762663
      pz      :     0.017295  p :     0.047737
      px      :     0.016770
      py      :     0.013672

 31 H s       :     0.778314  s :     0.778314
      pz      :     0.016288  p :     0.040019
      px      :     0.018636
      py      :     0.005095

 32 H s       :     0.775109  s :     0.775109
      pz      :     0.018892  p :     0.042763
      px      :     0.008188
      py      :     0.015683

 33 H s       :     0.797502  s :     0.797502
      pz      :     0.016113  p :     0.043505
      px      :     0.008307
      py      :     0.019084

 34 H s       :     0.796640  s :     0.796640
      pz      :     0.012520  p :     0.044008
      px      :     0.008438
      py      :     0.023050

 35 H s       :     0.790690  s :     0.790690
      pz      :     0.019173  p :     0.044317
      px      :     0.017388
      py      :     0.007756

 36 H s       :     0.777184  s :     0.777184
      pz      :     0.015216  p :     0.042597
      px      :     0.008371
      py      :     0.019010

 37 H s       :     0.786465  s :     0.786465
      pz      :     0.011852  p :     0.041172
      px      :     0.011541
      py      :     0.017779

 38 H s       :     0.796243  s :     0.796243
      pz      :     0.012987  p :     0.043410
      px      :     0.011808
      py      :     0.018615

 39 H s       :     0.795901  s :     0.795901
      pz      :     0.015400  p :     0.043912
      px      :     0.016428
      py      :     0.012084

 40 H s       :     0.796594  s :     0.796594
      pz      :     0.016744  p :     0.043380
      px      :     0.009951
      py      :     0.016684


---------------------------------
LOEWDIN BOND ORDERS (THRESH 0.050000)
---------------------------------
B(  0-C ,  1-C ) :   1.0935 B(  0-C ,  2-O ) :   0.1585 B(  0-C , 19-H ) :   0.9171 
B(  0-C , 20-H ) :   0.9177 B(  0-C , 21-H ) :   0.9168 B(  1-C ,  2-O ) :   1.2742 
B(  1-C ,  3-P ) :   0.1003 B(  1-C , 21-H ) :   0.0515 B(  1-C , 22-H ) :   0.8301 
B(  1-C , 23-H ) :   0.8319 B(  2-O ,  3-P ) :   1.5749 B(  2-O ,  4-S ) :   0.1802 
B(  2-O ,  5-O ) :   0.2257 B(  2-O ,  8-S ) :   0.1551 B(  2-O , 22-H ) :   0.0941 
B(  2-O , 23-H ) :   0.0977 B(  3-P ,  4-S ) :   2.0088 B(  3-P ,  5-O ) :   1.5607 
B(  3-P ,  6-C ) :   0.0996 B(  3-P ,  8-S ) :   1.2412 B(  3-P ,  9-C ) :   0.0896 
B(  4-S ,  5-O ) :   0.1866 B(  4-S ,  6-C ) :   0.0507 B(  4-S ,  8-S ) :   0.1476 
B(  5-O ,  6-C ) :   1.2829 B(  5-O ,  7-C ) :   0.1730 B(  5-O ,  8-S ) :   0.1507 
B(  5-O , 24-H ) :   0.0957 B(  5-O , 25-H ) :   0.0967 B(  6-C ,  7-C ) :   1.0915 
B(  6-C , 24-H ) :   0.8242 B(  6-C , 25-H ) :   0.8358 B(  6-C , 26-H ) :   0.0501 
B(  7-C , 26-H ) :   0.9180 B(  7-C , 27-H ) :   0.9219 B(  7-C , 28-H ) :   0.9228 
B(  8-S ,  9-C ) :   1.2897 B(  8-S , 10-S ) :   0.2091 B(  8-S , 29-H ) :   0.0604 
B(  8-S , 30-H ) :   0.0565 B(  9-C , 10-S ) :   1.2963 B(  9-C , 11-P ) :   0.0898 
B(  9-C , 29-H ) :   0.8435 B(  9-C , 30-H ) :   0.8434 B( 10-S , 11-P ) :   1.2301 
B( 10-S , 12-S ) :   0.1506 B( 10-S , 13-O ) :   0.1524 B( 10-S , 16-O ) :   0.1524 
B( 10-S , 29-H ) :   0.0568 B( 10-S , 30-H ) :   0.0611 B( 11-P , 12-S ) :   2.0076 
B( 11-P , 13-O ) :   1.5701 B( 11-P , 14-C ) :   0.0980 B( 11-P , 16-O ) :   1.5666 
B( 11-P , 17-C ) :   0.1019 B( 12-S , 13-O ) :   0.1839 B( 12-S , 16-O ) :   0.1804 
B( 13-O , 14-C ) :   1.2867 B( 13-O , 15-C ) :   0.1571 B( 13-O , 16-O ) :   0.2213 
B( 13-O , 31-H ) :   0.0992 B( 13-O , 32-H ) :   0.0962 B( 14-C , 15-C ) :   1.0941 
B( 14-C , 31-H ) :   0.8281 B( 14-C , 32-H ) :   0.8253 B( 14-C , 34-H ) :   0.0506 
B( 15-C , 33-H ) :   0.9230 B( 15-C , 34-H ) :   0.9168 B( 15-C , 35-H ) :   0.9146 
B( 16-O , 17-C ) :   1.2806 B( 16-O , 18-C ) :   0.1732 B( 16-O , 36-H ) :   0.0961 
B( 16-O , 37-H ) :   0.0972 B( 17-C , 18-C ) :   1.0918 B( 17-C , 36-H ) :   0.8267 
B( 17-C , 37-H ) :   0.8337 B( 17-C , 39-H ) :   0.0501 B( 18-C , 38-H ) :   0.9224 
B( 18-C , 39-H ) :   0.9177 B( 18-C , 40-H ) :   0.9214 

------------------------------------------
LOEWDIN REDUCED ORBITAL POPULATIONS PER MO
-------------------------------------------
THRESHOLD FOR PRINTING IS 0.1%%
                      0         1         2         3         4         5   
                 -88.57535 -88.57370 -88.51989 -88.51931 -76.91233 -76.91203
                   2.00000   2.00000   2.00000   2.00000   2.00000   2.00000
                  --------  --------  --------  --------  --------  --------
 3 P  s               0.0       0.0       0.0       0.0       0.0     100.0
 4 S  s               0.0       0.0       0.0     100.0       0.0       0.0
 8 S  s             100.0       0.0       0.0       0.0       0.0       0.0
10 S  s               0.0     100.0       0.0       0.0       0.0       0.0
11 P  s               0.0       0.0       0.0       0.0     100.0       0.0
12 S  s               0.0       0.0     100.0       0.0       0.0       0.0

                      6         7         8         9        10        11   
                 -18.99304 -18.98963 -18.98706 -18.98589 -10.10513 -10.09945
                   2.00000   2.00000   2.00000   2.00000   2.00000   2.00000
                  --------  --------  --------  --------  --------  --------
 2 O  s               0.0       0.0       0.0      99.9       0.0       0.0
 5 O  s               0.0      99.9       0.0       0.0       0.0       0.0
 9 C  s               0.0       0.0       0.0       0.0      99.6       0.0
13 O  s               0.0       0.0      99.9       0.0       0.0       0.0
16 O  s              99.9       0.0       0.0       0.0       0.0       0.0
16 O  dxz             0.0       0.0       0.0       0.0       0.0       0.1
17 C  s               0.0       0.0       0.0       0.0       0.0      99.4

                     12        13        14        15        16        17   
                 -10.09650 -10.09638 -10.09419 -10.03431 -10.03198 -10.02664
                   2.00000   2.00000   2.00000   2.00000   2.00000   2.00000
                  --------  --------  --------  --------  --------  --------
 1 C  s              99.4       0.0       0.0       0.0       0.0       0.0
 2 O  dyz             0.2       0.0       0.0       0.0       0.0       0.0
 5 O  dxz             0.0       0.1       0.0       0.0       0.0       0.0
 6 C  s               0.0      99.4       0.0       0.0       0.0       0.0
 7 C  s               0.0       0.0       0.0       0.0      99.7       0.0
13 O  dyz             0.0       0.0       0.1       0.0       0.0       0.0
13 O  dx2y2           0.0       0.0       0.1       0.0       0.0       0.0
14 C  s               0.0       0.0      99.4       0.0       0.0       0.0
15 C  s               0.0       0.0       0.0       0.0       0.0      99.7
18 C  s               0.0       0.0       0.0      99.7       0.0       0.0

[...]
34 H  py              0.0       0.0       0.0       0.2       0.0       0.0
36 H  s               0.1       0.4       0.0       0.0       0.0       0.0
36 H  py              0.2       0.8       0.0       0.1       0.0       0.0
37 H  s               0.1       0.3       0.0       0.0       0.0       0.0
37 H  px              0.1       0.6       0.0       0.0       0.0       0.0
37 H  py              0.0       0.2       0.0       0.0       0.0       0.0

                    522       523       524       525       526       527   
                  18.86720  18.90370  19.07953  19.18405  21.90638  21.90753
                   0.00000   0.00000   0.00000   0.00000   0.00000   0.00000
                  --------  --------  --------  --------  --------  --------
 0 C  s               0.0       0.0       0.0       0.0       0.0       0.4
 1 C  s               0.1       0.0       0.0       0.0       0.5       0.6
 3 P  s               0.2       0.0       0.0       0.1       0.0       0.0
 3 P  py              0.2       0.0       0.0       0.0       0.0       0.0
 4 S  s              93.7       0.2       0.1       4.8       0.0       0.0
 6 C  s               0.0       0.0       0.0       0.0       5.6       3.9
 7 C  s               0.0       0.0       0.0       0.0      48.3      39.7
 8 S  s               1.6       5.5      52.6      39.1       0.0       0.0
 9 C  s               0.0       0.0       0.0       0.9       0.7       0.0
10 S  s               3.6       0.0      43.9      51.3       0.0       0.0
11 P  s               0.0       0.2       0.0       0.1       0.0       0.0
11 P  pz              0.0       0.1       0.0       0.0       0.0       0.0
11 P  py              0.0       0.2       0.1       0.0       0.0       0.0
12 S  s               0.0      93.1       2.6       3.1       0.0       0.0
14 C  s               0.0       0.1       0.0       0.0       0.4       0.6
17 C  s               0.0       0.0       0.0       0.0       5.4       6.1
18 C  s               0.0       0.0       0.0       0.0      38.6      48.1

                    528       529       530       531       532       533   
                  21.96857  22.01914  22.03013  22.03227  22.05639  22.08576
                   0.00000   0.00000   0.00000   0.00000   0.00000   0.00000
                  --------  --------  --------  --------  --------  --------
 0 C  s               0.0      32.7      36.8       0.9      13.6       0.5
 1 C  s               0.7      18.5       3.1       0.3       0.2       2.8
 6 C  s               0.0      11.7      15.5      59.0       0.9       0.0
 7 C  s               0.1       5.0       0.8       5.6       0.0       0.1
 9 C  s               1.6      14.5       0.6       3.0      53.6      23.6
14 C  s               0.1       5.0       0.9       2.6      11.8      71.4
15 C  s              96.4       0.3       0.4       0.0       2.1       0.1
17 C  s               0.7      10.0      34.8      24.5      16.8       1.0
18 C  s               0.1       1.9       6.7       3.7       0.4       0.1

                    534       535       536       537       538   
                  22.09263  43.82132  43.85043  43.90048  43.93803
                   0.00000   0.00000   0.00000   0.00000   0.00000
                  --------  --------  --------  --------  --------
 0 C  s              14.8       0.0       0.0       0.0       0.0
 1 C  s              72.8       0.0       0.0       0.0       0.0
 2 O  s               0.0       2.6       6.6      75.6      15.0
 5 O  s               0.0      92.6       2.2       2.1       3.0
 6 C  s               3.0       0.0       0.0       0.0       0.0
 9 C  s               1.5       0.0       0.0       0.0       0.0
13 O  s               0.0       0.9       0.1      18.1      80.8
14 C  s               7.0       0.0       0.0       0.0       0.0
15 C  s               0.3       0.0       0.0       0.0       0.0
16 O  s               0.0       3.8      91.0       4.0       1.1
17 C  s               0.2       0.0       0.0       0.0       0.0


                      *****************************
                      * MAYER POPULATION ANALYSIS *
                      *****************************

  NA   - Mulliken gross atomic population
  ZA   - Total nuclear charge
  QA   - Mulliken gross atomic charge
  VA   - Mayer's total valence
  BVA  - Mayer's bonded valence
  FA   - Mayer's free valence

  ATOM       NA         ZA         QA         VA         BVA        FA
  0 C      6.4759     6.0000    -0.4759     3.8152     3.8152     0.0000
  1 C      6.1208     6.0000    -0.1208     3.6745     3.6745    -0.0000
  2 O      8.2598     8.0000    -0.2598     1.8621     1.8621    -0.0000
  3 P     14.3043    15.0000     0.6957     5.1694     5.1694     0.0000
  4 S     16.4863    16.0000    -0.4863     2.0248     2.0248    -0.0000
  5 O      8.2839     8.0000    -0.2839     1.8215     1.8215    -0.0000
  6 C      6.1480     6.0000    -0.1480     3.6575     3.6575    -0.0000
  7 C      6.4448     6.0000    -0.4448     3.8632     3.8632    -0.0000
  8 S     16.1401    16.0000    -0.1401     2.1925     2.1925    -0.0000
  9 C      6.2359     6.0000    -0.2359     3.7238     3.7238     0.0000
 10 S     16.1370    16.0000    -0.1370     2.1887     2.1887     0.0000
 11 P     14.2882    15.0000     0.7118     5.1268     5.1268    -0.0000
 12 S     16.4898    16.0000    -0.4898     2.0306     2.0306    -0.0000
 13 O      8.2569     8.0000    -0.2569     1.8535     1.8535     0.0000
 14 C      6.1607     6.0000    -0.1607     3.6585     3.6585    -0.0000
 15 C      6.4432     6.0000    -0.4432     3.7838     3.7838     0.0000
 16 O      8.2890     8.0000    -0.2890     1.8440     1.8440    -0.0000
 17 C      6.1601     6.0000    -0.1601     3.6647     3.6647    -0.0000
 18 C      6.4383     6.0000    -0.4383     3.8496     3.8496     0.0000
 19 H      0.8346     1.0000     0.1654     0.9578     0.9578     0.0000
 20 H      0.8221     1.0000     0.1779     0.9552     0.9552     0.0000
 21 H      0.8591     1.0000     0.1409     0.9648     0.9648     0.0000
 22 H      0.8411     1.0000     0.1589     0.9597     0.9597    -0.0000
 23 H      0.8531     1.0000     0.1469     0.9529     0.9529     0.0000
 24 H      0.8300     1.0000     0.1700     0.9542     0.9542    -0.0000
 25 H      0.8492     1.0000     0.1508     0.9467     0.9467    -0.0000
 26 H      0.8536     1.0000     0.1464     0.9640     0.9640     0.0000
 27 H      0.8468     1.0000     0.1532     0.9612     0.9612    -0.0000
 28 H      0.8437     1.0000     0.1563     0.9607     0.9607    -0.0000
 29 H      0.7923     1.0000     0.2077     0.9486     0.9486     0.0000
 30 H      0.7919     1.0000     0.2081     0.9479     0.9479     0.0000
 31 H      0.8418     1.0000     0.1582     0.9499     0.9499    -0.0000
 32 H      0.8250     1.0000     0.1750     0.9551     0.9551    -0.0000
 33 H      0.8471     1.0000     0.1529     0.9619     0.9619     0.0000
 34 H      0.8533     1.0000     0.1467     0.9643     0.9643     0.0000
 35 H      0.8321     1.0000     0.1679     0.9611     0.9611    -0.0000
 36 H      0.8293     1.0000     0.1707     0.9503     0.9503    -0.0000
 37 H      0.8469     1.0000     0.1531     0.9471     0.9471     0.0000
 38 H      0.8449     1.0000     0.1551     0.9612     0.9612    -0.0000
 39 H      0.8526     1.0000     0.1474     0.9637     0.9637    -0.0000
 40 H      0.8464     1.0000     0.1536     0.9614     0.9614    -0.0000

  Mayer bond orders larger than 0.100000
B(  0-C ,  1-C ) :   0.9457 B(  0-C , 19-H ) :   0.9683 B(  0-C , 20-H ) :   0.9633 
B(  0-C , 21-H ) :   0.9633 B(  1-C ,  2-O ) :   0.7581 B(  1-C , 22-H ) :   0.9646 
B(  1-C , 23-H ) :   0.9604 B(  2-O ,  3-P ) :   1.1845 B(  3-P ,  4-S ) :   1.7389 
B(  3-P ,  5-O ) :   1.0886 B(  3-P ,  8-S ) :   1.0644 B(  5-O ,  6-C ) :   0.7761 
B(  6-C ,  7-C ) :   0.9586 B(  6-C , 24-H ) :   0.9520 B(  6-C , 25-H ) :   0.9451 
B(  7-C , 26-H ) :   0.9648 B(  7-C , 27-H ) :   0.9719 B(  7-C , 28-H ) :   0.9725 
B(  8-S ,  9-C ) :   0.9081 B(  9-C , 10-S ) :   0.9081 B(  9-C , 29-H ) :   0.9104 
B(  9-C , 30-H ) :   0.9095 B( 10-S , 11-P ) :   1.0509 B( 11-P , 12-S ) :   1.7364 
B( 11-P , 13-O ) :   1.1567 B( 11-P , 16-O ) :   1.0917 B( 13-O , 14-C ) :   0.7775 
B( 14-C , 15-C ) :   0.9240 B( 14-C , 31-H ) :   0.9632 B( 14-C , 32-H ) :   0.9624 
B( 15-C , 33-H ) :   0.9731 B( 15-C , 34-H ) :   0.9640 B( 15-C , 35-H ) :   0.9611 
B( 16-O , 17-C ) :   0.7809 B( 17-C , 18-C ) :   0.9550 B( 17-C , 36-H ) :   0.9512 
B( 17-C , 37-H ) :   0.9453 B( 18-C , 38-H ) :   0.9715 B( 18-C , 39-H ) :   0.9644 
B( 18-C , 40-H ) :   0.9716 

-------
TIMINGS
-------

Total SCF time: 0 days 0 hours 1 min 12 sec 

Total time                  ....      72.804 sec
Sum of individual times     ....      72.281 sec  ( 99.3%)

SCF preparation             ....       0.467 sec  (  0.6%)
Fock matrix formation       ....      68.442 sec  ( 94.0%)
  Startup                   ....       0.171 sec  (  0.3% of F)
  Split-RI-J                ....      23.377 sec  ( 34.2% of F)
  XC integration            ....      43.359 sec  ( 63.4% of F)
    XC Preparation          ....       0.000 sec  (  0.0% of XC)
    Basis function eval.    ....       6.760 sec  ( 15.6% of XC)
    Density eval.           ....      16.069 sec  ( 37.1% of XC)
    XC-Functional eval.     ....       3.007 sec  (  6.9% of XC)
    XC-Potential eval.      ....      16.262 sec  ( 37.5% of XC)
Diagonalization             ....       0.000 sec  (  0.0%)
Density matrix formation    ....       0.899 sec  (  1.2%)
Total Energy calculation    ....       0.064 sec  (  0.1%)
Population analysis         ....       0.453 sec  (  0.6%)
Orbital Transformation      ....       0.270 sec  (  0.4%)
Orbital Orthonormalization  ....       0.000 sec  (  0.0%)
DIIS solution               ....       1.488 sec  (  2.0%)
  MO trafo                  ....       0.000 sec  (  0.0 % of DIIS)
  Orb grad                  ....       0.000 sec  (  0.0 % of DIIS)
  Energy W gradient         ....       0.000 sec  (  0.0 % of DIIS)
  DIIS error                ....       0.114 sec  (  7.7 % of DIIS)
  DIIS work                 ....       1.187 sec  ( 79.8 % of DIIS)
  Form Q                    ....       0.000 sec  (  0.0 % of DIIS)
  Form QpQm                 ....       0.000 sec  (  0.0 % of DIIS)
  Exp/Cayley                ....       0.000 sec  (  0.0 % of DIIS)
  Orb update                ....       0.000 sec  (  0.0 % of DIIS)
  Wake-sleep                ....       0.036 sec  (  2.4 % of DIIS)
SOSCF solution              ....       0.198 sec  (  0.3%)
  MO trafo                  ....       0.149 sec  ( 75.4 % of SOSCF)
  Orb grad                  ....       0.001 sec  (  0.5 % of SOSCF)
  Rot update                ....       0.000 sec  (  0.1 % of SOSCF)
  Step                      ....       0.047 sec  ( 23.9 % of SOSCF)
Finished LeanSCF after  72.9 sec

Maximum memory used throughout the entire LEANSCF-calculation: 73.1 MB


-------------------------------------------------------------------------------
                          DFT DISPERSION CORRECTION                            
                                                                               
                                DFTD4 V3.4.0                                   
-------------------------------------------------------------------------------
The R2SCAN3C composite method is recognized
Using three-body term ABC
Active option DFTDOPT                   ...         5   

-------------------------   ----------------
Dispersion correction           -0.021407835
-------------------------   ----------------

------------------   -----------------
gCP correction             0.046196920
------------------   -----------------

-------------------------   --------------------
FINAL SINGLE POINT ENERGY     -2932.466590257044
-------------------------   --------------------


------------------------------------------------------------------------------
                              ORCA PROPERTY CALCULATIONS
------------------------------------------------------------------------------

GBWName                                 ... sp_gas.gbw
Number of atoms                         ...     41
Number of basis functions               ...    539
Max core memory                         ...   1024 MB

Electric properties:
Dipole moment                           ... YES
Quadrupole moment                       ...  NO
Static polarizability (Dipole/Dipole)   ...  NO
Static polarizability (Dipole/Quad.)    ...  NO
Static polarizability (Quad./Quad.)     ...  NO
Static polarizability (Velocity)        ...  NO

Atomic electric properties:
Dipole moment                           ...  NO
Quadrupole moment                       ...  NO
Static polarizability                   ...  NO

Choice of electric origin               ... Center of mass
Position of electric origin             ...    -0.000003    -0.000001     0.000001

General magnetic properties:
Magnetizability                         ...  NO

EPR properties:
g-Tensor (aka g-matrix)                 ...  NO
Zero-Field splitting spin-orbit         ...  NO
Zero-field splitting spin-spin          ...  NO
Hyperfine couplings                     ...  NO (   0 nuclei)
Quadrupole couplings                    ...  NO (   0 nuclei)
Contact density                         ...  NO (   0 nuclei)

NMR properties:
Chemical shifts                         ...  NO (   0 nuclei)
Spin-rotation constants                 ...  NO (   0 nuclei)
Spin-spin couplings                     ...  NO (   0 nuclei,    0 pairs)

Choice of magnetic origin               ... GIAO
Position of magnetic origin             ...     0.000000     0.000000     0.000000

Properties with geometric perturbations:
SCF Hessian                             ...  NO
IR spectrum                             ...  NO
VCD spectrum                            ...  NO
X-ray spectroscopy properties:
SCF XES/XAS/RIXS spectra                ...  NO


-------------
DIPOLE MOMENT
-------------

Method             : SCF
Type of density    : Electron Density
Multiplicity       :   1
Irrep              :   0
Energy             : -2932.4913793415566943 Eh
Relativity type    : 
Basis              : AO
                                X                 Y                 Z
Electronic contribution:      5.259719052       1.789393145     -15.126809658
Nuclear contribution   :     -5.413299782      -1.799450076      16.162877581
                        -----------------------------------------
Total Dipole Moment    :     -0.153580729      -0.010056931       1.036067923
                        -----------------------------------------
Magnitude (a.u.)       :      1.047437312
Magnitude (Debye)      :      2.662374065



--------------------
Rotational spectrum 
--------------------
 
Rotational constants in cm-1:             0.013347             0.004777             0.004629 
Rotational constants in MHz :           400.145686           143.201859           138.770978 

Dipole components along the rotational axes: 
x,y,z [a.u.] :    -0.077949     0.070480     1.042152 
x,y,z [Debye]:    -0.198131     0.179147     2.648941 

 

Dipole moment calculation done in   0.3 sec 

Maximum memory used throughout the entire PROP-calculation: 51.4 MB

--------------------------------
SUGGESTED CITATIONS FOR THIS RUN
--------------------------------

Below you find a list of papers that are relevant to this ORCA run
We neither can nor want to force you to cite these papers, but we appreciate if you do
You receive ORCA, which is the product of decades of hard work by many enthusiastic individuals, for free
The only thing we kindly ask in return is that you cite our papers,
We deeply appreciate it, if you show your appreciation for ORCA by not just citing the generic ORCA reference.

Please note that relegating all ORCA citations to the supporting information does *not* help us.
SI sections are not indexed - citations you put there will not count into any citation statistics
But we need these citations in order to attract the funding resources that allow us to do what we are doing

Therefore, if you are a happy ORCA user, please consider citing a few of the papers listed below in the main body of your paper

In addition to the list printed below, the program has created the file sp_gas.bibtex that contains the list in bibtex format
You can import this file easily into all common literature databanks and citation aid programs


List of essential papers. We consider these as the minimum necessary citations

  1. Neese,F.
     Software update: the ORCA program system, version 5.0
     WIRES Comput. Molec. Sci., 2022 12(1)e1606
     doi.org/10.1002/wcms.1606
  2. Grimme,S.; Hansen,A.; Ehlert,S.; Mewes,J.
     r2SCAN-3c: A 'Swiss army knife' composite electronic-structure method
     J. Chem. Phys., 2021 154 064103
     doi.org/10.1063/5.0040021

List of papers to cite with high priority. The work reported in these papers was absolutely
necessary for this run to complete.
Our perspective: the developers of density functionals and basis sets usually get cited in chemistry papers
Good! But without the algorithms to do something with them, the functionals or basis sets would not do anything.
Hence, in our opinion, the algorithm design and method developments papers are equally worthy of getting cited

  1. Neese,F.
     An improvement of the resolution of the identity approximation for the formation of the Coulomb matrix
     J. Comp. Chem., 2003 24(14)1740-1747
     doi.org/10.1002/jcc.10318
  2. Neese,F.
     The SHARK Integral Generation and Digestion System
     J. Comp. Chem., 2022  1-16
     doi.org/10.1002/jcc.26942
  3. Lehtola,S.; Steigemann,C.; Oliveira,M.; Marques,M.
     Recent developments in Libxc - A comprehensive library of functionals for density functional theory
     Software X, 2018 7 
     doi.org/10.1016/j.softx.2017.11.002
  4. Caldeweyher,E.; Bannwarth,C.; Grimme,S.
     Extension of the D3 dispersion coefficient model
     J. Chem. Phys., 2017 147 034112-XXXX
     doi.org/10.1063/1.4993215
  5. Caldeweyher,E.; Ehlert,S.; Hansen,A.; Neugebauer,H.; Spicher,S.; Bannwarth,C.; Grimme,S.
     A generally applicable atomic-charge dependent London dispersion correction
     J. Chem. Phys., 2019 150 154122-XXXX
     doi.org/10.1063/1.5090222
  6. Caldeweyher,E.; Mewes,J.; Ehlert,S.; Grimme,S.
     Extension and evaluation of the D4 London-dispersion model for periodic systems
     Phys. Chem. Chem. Phys., 2020 22(16)8499-8512
     doi.org/10.1039/D0CP00502A

List of suggested additional citations. These are papers that are important in the 'surrounding' of 
of this run, or papers that preceded the highly important papers. If you like your results we are grateful for a citation.

  1. Neese,F.
     The ORCA program system
     WIRES Comput. Molec. Sci., 2012 2(1)73-78
     doi.org/10.1002/wcms.81
  2. Neese,F.
     Software update: the ORCA program system, version 4.0
     WIRES Comput. Molec. Sci., 2018 8(1)1-6
     doi.org/10.1002/wcms.1327
  3. Neese,F.; Wennmohs,F.; Becker,U.; Riplinger,C.
     The ORCA quantum chemistry program package
     J. Chem. Phys., 2020 152 Art. No. L224108
     doi.org/10.1063/5.0004608

List of optional additional citations

  1. Neese,F.
     Approximate second-order SCF convergence for spin unrestricted wavefunctions
     Chem. Phys. Lett., 2000 325(1-3)93-98
     doi.org/10.1016/s0009-2614(00)00662-x

Timings for individual modules:

Sum of individual times          ...       78.540 sec (=   1.309 min)
Startup calculation              ...        3.830 sec (=   0.064 min)   4.9 %
SCF iterations                   ...       74.249 sec (=   1.237 min)  94.5 %
Property calculations            ...        0.461 sec (=   0.008 min)   0.6 %
                             ****ORCA TERMINATED NORMALLY****
TOTAL RUN TIME: 0 days 0 hours 1 minutes 19 seconds 364 msec
