      -----------------------------------------------------------      
     |                   =====================                   |     
     |                           x T B                           |     
     |                   =====================                   |     
     |                         S. Grimme                         |     
     |          Mulliken Center for Theoretical Chemistry        |     
     |                    University of Bonn                     |     
      -----------------------------------------------------------      

   * xtb version 6.7.1 (edcfbbe) compiled by 'albert@albert-system' on 2024-07-22

   xtb is free software: you can redistribute it and/or modify it under
   the terms of the GNU Lesser General Public License as published by
   the Free Software Foundation, either version 3 of the License, or
   (at your option) any later version.
   
   xtb is distributed in the hope that it will be useful,
   but WITHOUT ANY WARRANTY; without even the implied warranty of
   MERCHANTABILITY or FITNESS FOR A PARTICULAR PURPOSE.  See the
   GNU Lesser General Public License for more details.
   
   Cite this work as:
   * C. Bannwarth, E. Caldeweyher, S. Ehlert, A. Hansen, P. Pracht,
     J. Seibert, S. Spicher, S. Grimme, WIREs Comput. Mol. Sci., 2020, 11,
     e01493. DOI: 10.1002/wcms.1493
   
   for GFN2-xTB:
   * C. Bannwarth, S. Ehlert and S. Grimme., J. Chem. Theory Comput., 2019,
     15, 1652-1671. DOI: 10.1021/acs.jctc.8b01176
   for GFN1-xTB:
   * S. Grimme, C. Bannwarth, P. Shushkov, J. Chem. Theory Comput., 2017,
     13, 1989-2009. DOI: 10.1021/acs.jctc.7b00118
   for GFN0-xTB:
   * P. Pracht, E. Caldeweyher, S. Ehlert, S. Grimme, ChemRxiv, 2019, preprint.
     DOI: 10.26434/chemrxiv.8326202.v1
   for GFN-FF:
   * S. Spicher and S. Grimme, Angew. Chem. Int. Ed., 2020, 59, 15665-15673.
     DOI: 10.1002/anie.202004239
   
   for ALPB and GBSA implicit solvation:
   * S. Ehlert, M. Stahn, S. Spicher, S. Grimme, J. Chem. Theory Comput.,
     2021, 17, 4250-4261. DOI: 10.1021/acs.jctc.1c00471
   
   for ddCOSMO and CPCM-X implicit solvation:
   * M. Stahn, S. Ehlert, S. Grimme, J. Phys. Chem. A,
     2023, XX, XXXX-XXXX. DOI: 10.1021/acs.jpca.3c04382
   
   for DFT-D4:
   * E. Caldeweyher, C. Bannwarth and S. Grimme, J. Chem. Phys., 2017,
     147, 034112. DOI: 10.1063/1.4993215
   * E. Caldeweyher, S. Ehlert, A. Hansen, H. Neugebauer, S. Spicher,
     C. Bannwarth and S. Grimme, J. Chem. Phys., 2019, 150, 154122.
     DOI: 10.1063/1.5090222
   * E. Caldeweyher, J.-M. Mewes, S. Ehlert and S. Grimme, Phys. Chem. Chem. Phys.
     2020, 22, 8499-8512. DOI: 10.1039/D0CP00502A
   
   for sTDA-xTB:
   * S. Grimme and C. Bannwarth, J. Chem. Phys., 2016, 145, 054103.
     DOI: 10.1063/1.4959605
   
   in the mass-spec context:
   * V. Asgeirsson, C. Bauer and S. Grimme, Chem. Sci., 2017, 8, 4879.
     DOI: 10.1039/c7sc00601b
   * J. Koopman and S. Grimme, ACS Omega 2019, 4, 12, 15120-15133.
     DOI: 10.1021/acsomega.9b02011
   
   for metadynamics refer to:
   * S. Grimme, J. Chem. Theory Comput., 2019, 155, 2847-2862
     DOI: 10.1021/acs.jctc.9b00143
   
   for SPH calculations refer to:
   * S. Spicher and S. Grimme, J. Chem. Theory Comput., 2021, 17, 1701-1714
     DOI: 10.1021/acs.jctc.0c01306
   
   for ONIOM refer to:
   * C. Plett, A. Katbashev, S. Ehlert, S. Grimme, M. Bursch,
     Phys. Chem. Chem. Phys., 2023, 25, 17860-17868. DOI: 10.1039/D3CP02178E
   
   for DIPRO refer to:
   * J. Kohn, N. Gildemeister, S. Grimme, D. Fazzi, A. Hansen,
     J. Chem. Phys., 2023, just accepted.
   
   for PTB refer to:
   * S. Grimme, M. Mueller, A. Hansen, J. Chem. Phys., 2023, 158, 124111.
     DOI: 10.1063/5.0137838
   
   with help from (in alphabetical order)
   P. Atkinson, C. Bannwarth, F. Bohle, G. Brandenburg, E. Caldeweyher
   M. Checinski, S. Dohm, S. Ehlert, S. Ehrlich, I. Gerasimov, C. Hölzer
   A. Katbashev, J. Kohn, J. Koopman, C. Lavigne, S. Lehtola, F. März, M. Müller,
   F. Musil, H. Neugebauer, J. Pisarek, C. Plett, P. Pracht, F. Pultar,
   J. Seibert, P. Shushkov, S. Spicher, M. Stahn, M. Steiner, T. Strunk,
   J. Stückrath, T. Rose, and J. Unsleber
   
 * started run on 2025/04/10 at 06:15:01.443     
   ID    Z sym.   atoms
    1    6 C      1, 2, 7, 8, 10, 15, 16, 18, 19
    2    8 O      3, 6, 14, 17
    3   15 P      4, 12
    4   16 S      5, 9, 11, 13
    5    1 H      20-41

           -------------------------------------------------
          |                Calculation Setup                |
           -------------------------------------------------

          program call               : /srv/scratch/z5358697/.xtb/bin/xtb xtb_opt.coord --opt normal --orca -I xtb_opt-xcontrol-inp
          hostname                   : k163
          coordinate file            : xtb_opt.coord
          omp threads                :                    24

           -------------------------------------------------
          |                   Orca driver                   |
           -------------------------------------------------
orca executable           : /apps/z_install_tree/linux-rocky8-ivybridge/gcc-12.2.0/orca-6.0.0-srtngmq3qlimg2qxbl6avaaiffipurdx/bin/orca
orca input file           : xtb_opt.inp
orca input line           : 
orca parallel             : true
orca number of threads    : 24
                         * ORCA takes the control...
  ------------------------------------------------------------------------

                                 *****************
                                 * O   R   C   A *
                                 *****************

                                            #,                                       
                                            ###                                      
                                            ####                                     
                                            #####                                    
                                            ######                                   
                                           ########,                                 
                                     ,,################,,,,,                         
                               ,,#################################,,                 
                          ,,##########################################,,             
                       ,#########################################, ''#####,          
                    ,#############################################,,   '####,        
                  ,##################################################,,,,####,       
                ,###########''''           ''''###############################       
              ,#####''   ,,,,##########,,,,          '''####'''          '####       
            ,##' ,,,,###########################,,,                        '##       
           ' ,,###''''                  '''############,,,                           
         ,,##''                                '''############,,,,        ,,,,,,###''
      ,#''                                            '''#######################'''  
     '                                                          ''''####''''         
             ,#######,   #######,   ,#######,      ##                                
            ,#'     '#,  ##    ##  ,#'     '#,    #''#        ,####,   ,####,        
            ##       ##  ##   ,#'  ##            #'  '#       #'       #'  '#        
            ##       ##  #######   ##           ,######,      #####,   #    #        
            '#,     ,#'  ##    ##  '#,     ,#' ,#      #,     #,   #   #,  ,#        
             '#######'   ##     ##  '#######'  #'      '#     '####' # '####'        



                #########################################################
                #                        -***-                          #
                #          Department of theory and spectroscopy        #
                #                                                       #
                #                      Frank Neese                      #
                #                                                       #
                #     Directorship, Architecture, Infrastructure        #
                #                    SHARK, DRIVERS                     #
                #        Core code/Algorithms in most modules           #
                #                                                       #
                #        Max Planck Institute fuer Kohlenforschung      #
                #                Kaiser Wilhelm Platz 1                 #
                #                 D-45470 Muelheim/Ruhr                 #
                #                      Germany                          #
                #                                                       #
                #                  All rights reserved                  #
                #                        -***-                          #
                #########################################################


                         Program Version 6.0.0  -   RELEASE  -


 With contributions from (in alphabetic order):
   Daniel Aravena         : Magnetic Suceptibility
   Michael Atanasov       : Ab Initio Ligand Field Theory (pilot matlab implementation)
   Alexander A. Auer      : GIAO ZORA, VPT2 properties, NMR spectrum
   Ute Becker             : All parallelization in ORCA, NUMFREQ, NUMCALC
   Giovanni Bistoni       : ED, misc. LED, open-shell LED, HFLD
   Martin Brehm           : Molecular dynamics
   Dmytro Bykov           : pre 5.0 version of the SCF Hessian
   Marcos Casanova-Páez   : Triplet and SCS-CIS(D). UHF-(DLPNO)-IP/EA/STEOM-CCSD. UHF-CVS-IP/STEOM-CCSD
   Vijay G. Chilkuri      : MRCI spin determinant printing, contributions to CSF-ICE
   Pauline Colinet        : FMM embedding
   Dipayan Datta          : RHF DLPNO-CCSD density
   Achintya Kumar Dutta   : EOM-CC, STEOM-CC
   Nicolas Foglia         : Exact transition moments, OPA infrastructure, MCD improvements
   Dmitry Ganyushin       : Spin-Orbit,Spin-Spin,Magnetic field MRCI
   Miquel Garcia          : C-PCM and meta-GGA Hessian, CCSD/C-PCM, Gaussian charge scheme
   Tiago L. C. Gouveia    : GS-ROHF, GS-ROCIS
   Yang Guo               : DLPNO-NEVPT2, F12-NEVPT2, CIM, IAO-localization
   Andreas Hansen         : Spin unrestricted coupled pair/coupled cluster methods
   Ingolf Harden          : AUTO-CI MPn and infrastructure 
   Benjamin Helmich-Paris : MC-RPA, TRAH-(SCF,CASSCF), AVAS, COSX integrals, SCF dyn. polar.
   Lee Huntington         : MR-EOM, pCC
   Robert Izsak           : Overlap fitted RIJCOSX, COSX-SCS-MP3, EOM
   Riya Kayal             : Wick's Theorem for AUTO-CI, AUTO-CI UHF-CCSDT
   Emily Kempfer          : AUTO-CI, RHF CISDT and CCSDT
   Christian Kollmar      : KDIIS, OOCD, Brueckner-CCSD(T), CCSD density, CASPT2, CASPT2-K, improved NEVPT2
   Axel Koslowski         : Symmetry handling
   Simone Kossmann        : Meta GGA functionals, TD-DFT gradient, OOMP2, (MP2 Hessian; deprecated post 5.0)
   Lucas Lang             : DCDCAS
   Marvin Lechner         : AUTO-CI (C++ implementation), FIC-MRCC
   Spencer Leger          : CASSCF response
   Dagmar Lenk            : GEPOL surface, SMD, ORCA-2-JSON
   Dimitrios Liakos       : Extrapolation schemes; Compound Job, initial MDCI parallelization
   Dimitrios Manganas     : Further ROCIS development; embedding schemes. LFT, Crystal Embedding
   Dimitrios Pantazis     : SARC Basis sets
   Anastasios Papadopoulos: AUTO-CI, single reference methods and gradients
   Taras Petrenko         : pre 6.0 DFT Hessian and TD-DFT gradient, (ASA, deprecated), ECA, 1-Electron XAS/XES, NRVS
   Peter Pinski           : DLPNO-MP2, DLPNO-MP2 Gradient
   Christoph Reimann      : Effective Core Potentials
   Marius Retegan         : Local ZFS, SOC
   Christoph Riplinger    : Optimizer, TS searches, QM/MM, DLPNO-CCSD(T), (RO)-DLPNO pert. Triples
   Michael Roemelt        : Original ROCIS implementation
   Masaaki Saitow         : Open-shell DLPNO-CCSD energy and density
   Barbara Sandhoefer     : DKH picture change effects
   Kantharuban Sivalingam : CASSCF convergence/infrastructure, NEVPT2 and variants, FIC-MRCI
   Bernardo de Souza      : ESD, SOC TD-DFT
   Georgi Stoychev        : AutoAux, RI-MP2 NMR, DLPNO-MP2 response, X2C
   Van Anh Tran           : RI-MP2 g-tensors
   Willem Van den Heuvel  : Paramagnetic NMR
   Zikuan Wang            : NOTCH, Electric field optimization 
   Frank Wennmohs         : Technical directorship and infrastructure
   Hang Xu                : AUTO-CI-Response properties 


 We gratefully acknowledge several colleagues who have allowed us to
 interface, adapt or use parts of their codes:
   Stefan Grimme, W. Hujo, H. Kruse, P. Pracht,  : VdW corrections, initial TS optimization,
                  C. Bannwarth, S. Ehlert,         DFT functionals, gCP, sTDA/sTD-DF
                  L. Wittmann, M. Mueller
   Ed Valeev, F. Pavosevic, A. Kumar             : LibInt (2-el integral package), F12 methods
   Garnet Chan, S. Sharma, J. Yang, R. Olivares  : DMRG
   Ulf Ekstrom                                   : XCFun DFT Library
   Mihaly Kallay                                 : mrcc  (arbitrary order and MRCC methods)
   Frank Weinhold                                : gennbo (NPA and NBO analysis)
   Simon Mueller                                 : openCOSMO-RS
   Christopher J. Cramer and Donald G. Truhlar   : smd solvation model
   Lars Goerigk                                  : TD-DFT with DH, B97 family of functionals
   V. Asgeirsson, H. Jonsson                     : NEB implementation
   FAccTs GmbH                                   : IRC, NEB, NEB-TS, DLPNO-Multilevel, CI-OPT
                                                   MM, QMMM, 2- and 3-layer-ONIOM, Crystal-QMMM,
                                                   LR-CPCM, SF, NACMEs, symmetry and pop. for TD-DFT,
                                                   nearIR, NL-DFT gradient (VV10), updates on ESD,
                                                   ML-optimized integration grids, MBIS, APM,
                                                   GOAT, DOCKER, SOLVATOR, interface openCOSMO-RS
   S Lehtola, MJT Oliveira, MAL Marques          : LibXC Library
   Liviu Ungur et al                             : ANISO software


 Your calculation uses the libint2 library for the computation of 2-el integrals
 For citations please refer to: http://libint.valeyev.net

 Your ORCA version has been built with support for libXC version: 6.2.2
 For citations please refer to: https://libxc.gitlab.io

 This ORCA versions uses:
   CBLAS   interface :  Fast vector & matrix operations
   LAPACKE interface :  Fast linear algebra routines
   SCALAPACK package :  Parallel linear algebra routines
   Shared memory     :  Shared parallel matrices
   BLAS/LAPACK       :  OpenBLAS 0.3.27  USE64BITINT DYNAMIC_ARCH NO_AFFINITY SapphireRapids SINGLE_THREADED
        Core in use  :  SapphireRapids
   Copyright (c) 2011-2014, The OpenBLAS Project




***************************************
The coordinates will be read from file: xtb_opt.xyz
***************************************


Your calculation utilizes the geometrical counterpoise correction gCP
Please cite in your paper:
H.Kruse, S. Grimme J.Chem.Phys., 136, (2012), 154101 
   

Your calculation utilizes the atom-pairwise dispersion correction
based on EEQ partial charges (D4)


Your calculation utilizes the SMD solvation module
Please cite in your paper:
A.V. Marenich, C.J. Cramer, D.G. Truhlar J. Phys. Chem. B, 113, (2009), 6378 

================================================================================

----- Orbital basis set information -----
Your calculation utilizes the basis: def2-mTZVPP
   Stefan Grimme, Andreas Hansen, Sebastian Ehlert, and Jan-Michael Mewes 
   J. Chem. Phys. 154, 064103 (2021). DOI: 10.1063/5.0040021

----- AuxJ basis set information -----
Your calculation utilizes the auxiliary basis: def2/J
   F. Weigend, Phys. Chem. Chem. Phys. 8, 1057 (2006).

================================================================================
                                        WARNINGS
                       Please study these warnings very carefully!
================================================================================

WARNING: Old DensityContainer found on disk!
         Will remove this file - 
         If you want to keep old densities, please start your calculation with a different basename. 

Using LibXC functional ID 497 : Re-regularized SCAN exchange by Furness et al
[ 1]  J. W. Furness, A. D. Kaplan, J. Ning, J. P. Perdew, and J. Sun.,  J. Phys. Chem. Lett. 11, 8208-8215 (2020)
[ 2]  J. W. Furness, A. D. Kaplan, J. Ning, J. P. Perdew, and J. Sun.,  J. Phys. Chem. Lett. 11, 9248-9248 (2020)
Using LibXC functional ID 498 : Re-regularized SCAN correlation by Furness et al
[ 1]  J. W. Furness, A. D. Kaplan, J. Ning, J. P. Perdew, and J. Sun.,  J. Phys. Chem. Lett. 11, 8208-8215 (2020)
[ 2]  J. W. Furness, A. D. Kaplan, J. Ning, J. P. Perdew, and J. Sun.,  J. Phys. Chem. Lett. 11, 9248-9248 (2020)
Using LibXC functional ID 497 : Re-regularized SCAN exchange by Furness et al
[ 1]  J. W. Furness, A. D. Kaplan, J. Ning, J. P. Perdew, and J. Sun.,  J. Phys. Chem. Lett. 11, 8208-8215 (2020)
[ 2]  J. W. Furness, A. D. Kaplan, J. Ning, J. P. Perdew, and J. Sun.,  J. Phys. Chem. Lett. 11, 9248-9248 (2020)
Using LibXC functional ID 498 : Re-regularized SCAN correlation by Furness et al
[ 1]  J. W. Furness, A. D. Kaplan, J. Ning, J. P. Perdew, and J. Sun.,  J. Phys. Chem. Lett. 11, 8208-8215 (2020)
[ 2]  J. W. Furness, A. D. Kaplan, J. Ning, J. P. Perdew, and J. Sun.,  J. Phys. Chem. Lett. 11, 9248-9248 (2020)

================================================================================
                                       INPUT FILE
================================================================================
NAME = xtb_opt.inp
|  1> ! r2scan-3c def2/J RI DEFGRID2 scfconv7 ENGRAD tightSCF miniprint
|  2> %cpcm
|  3>     smd true
|  4>     smdsolvent "water"
|  5> end
|  6> * xyzfile 0 1 xtb_opt.xyz
|  7> 
|  8>                          ****END OF INPUT****
================================================================================

                     *******************************
                     * Energy+Gradient Calculation *
                     *******************************

---------------------------------
CARTESIAN COORDINATES (ANGSTROEM)
---------------------------------
  C      5.094018   -1.468723   -0.674192
  C      4.882766   -0.134267   -0.004754
  O      3.544937   -0.022916    0.592398
  P      2.222658    0.297372   -0.270207
  S      2.458981    1.277167   -1.936861
  O      1.271524    0.968711    0.836291
  C      1.195989    2.425760    1.014615
  C      2.434614    2.972476    1.681220
  S      1.400536   -1.647084   -0.420798
  C     -0.009360   -1.371380   -1.585085
  S     -1.651322   -1.817668   -0.904462
  P     -2.311305    0.028152   -0.071372
  S     -1.977870    1.603470   -1.157060
  O     -1.679258    0.179743    1.389915
  C     -1.873271   -0.840721    2.435508
  C     -0.656945   -0.816279    3.322572
  O     -3.833072   -0.361819    0.275396
  C     -4.859822   -0.461068   -0.774452
  C     -6.199290   -0.271113   -0.112932
  H      4.453203   -1.584941   -1.552571
  H      6.136388   -1.532155   -1.002543
  H      4.901896   -2.291331    0.020572
  H      5.018796    0.700180   -0.698866
  H      5.552665   -0.001257    0.847023
  H      1.017873    2.881691    0.036579
  H      0.308405    2.558772    1.636165
  H      3.316747    2.865568    1.042534
  H      2.283474    4.039042    1.876792
  H      2.621544    2.469252    2.634079
  H      0.144447   -2.028937   -2.443167
  H     -0.015028   -0.332228   -1.932102
  H     -2.786597   -0.575257    2.974600
  H     -2.005270   -1.819878    1.964216
  H      0.236863   -1.114190    2.767107
  H     -0.500692    0.179929    3.745827
  H     -0.805690   -1.522221    4.145410
  H     -4.666452    0.310527   -1.526045
  H     -4.769388   -1.448925   -1.236039
  H     -6.371954   -1.033591    0.651554
  H     -6.271615    0.719683    0.344981
  H     -6.982342   -0.360094   -0.872383

----------------------------
CARTESIAN COORDINATES (A.U.)
----------------------------
  NO LB      ZA    FRAG     MASS         X           Y           Z
   0 C     6.0000    0    12.011    9.626298   -2.775485   -1.274038
   1 C     6.0000    0    12.011    9.227090   -0.253728   -0.008984
   2 O     8.0000    0    15.999    6.698960   -0.043305    1.119469
   3 P    15.0000    0    30.974    4.200215    0.561951   -0.510617
   4 S    16.0000    0    32.060    4.646800    2.413496   -3.660137
   5 O     8.0000    0    15.999    2.402833    1.830599    1.580361
   6 C     6.0000    0    12.011    2.260091    4.584022    1.917344
   7 C     6.0000    0    12.011    4.600753    5.617165    3.177046
   8 S    16.0000    0    32.060    2.646629   -3.112537   -0.795193
   9 C     6.0000    0    12.011   -0.017689   -2.591532   -2.995376
  10 S    16.0000    0    32.060   -3.120547   -3.434895   -1.709185
  11 P    15.0000    0    30.974   -4.367734    0.053199   -0.134873
  12 S    16.0000    0    32.060   -3.737633    3.030118   -2.186527
  13 O     8.0000    0    15.999   -3.173337    0.339665    2.626558
  14 C     6.0000    0    12.011   -3.539970   -1.588732    4.602443
  15 C     6.0000    0    12.011   -1.241446   -1.542543    6.278751
  16 O     8.0000    0    15.999   -7.243456   -0.683740    0.520422
  17 C     6.0000    0    12.011   -9.183733   -0.871293   -1.463502
  18 C     6.0000    0    12.011  -11.714961   -0.512330   -0.213411
  19 H     1.0000    0     1.008    8.415334   -2.995105   -2.933934
  20 H     1.0000    0     1.008   11.596093   -2.895353   -1.894532
  21 H     1.0000    0     1.008    9.263240   -4.329989    0.038875
  22 H     1.0000    0     1.008    9.484149    1.323149   -1.320665
  23 H     1.0000    0     1.008   10.493016   -0.002375    1.600641
  24 H     1.0000    0     1.008    1.923502    5.445607    0.069125
  25 H     1.0000    0     1.008    0.582801    4.835378    3.091903
  26 H     1.0000    0     1.008    6.267744    5.415139    1.970104
  27 H     1.0000    0     1.008    4.315141    7.632683    3.546622
  28 H     1.0000    0     1.008    4.954001    4.666209    4.977688
  29 H     1.0000    0     1.008    0.272965   -3.834135   -4.616917
  30 H     1.0000    0     1.008   -0.028399   -0.627819   -3.651145
  31 H     1.0000    0     1.008   -5.265905   -1.087079    5.621180
  32 H     1.0000    0     1.008   -3.789412   -3.439070    3.711830
  33 H     1.0000    0     1.008    0.447607   -2.105513    5.229075
  34 H     1.0000    0     1.008   -0.946171    0.340017    7.078588
  35 H     1.0000    0     1.008   -1.522533   -2.876581    7.833689
  36 H     1.0000    0     1.008   -8.818317    0.586812   -2.883806
  37 H     1.0000    0     1.008   -9.012837   -2.738071   -2.335775
  38 H     1.0000    0     1.008  -12.041248   -1.953204    1.231259
  39 H     1.0000    0     1.008  -11.851635    1.360004    0.651920
  40 H     1.0000    0     1.008  -13.194714   -0.680479   -1.648565

------------------------------------------------------------------------------
                   ___                                                        
                  /   \      - P O W E R E D   B Y -                         
                 /     \                                                     
                 |  |  |   _    _      __       _____    __    __             
                 |  |  |  | |  | |    /  \     |  _  \  |  |  /  |          
                  \  \/   | |  | |   /    \    | | | |  |  | /  /          
                 / \  \   | |__| |  /  /\  \   | |_| |  |  |/  /          
                |  |  |   |  __  | /  /__\  \  |    /   |      \           
                |  |  |   | |  | | |   __   |  |    \   |  |\   \          
                \     /   | |  | | |  |  |  |  | |\  \  |  | \   \       
                 \___/    |_|  |_| |__|  |__|  |_| \__\ |__|  \__/        
                                                                              
                      - O R C A' S   B I G   F R I E N D -                    
                                      &                                       
                       - I N T E G R A L  F E E D E R -                       
                                                                              
 v1 FN, 2020, v2 2021, v3 2022-2024                                           
------------------------------------------------------------------------------


----------------------
SHARK INTEGRAL PACKAGE
----------------------

Number of atoms                             ...     41
Number of basis functions                   ...    539
Number of shells                            ...    253
Maximum angular momentum                    ...      2
Integral batch strategy                     ... SHARK/LIBINT Hybrid
RI-J (if used) integral strategy            ... SPLIT-RIJ (Revised 2003 algorithm where possible)
Printlevel                                  ...      1
Contraction scheme used                     ... SEGMENTED contraction
Prescreening option                         ... SCHWARTZ
   Thresh                                   ... 3.000e-11
   Tcut                                     ... 1.000e-12
   Tpresel                                  ... 1.000e-12 
Coulomb Range Separation                    ... NOT USED
Exchange Range Separation                   ... NOT USED
Multipole approximations                    ... NOT USED
Finite Nucleus Model                        ... NOT USED
CABS basis                                  ... NOT available
Auxiliary Coulomb fitting basis             ... AVAILABLE
   # of basis functions in Aux-J            ...   1185
   # of shells in Aux-J                     ...    407
   Maximum angular momentum in Aux-J        ...      4
Auxiliary J/K fitting basis                 ... NOT available
Auxiliary Correlation fitting basis         ... NOT available
Auxiliary 'external' fitting basis          ... NOT available

Checking pre-screening integrals            ... done (  0.0 sec) Dimension = 253
Check shell pair data                       ... done (  0.0 sec)
Shell pair information
Shell pair cut-off parameter TPreSel        ...   1.0e-12
Total number of shell pairs                 ...     32131
Shell pairs after pre-screening             ...     21557
Total number of primitive shell pairs       ...    124843
Primitive shell pairs kept                  ...     50538
          la=0 lb=0:   6096 shell pairs
          la=1 lb=0:   7832 shell pairs
          la=1 lb=1:   2561 shell pairs
          la=2 lb=0:   2867 shell pairs
          la=2 lb=1:   1844 shell pairs
          la=2 lb=2:    357 shell pairs

Calculating one electron integrals          ... done (  0.1 sec)
Calculating RI/J V-Matrix + Cholesky decomp.... done (  0.1 sec)
Calculating Nuclear repulsion               ... done (  0.0 sec) ENN=   2720.095888626433 Eh

Diagonalization of the overlap matrix:
Smallest eigenvalue                        ... 3.203e-04
Time for diagonalization                   ...    0.038 sec
Threshold for overlap eigenvalues          ... 1.000e-07
Number of eigenvalues below threshold      ... 0
Time for construction of square roots      ...    0.053 sec
Total time needed                          ...    0.101 sec

-------------------
DFT GRID GENERATION
-------------------

General Integration Accuracy     IntAcc      ... 4.388
Radial Grid Type                 RadialGrid  ... OptM3 with GC (2021)
Angular Grid (max. ang.)         AngularGrid ... 4 (Lebedev-302)
Angular grid pruning method      GridPruning ... 4 (adaptive)
Weight generation scheme         WeightScheme... mBecke (2022)
Basis function cutoff            BFCut       ... 1.0000e-11
Integration weight cutoff        WCut        ... 1.0000e-14
Partially contracted basis set               ... off
Rotationally invariant grid construction     ... off
Angular grids for H and He will be reduced by one unit
Diffuse basis detected: some atoms will have their outermost
                        angular grid increased by 1.

Total number of grid points                  ...   192881
Total number of batches                      ...     3034
Average number of points per batch           ...       63
Average number of grid points per atom       ...     4704
Initializing property integral containers    ... done (  0.0 sec)

SHARK setup successfully completed in   3.2 seconds

Maximum memory used throughout the entire STARTUP-calculation: 102.3 MB
Occupation numbers will be reassigned to an Aufbau configuration
             **** ENERGY FILE WAS UPDATED (xtb_opt.en.tmp) ****
Finished Guess after   0.7 sec
Maximum memory used throughout the entire GUESS-calculation: 55.8 MB
--------------------
CPCM SOLVATION MODEL
--------------------
CPCM parameters:
  Epsilon                                         ...      78.3550
  Refrac                                          ...       1.3328
  Rsolv                                           ...       1.3000
  Surface type                                    ... GAUSSIAN VDW
  Discretization scheme                           ... Constant charge density
    Threshold for H atoms                         ...       5.0000 (charges/Ang^2)
    Threshold for non-H atoms                     ...       5.0000 (charges/Ang^2)
  Epsilon function type                           ...         CPCM
Solvent:                                          ... WATER
SMD-CDS solvent descriptors:
  Soln                                            ...       1.3328
  Soln25                                          ...       1.3323
  Sola                                            ...       0.0000
  Solb                                            ...       0.0000
  Solg                                            ...       0.0000
  Solc                                            ...       0.0000
  Solh                                            ...       0.0000
Radii:
  Scheme                                          ... Element-dependent radii
  Radius for C  used is    3.4960 Bohr (=   1.8500 Ang.)
  Radius for O  used is    2.8724 Bohr (=   1.5200 Ang.)
  Radius for P  used is    4.0062 Bohr (=   2.1200 Ang.)
  Radius for S  used is    4.7054 Bohr (=   2.4900 Ang.)
  Radius for H  used is    2.2677 Bohr (=   1.2000 Ang.)
Calculating surface                               ...        done! (  0.0s)
Cavity surface points                             ...         3560
Cavity Volume                                     ...    2845.1521
Cavity Surface-area                               ...    1437.7821
Calculating surface distance matrix               ...        done! (  0.1s)
Performing Cholesky decomposition & store         ...        done! (  0.5s)
Overall time for CPCM initialization              ...                 0.6s

----------------------------------------D-I-I-S--------------------------------------------
Iteration    Energy (Eh)           Delta-E    RMSDP     MaxDP     DIISErr   Damp  Time(sec)
-------------------------------------------------------------------------------------------
               ***  Starting incremental Fock matrix formation  ***
                              *** Initializing SOSCF ***
---------------------------------------S-O-S-C-F--------------------------------------
Iteration    Energy (Eh)           Delta-E    RMSDP     MaxDP     MaxGrad    Time(sec)
--------------------------------------------------------------------------------------
    1    -2932.5194291955240260     0.00e+00  1.32e-06  8.96e-05  7.74e-06    14.4
               *** Restarting incremental Fock matrix formation ***
    2    -2932.5194291962152420    -6.91e-10  1.92e-06  1.22e-04  2.05e-05    13.6
                  *** Gradient check signals convergence ***

               *****************************************************
               *                     SUCCESS                       *
               *           SCF CONVERGED AFTER   2 CYCLES          *
               *****************************************************


SMD CDS free energy correction energy :                 7.04534     Kcal/mol
Total Energy after SMD CDS correction =             -2932.508201739 Eh
             **** ENERGY FILE WAS UPDATED (xtb_opt.en.tmp) ****

----------------
TOTAL SCF ENERGY
----------------

Total Energy       :      -2932.50820173886314 Eh          -79797.60500 eV

Components:
Nuclear Repulsion  :       2720.09588862643341 Eh           74017.57211 eV
Electronic Energy  :      -5652.58686180169207 Eh         -153814.70830 eV
One Electron Energy:      -9463.36554991241428 Eh         -257511.26823 eV
Two Electron Energy:       3810.77868811072176 Eh          103696.55993 eV
CPCM Dielectric    :         -0.02845602095567 Eh              -0.77433 eV
SMD CDS (Gcds)     :          0.01122745735191 Eh               0.30551 eV

Virial components:
Potential Energy   :      -5855.61876098819994 Eh         -159339.48715 eV
Kinetic Energy     :       2923.11055924933680 Eh           79541.88215 eV
Virial Ratio       :          2.00321494596220

DFT components:
N(Alpha)           :      101.000084823877 electrons
N(Beta)            :      101.000084823877 electrons
N(Total)           :      202.000169647754 electrons
E(X)               :     -233.398076262960 Eh       
E(C)               :       -7.103070484232 Eh       
E(XC)              :     -240.501146747192 Eh       

CPCM Solvation Model Properties:
Surface-charge          :         -0.04588010532380
Corrected charge        :          0.00000000000000
Outlying charge corr.   :          0.00010677035302 Eh               0.00291 eV
Free-energy (cav+disp)  :          0.01122745735191 Eh               0.30551 eV

---------------
SCF CONVERGENCE
---------------

  Last Energy change         ...    6.9122e-10  Tolerance :   1.0000e-07
  Last MAX-Density change    ...    1.2169e-04  Tolerance :   1.0000e-07
  Last RMS-Density change    ...    1.9193e-06  Tolerance :   5.0000e-09
  Last DIIS Error            ...    1.1570e-04  Tolerance :   1.0000e-07
  Last Orbital Gradient      ...    2.0537e-05  Tolerance :   1.0000e-04
  Last Orbital Rotation      ...    4.7892e-05  Tolerance :   1.0000e-04


----------------
ORBITAL ENERGIES
----------------

  NO   OCC          E(Eh)            E(eV) 
   0   2.0000     -88.583482     -2410.4791 
   1   2.0000     -88.581353     -2410.4212 
   2   2.0000     -88.532170     -2409.0828 
   3   2.0000     -88.531121     -2409.0543 
   4   2.0000     -76.922376     -2093.1643 
   5   2.0000     -76.921386     -2093.1373 
   6   2.0000     -18.997288      -516.9425 
   7   2.0000     -18.995611      -516.8969 
   8   2.0000     -18.994383      -516.8634 
   9   2.0000     -18.991963      -516.7976 
  10   2.0000     -10.110574      -275.1227 
  11   2.0000     -10.093931      -274.6698 
  12   2.0000     -10.093175      -274.6493 
  13   2.0000     -10.091840      -274.6129 
  14   2.0000     -10.090072      -274.5648 
  15   2.0000     -10.022788      -272.7339 
  16   2.0000     -10.021856      -272.7086 
  17   2.0000     -10.021488      -272.6986 
  18   2.0000     -10.021451      -272.6975 
  19   2.0000      -7.877029      -214.3449 
  20   2.0000      -7.874926      -214.2876 
  21   2.0000      -7.827434      -212.9953 
  22   2.0000      -7.826377      -212.9665 
  23   2.0000      -6.600150      -179.5992 
  24   2.0000      -6.598983      -179.5675 
  25   2.0000      -5.823994      -158.4789 
  26   2.0000      -5.821920      -158.4225 
  27   2.0000      -5.820637      -158.3876 
  28   2.0000      -5.818757      -158.3364 
  29   2.0000      -5.814458      -158.2195 
  30   2.0000      -5.812099      -158.1552 
  31   2.0000      -5.774941      -157.1441 
  32   2.0000      -5.773801      -157.1131 
  33   2.0000      -5.767769      -156.9490 
  34   2.0000      -5.767426      -156.9397 
  35   2.0000      -5.766779      -156.9220 
  36   2.0000      -5.766388      -156.9114 
  37   2.0000      -4.745904      -129.1426 
  38   2.0000      -4.745127      -129.1215 
  39   2.0000      -4.744291      -129.0987 
  40   2.0000      -4.743816      -129.0858 
  41   2.0000      -4.743764      -129.0844 
  42   2.0000      -4.743148      -129.0676 
  43   2.0000      -1.043774       -28.4025 
  44   2.0000      -1.038800       -28.2672 
  45   2.0000      -1.002723       -27.2855 
  46   2.0000      -1.000273       -27.2188 
  47   2.0000      -0.793535       -21.5932 
  48   2.0000      -0.756894       -20.5961 
  49   2.0000      -0.744087       -20.2476 
  50   2.0000      -0.727810       -19.8047 
  51   2.0000      -0.723536       -19.6884 
  52   2.0000      -0.712098       -19.3772 
  53   2.0000      -0.693571       -18.8730 
  54   2.0000      -0.675485       -18.3809 
  55   2.0000      -0.628068       -17.0906 
  56   2.0000      -0.607826       -16.5398 
  57   2.0000      -0.595565       -16.2062 
  58   2.0000      -0.594486       -16.1768 
  59   2.0000      -0.592578       -16.1249 
  60   2.0000      -0.532892       -14.5007 
  61   2.0000      -0.515875       -14.0377 
  62   2.0000      -0.494785       -13.4638 
  63   2.0000      -0.485430       -13.2092 
  64   2.0000      -0.468629       -12.7520 
  65   2.0000      -0.459220       -12.4960 
  66   2.0000      -0.448673       -12.2090 
  67   2.0000      -0.447964       -12.1897 
  68   2.0000      -0.442517       -12.0415 
  69   2.0000      -0.430653       -11.7187 
  70   2.0000      -0.420872       -11.4525 
  71   2.0000      -0.406133       -11.0514 
  72   2.0000      -0.404270       -11.0007 
  73   2.0000      -0.399527       -10.8717 
  74   2.0000      -0.391099       -10.6423 
  75   2.0000      -0.387118       -10.5340 
  76   2.0000      -0.379510       -10.3270 
  77   2.0000      -0.365692        -9.9510 
  78   2.0000      -0.361655        -9.8411 
  79   2.0000      -0.356368        -9.6973 
  80   2.0000      -0.353311        -9.6141 
  81   2.0000      -0.350949        -9.5498 
  82   2.0000      -0.347806        -9.4643 
  83   2.0000      -0.344891        -9.3850 
  84   2.0000      -0.342465        -9.3189 
  85   2.0000      -0.327181        -8.9030 
  86   2.0000      -0.322414        -8.7733 
  87   2.0000      -0.317968        -8.6523 
  88   2.0000      -0.315770        -8.5925 
  89   2.0000      -0.304852        -8.2954 
  90   2.0000      -0.298600        -8.1253 
  91   2.0000      -0.288867        -7.8605 
  92   2.0000      -0.285107        -7.7581 
  93   2.0000      -0.281049        -7.6477 
  94   2.0000      -0.276501        -7.5240 
  95   2.0000      -0.256759        -6.9868 
  96   2.0000      -0.247368        -6.7312 
  97   2.0000      -0.238104        -6.4791 
  98   2.0000      -0.231086        -6.2882 
  99   2.0000      -0.226901        -6.1743 
 100   2.0000      -0.218810        -5.9541 
 101   0.0000      -0.046296        -1.2598 
 102   0.0000      -0.037449        -1.0190 
 103   0.0000      -0.026873        -0.7312 
 104   0.0000       0.005984         0.1628 
 105   0.0000       0.010023         0.2727 
 106   0.0000       0.013613         0.3704 
 107   0.0000       0.022409         0.6098 
 108   0.0000       0.033429         0.9097 
 109   0.0000       0.043906         1.1947 
 110   0.0000       0.058648         1.5959 
 111   0.0000       0.070787         1.9262 
*Only the first 10 virtual orbitals were printed.
Total SCF time: 0 days 0 hours 0 min 29 sec 
Finished LeanSCF after  29.8 sec

Maximum memory used throughout the entire LEANSCF-calculation: 144.1 MB


-------------------------------------------------------------------------------
                          DFT DISPERSION CORRECTION                            
                                                                               
                                DFTD4 V3.4.0                                   
-------------------------------------------------------------------------------
-------------------------   ----------------
Dispersion correction           -0.020899930
-------------------------   ----------------

------------------   -----------------
gCP correction             0.044850104
------------------   -----------------

-------------------------   --------------------
FINAL SINGLE POINT ENERGY     -2932.484251564651
-------------------------   --------------------

------------------------------------------------------------------------------
                         ORCA SCF GRADIENT CALCULATION
------------------------------------------------------------------------------

Nuc. rep. gradient        (SHARK) ... done (  0.0 sec)
HCore & Overlap gradient  (SHARK) ... done (  2.0 sec)
Split-RIJ-J gradient      (SHARK) ... done (  9.5 sec)
XC gradient                       ... done ( 22.5 sec)
CPCM gradient                     ... done (  8.2 sec)
SMD gradient                      ... done (  0.0 sec)
Dispersion correction             ... done (  0.0 sec)

-------------------
DISPERSION GRADIENT
-------------------

   1   C   :    0.000119377   -0.000072189   -0.000012594
   2   C   :    0.000131115   -0.000027192    0.000000297
   3   O   :    0.000119766   -0.000024149    0.000033903
   4   P   :    0.000234460    0.000038820   -0.000094357
   5   S   :    0.000143572    0.000157200   -0.000274112
   6   O   :    0.000073516    0.000100785    0.000060475
   7   C   :    0.000051560    0.000178675    0.000058108
   8   C   :    0.000045988    0.000144436    0.000091653
   9   S   :    0.000097590   -0.000296607   -0.000118747
  10   C   :   -0.000001648   -0.000115974   -0.000140430
  11   S   :   -0.000078575   -0.000248381   -0.000161253
  12   P   :   -0.000229246    0.000015137   -0.000059936
  13   S   :   -0.000210514    0.000268278   -0.000195903
  14   O   :   -0.000093155    0.000008130    0.000118980
  15   C   :   -0.000061120   -0.000054090    0.000160733
  16   C   :   -0.000019171   -0.000060708    0.000208376
  17   O   :   -0.000098029   -0.000002314    0.000001327
  18   C   :   -0.000112597   -0.000006948   -0.000047831
  19   C   :   -0.000138727   -0.000000617    0.000002207
  20   H   :    0.000055350   -0.000031594   -0.000013955
  21   H   :    0.000042741   -0.000021288   -0.000006579
  22   H   :    0.000048223   -0.000034411    0.000006675
  23   H   :    0.000053575   -0.000002338   -0.000010291
  24   H   :    0.000057588   -0.000014380    0.000020405
  25   H   :    0.000018526    0.000076370    0.000006920
  26   H   :    0.000013112    0.000082326    0.000046999
  27   H   :    0.000009870    0.000054978    0.000033284
  28   H   :    0.000007002    0.000044739    0.000028045
  29   H   :    0.000015071    0.000049249    0.000046798
  30   H   :   -0.000004847   -0.000061531   -0.000049059
  31   H   :   -0.000004201   -0.000028364   -0.000062628
  32   H   :   -0.000009861   -0.000003843    0.000065839
  33   H   :   -0.000016700   -0.000033973    0.000058461
  34   H   :   -0.000008779   -0.000038964    0.000098400
  35   H   :   -0.000014877   -0.000012888    0.000079951
  36   H   :    0.000000883   -0.000016379    0.000050459
  37   H   :   -0.000045210    0.000011873   -0.000019652
  38   H   :   -0.000051081   -0.000022216   -0.000017897
  39   H   :   -0.000050457   -0.000006176    0.000005493
  40   H   :   -0.000053680    0.000007534    0.000005533
  41   H   :   -0.000036411   -0.000001014   -0.000004095

Difference to translation invariance:
           :    0.0000000000   -0.0000000000   -0.0000000000

Difference to rotation invariance:
           :    0.0000000000    0.0000000000    0.0000000000

Norm of the Dispersion gradient    ...    0.0010113664
RMS gradient                       ...    0.0000911918
MAX gradient                       ...    0.0002966067
gCP correction                   ... done

------------------
CARTESIAN GRADIENT
------------------

   1   C   :    0.000002239    0.000099185   -0.000040699
   2   C   :   -0.000286799   -0.000067283    0.000052706
   3   O   :    0.000335169   -0.000014059   -0.000220034
   4   P   :    0.000179659   -0.000261085    0.000125297
   5   S   :   -0.000100140   -0.000182120   -0.000086196
   6   O   :    0.000087547    0.000413835    0.000199102
   7   C   :   -0.000294261   -0.000081103   -0.000025769
   8   C   :    0.000145216    0.000113977    0.000043377
   9   S   :    0.000111793    0.000252677    0.000054434
  10   C   :   -0.000260975   -0.000303616   -0.000493483
  11   S   :    0.000209090    0.000152472    0.000126061
  12   P   :   -0.000171917    0.000057820    0.000345041
  13   S   :    0.000049715    0.000014375    0.000047866
  14   O   :   -0.000121858   -0.000353145   -0.000033214
  15   C   :    0.000184940    0.000189454   -0.000228081
  16   C   :   -0.000137898    0.000106007    0.000169898
  17   O   :   -0.000013921   -0.000124725   -0.000270104
  18   C   :    0.000092812    0.000226413    0.000000011
  19   C   :   -0.000004541   -0.000255852    0.000065067
  20   H   :    0.000100912   -0.000013270    0.000132576
  21   H   :   -0.000164216   -0.000032397    0.000056639
  22   H   :    0.000042671    0.000084970   -0.000055767
  23   H   :    0.000025122   -0.000008200    0.000097277
  24   H   :   -0.000001328    0.000033345   -0.000093682
  25   H   :    0.000059817   -0.000038482    0.000170382
  26   H   :    0.000187062   -0.000083335   -0.000071559
  27   H   :   -0.000072817   -0.000020596    0.000036437
  28   H   :   -0.000078726   -0.000066465   -0.000058874
  29   H   :   -0.000039838    0.000048111   -0.000111701
  30   H   :    0.000059368    0.000211090    0.000095147
  31   H   :    0.000048423   -0.000152603    0.000171166
  32   H   :    0.000010376   -0.000008803    0.000008764
  33   H   :    0.000005198    0.000067383    0.000065673
  34   H   :   -0.000001248   -0.000004392   -0.000083894
  35   H   :   -0.000037388   -0.000168606   -0.000064486
  36   H   :    0.000023950    0.000028463   -0.000147781
  37   H   :   -0.000087949   -0.000108225    0.000070076
  38   H   :   -0.000049945   -0.000079165    0.000021869
  39   H   :   -0.000014069    0.000081085   -0.000090406
  40   H   :    0.000003660    0.000217787    0.000106500
  41   H   :   -0.000024906    0.000029078   -0.000085637

Difference to translation invariance:
           :   -0.0000000000   -0.0000000000    0.0000000000

Difference to rotation invariance:
           :   -0.0001546698   -0.0000129426    0.0006920395

Norm of the Cartesian gradient     ...    0.0015974541
RMS gradient                       ...    0.0001440376
MAX gradient                       ...    0.0004934830

-------
TIMINGS
-------

Total SCF gradient time     ....       48.558 sec

Densities                   ....       0.007 sec  (  0.0%)
One electron gradient       ....       1.996 sec  (  4.1%)
RI-J Coulomb gradient       ....       9.487 sec  ( 19.5%)
XC gradient                 ....      22.468 sec  ( 46.3%)
CPCM gradient               ....       8.169 sec  ( 16.8%)
   A-Matrix (El+Nuc)        ....       0.283 sec  (  0.6%)
   Potential                ....       7.886 sec  ( 16.2%)
SMD gradient                ....       0.016 sec  (  0.0%)

Maximum memory used throughout the entire SCFGRAD-calculation: 84.6 MB

------------------------------------------------------------------------------
                              ORCA PROPERTY CALCULATIONS
------------------------------------------------------------------------------

GBWName                                 ... xtb_opt.gbw
Number of atoms                         ...     41
Number of basis functions               ...    539
Max core memory                         ...   1024 MB

Electric properties:
Dipole moment                           ... YES
Quadrupole moment                       ...  NO
Static polarizability (Dipole/Dipole)   ...  NO
Static polarizability (Dipole/Quad.)    ...  NO
Static polarizability (Quad./Quad.)     ...  NO
Static polarizability (Velocity)        ...  NO

Atomic electric properties:
Dipole moment                           ...  NO
Quadrupole moment                       ...  NO
Static polarizability                   ...  NO

Choice of electric origin               ... Center of mass
Position of electric origin             ...    -0.027361     0.024968    -0.125530

General magnetic properties:
Magnetizability                         ...  NO

EPR properties:
g-Tensor (aka g-matrix)                 ...  NO
Zero-Field splitting spin-orbit         ...  NO
Zero-field splitting spin-spin          ...  NO
Hyperfine couplings                     ...  NO (   0 nuclei)
Quadrupole couplings                    ...  NO (   0 nuclei)
Contact density                         ...  NO (   0 nuclei)

NMR properties:
Chemical shifts                         ...  NO (   0 nuclei)
Spin-rotation constants                 ...  NO (   0 nuclei)
Spin-spin couplings                     ...  NO (   0 nuclei,    0 pairs)

Choice of magnetic origin               ... GIAO
Position of magnetic origin             ...     0.000000     0.000000     0.000000

Properties with geometric perturbations:
SCF Hessian                             ...  NO
IR spectrum                             ...  NO
VCD spectrum                            ...  NO
X-ray spectroscopy properties:
SCF XES/XAS/RIXS spectra                ...  NO


-------------
DIPOLE MOMENT
-------------

Method             : SCF
Type of density    : Electron Density
Multiplicity       :   1
Irrep              :   0
Energy             : -2932.5082017388631357 Eh
Relativity type    : 
Basis              : AO
                                X                 Y                 Z
Electronic contribution:     -1.402331121      -1.851895977     -13.007896745
Nuclear contribution   :      1.101140104       0.501899720      14.321297731
                        -----------------------------------------
Total Dipole Moment    :     -0.301191017      -1.349996257       1.313400987
                        -----------------------------------------
Magnitude (a.u.)       :      1.907413976
Magnitude (Debye)      :      4.848261029



--------------------
Rotational spectrum 
--------------------
 
Rotational constants in cm-1:             0.013250             0.004522             0.004405 
Rotational constants in MHz :           397.228386           135.557288           132.044316 

Dipole components along the rotational axes: 
x,y,z [a.u.] :     0.441054    -0.283801     1.833891 
x,y,z [Debye]:     1.121070    -0.721364     4.661381 

 

Dipole moment calculation done in   0.1 sec 

Maximum memory used throughout the entire PROP-calculation: 52.1 MB

--------------------------------
SUGGESTED CITATIONS FOR THIS RUN
--------------------------------

Below you find a list of papers that are relevant to this ORCA run
We neither can nor want to force you to cite these papers, but we appreciate if you do
You receive ORCA, which is the product of decades of hard work by many enthusiastic individuals, for free
The only thing we kindly ask in return is that you cite our papers,
We deeply appreciate it, if you show your appreciation for ORCA by not just citing the generic ORCA reference.

Please note that relegating all ORCA citations to the supporting information does *not* help us.
SI sections are not indexed - citations you put there will not count into any citation statistics
But we need these citations in order to attract the funding resources that allow us to do what we are doing

Therefore, if you are a happy ORCA user, please consider citing a few of the papers listed below in the main body of your paper

In addition to the list printed below, the program has created the file xtb_opt.bibtex that contains the list in bibtex format
You can import this file easily into all common literature databanks and citation aid programs


List of essential papers. We consider these as the minimum necessary citations

  1. Neese,F.
     Software update: the ORCA program system, version 5.0
     WIRES Comput. Molec. Sci., 2022 12(1)e1606
     doi.org/10.1002/wcms.1606
  2. Grimme,S.; Hansen,A.; Ehlert,S.; Mewes,J.
     r2SCAN-3c: A 'Swiss army knife' composite electronic-structure method
     J. Chem. Phys., 2021 154 064103
     doi.org/10.1063/5.0040021

List of papers to cite with high priority. The work reported in these papers was absolutely
necessary for this run to complete.
Our perspective: the developers of density functionals and basis sets usually get cited in chemistry papers
Good! But without the algorithms to do something with them, the functionals or basis sets would not do anything.
Hence, in our opinion, the algorithm design and method developments papers are equally worthy of getting cited

  1. Neese,F.
     An improvement of the resolution of the identity approximation for the formation of the Coulomb matrix
     J. Comp. Chem., 2003 24(14)1740-1747
     doi.org/10.1002/jcc.10318
  2. Garcia-Rates,M.; Neese,F.
     Effect of the Solute Cavity on the Solvation Energy and its Derivatives within the Framework of the Gaussian Charge Scheme
     J. Comput. Chem., 2020 41 922-939
     doi.org/10.1002/jcc.26139
  3. Neese,F.
     The SHARK Integral Generation and Digestion System
     J. Comp. Chem., 2022  1-16
     doi.org/10.1002/jcc.26942
  4. Lehtola,S.; Steigemann,C.; Oliveira,M.; Marques,M.
     Recent developments in Libxc - A comprehensive library of functionals for density functional theory
     Software X, 2018 7 
     doi.org/10.1016/j.softx.2017.11.002
  5. Caldeweyher,E.; Bannwarth,C.; Grimme,S.
     Extension of the D3 dispersion coefficient model
     J. Chem. Phys., 2017 147 034112-XXXX
     doi.org/10.1063/1.4993215
  6. Caldeweyher,E.; Ehlert,S.; Hansen,A.; Neugebauer,H.; Spicher,S.; Bannwarth,C.; Grimme,S.
     A generally applicable atomic-charge dependent London dispersion correction
     J. Chem. Phys., 2019 150 154122-XXXX
     doi.org/10.1063/1.5090222
  7. Caldeweyher,E.; Mewes,J.; Ehlert,S.; Grimme,S.
     Extension and evaluation of the D4 London-dispersion model for periodic systems
     Phys. Chem. Chem. Phys., 2020 22(16)8499-8512
     doi.org/10.1039/D0CP00502A

List of suggested additional citations. These are papers that are important in the 'surrounding' of 
of this run, or papers that preceded the highly important papers. If you like your results we are grateful for a citation.

  1. Neese,F.
     The ORCA program system
     WIRES Comput. Molec. Sci., 2012 2(1)73-78
     doi.org/10.1002/wcms.81
  2. Neese,F.
     Software update: the ORCA program system, version 4.0
     WIRES Comput. Molec. Sci., 2018 8(1)1-6
     doi.org/10.1002/wcms.1327
  3. Neese,F.; Wennmohs,F.; Becker,U.; Riplinger,C.
     The ORCA quantum chemistry program package
     J. Chem. Phys., 2020 152 Art. No. L224108
     doi.org/10.1063/5.0004608

List of optional additional citations

  1. Neese,F.
     Approximate second-order SCF convergence for spin unrestricted wavefunctions
     Chem. Phys. Lett., 2000 325(1-3)93-98
     doi.org/10.1016/s0009-2614(00)00662-x

Timings for individual modules:

Sum of individual times          ...       82.787 sec (=   1.380 min)
Startup calculation              ...        3.300 sec (=   0.055 min)   4.0 %
SCF iterations                   ...       30.524 sec (=   0.509 min)  36.9 %
Property calculations            ...        0.234 sec (=   0.004 min)   0.3 %
SCF Gradient evaluation          ...       48.729 sec (=   0.812 min)  58.9 %
                             ****ORCA TERMINATED NORMALLY****
TOTAL RUN TIME: 0 days 0 hours 1 minutes 23 seconds 630 msec
  ------------------------------------------------------------------------
          * successful ORCA run, taking over control again...

         :::::::::::::::::::::::::::::::::::::::::::::::::::::
         ::                  ORCA SUMMARY                   ::
         :::::::::::::::::::::::::::::::::::::::::::::::::::::
         :: total energy           -2932.484251564651 Eh    ::
         :: gradient norm              0.001597454089 Eh/a0 ::
         :: HOMO-LUMO gap              0.000000000000 eV    ::
         :::::::::::::::::::::::::::::::::::::::::::::::::::::

      ----------------------------------------------------------- 
     |                       L-ANC optimizer                     |
      ----------------------------------------------------------- 
          low memory version by Sebastian Ehlert

          ...................................................
          :                      SETUP                      :
          :.................................................:
          :   energy convergence        0.5000000E-05 Eh    :
          :   grad. convergence         0.1000000E-02 Eh/a0 :
          :   optimization log               true           :
          :   writing optlog all                1     steps :
          :   Hessian reset                     8     steps :
          :   maximium step len.        1.0000000     a0    :
          :   LBFGS images                      8           :
          ...................................................
 * calculating model hessian...
Using Lindh-Hessian (1995)
 Shifting diagonal of input Hessian by   1.000000000000000E-002
 Lowest  eigenvalues of input Hessian
    0.000000    0.000000    0.000000    0.000000    0.000000    0.000000
    0.010001    0.010228    0.010366    0.010579    0.010855    0.011364
    0.011687    0.011784    0.011861    0.012129    0.012236    0.012580
 Highest eigenvalues
    1.291872    1.298566    1.719094    1.738367    1.879079    1.910082
 

........................................................................
.............................. CYCLE    1 ..............................
........................................................................
                         * ORCA takes the control...
  ------------------------------------------------------------------------

                                 *****************
                                 * O   R   C   A *
                                 *****************

                                            #,                                       
                                            ###                                      
                                            ####                                     
                                            #####                                    
                                            ######                                   
                                           ########,                                 
                                     ,,################,,,,,                         
                               ,,#################################,,                 
                          ,,##########################################,,             
                       ,#########################################, ''#####,          
                    ,#############################################,,   '####,        
                  ,##################################################,,,,####,       
                ,###########''''           ''''###############################       
              ,#####''   ,,,,##########,,,,          '''####'''          '####       
            ,##' ,,,,###########################,,,                        '##       
           ' ,,###''''                  '''############,,,                           
         ,,##''                                '''############,,,,        ,,,,,,###''
      ,#''                                            '''#######################'''  
     '                                                          ''''####''''         
             ,#######,   #######,   ,#######,      ##                                
            ,#'     '#,  ##    ##  ,#'     '#,    #''#        ,####,   ,####,        
            ##       ##  ##   ,#'  ##            #'  '#       #'       #'  '#        
            ##       ##  #######   ##           ,######,      #####,   #    #        
            '#,     ,#'  ##    ##  '#,     ,#' ,#      #,     #,   #   #,  ,#        
             '#######'   ##     ##  '#######'  #'      '#     '####' # '####'        



                #########################################################
                #                        -***-                          #
                #          Department of theory and spectroscopy        #
                #                                                       #
                #                      Frank Neese                      #
                #                                                       #
                #     Directorship, Architecture, Infrastructure        #
                #                    SHARK, DRIVERS                     #
                #        Core code/Algorithms in most modules           #
                #                                                       #
                #        Max Planck Institute fuer Kohlenforschung      #
                #                Kaiser Wilhelm Platz 1                 #
                #                 D-45470 Muelheim/Ruhr                 #
                #                      Germany                          #
                #                                                       #
                #                  All rights reserved                  #
                #                        -***-                          #
                #########################################################


                         Program Version 6.0.0  -   RELEASE  -


 With contributions from (in alphabetic order):
   Daniel Aravena         : Magnetic Suceptibility
   Michael Atanasov       : Ab Initio Ligand Field Theory (pilot matlab implementation)
   Alexander A. Auer      : GIAO ZORA, VPT2 properties, NMR spectrum
   Ute Becker             : All parallelization in ORCA, NUMFREQ, NUMCALC
   Giovanni Bistoni       : ED, misc. LED, open-shell LED, HFLD
   Martin Brehm           : Molecular dynamics
   Dmytro Bykov           : pre 5.0 version of the SCF Hessian
   Marcos Casanova-Páez   : Triplet and SCS-CIS(D). UHF-(DLPNO)-IP/EA/STEOM-CCSD. UHF-CVS-IP/STEOM-CCSD
   Vijay G. Chilkuri      : MRCI spin determinant printing, contributions to CSF-ICE
   Pauline Colinet        : FMM embedding
   Dipayan Datta          : RHF DLPNO-CCSD density
   Achintya Kumar Dutta   : EOM-CC, STEOM-CC
   Nicolas Foglia         : Exact transition moments, OPA infrastructure, MCD improvements
   Dmitry Ganyushin       : Spin-Orbit,Spin-Spin,Magnetic field MRCI
   Miquel Garcia          : C-PCM and meta-GGA Hessian, CCSD/C-PCM, Gaussian charge scheme
   Tiago L. C. Gouveia    : GS-ROHF, GS-ROCIS
   Yang Guo               : DLPNO-NEVPT2, F12-NEVPT2, CIM, IAO-localization
   Andreas Hansen         : Spin unrestricted coupled pair/coupled cluster methods
   Ingolf Harden          : AUTO-CI MPn and infrastructure 
   Benjamin Helmich-Paris : MC-RPA, TRAH-(SCF,CASSCF), AVAS, COSX integrals, SCF dyn. polar.
   Lee Huntington         : MR-EOM, pCC
   Robert Izsak           : Overlap fitted RIJCOSX, COSX-SCS-MP3, EOM
   Riya Kayal             : Wick's Theorem for AUTO-CI, AUTO-CI UHF-CCSDT
   Emily Kempfer          : AUTO-CI, RHF CISDT and CCSDT
   Christian Kollmar      : KDIIS, OOCD, Brueckner-CCSD(T), CCSD density, CASPT2, CASPT2-K, improved NEVPT2
   Axel Koslowski         : Symmetry handling
   Simone Kossmann        : Meta GGA functionals, TD-DFT gradient, OOMP2, (MP2 Hessian; deprecated post 5.0)
   Lucas Lang             : DCDCAS
   Marvin Lechner         : AUTO-CI (C++ implementation), FIC-MRCC
   Spencer Leger          : CASSCF response
   Dagmar Lenk            : GEPOL surface, SMD, ORCA-2-JSON
   Dimitrios Liakos       : Extrapolation schemes; Compound Job, initial MDCI parallelization
   Dimitrios Manganas     : Further ROCIS development; embedding schemes. LFT, Crystal Embedding
   Dimitrios Pantazis     : SARC Basis sets
   Anastasios Papadopoulos: AUTO-CI, single reference methods and gradients
   Taras Petrenko         : pre 6.0 DFT Hessian and TD-DFT gradient, (ASA, deprecated), ECA, 1-Electron XAS/XES, NRVS
   Peter Pinski           : DLPNO-MP2, DLPNO-MP2 Gradient
   Christoph Reimann      : Effective Core Potentials
   Marius Retegan         : Local ZFS, SOC
   Christoph Riplinger    : Optimizer, TS searches, QM/MM, DLPNO-CCSD(T), (RO)-DLPNO pert. Triples
   Michael Roemelt        : Original ROCIS implementation
   Masaaki Saitow         : Open-shell DLPNO-CCSD energy and density
   Barbara Sandhoefer     : DKH picture change effects
   Kantharuban Sivalingam : CASSCF convergence/infrastructure, NEVPT2 and variants, FIC-MRCI
   Bernardo de Souza      : ESD, SOC TD-DFT
   Georgi Stoychev        : AutoAux, RI-MP2 NMR, DLPNO-MP2 response, X2C
   Van Anh Tran           : RI-MP2 g-tensors
   Willem Van den Heuvel  : Paramagnetic NMR
   Zikuan Wang            : NOTCH, Electric field optimization 
   Frank Wennmohs         : Technical directorship and infrastructure
   Hang Xu                : AUTO-CI-Response properties 


 We gratefully acknowledge several colleagues who have allowed us to
 interface, adapt or use parts of their codes:
   Stefan Grimme, W. Hujo, H. Kruse, P. Pracht,  : VdW corrections, initial TS optimization,
                  C. Bannwarth, S. Ehlert,         DFT functionals, gCP, sTDA/sTD-DF
                  L. Wittmann, M. Mueller
   Ed Valeev, F. Pavosevic, A. Kumar             : LibInt (2-el integral package), F12 methods
   Garnet Chan, S. Sharma, J. Yang, R. Olivares  : DMRG
   Ulf Ekstrom                                   : XCFun DFT Library
   Mihaly Kallay                                 : mrcc  (arbitrary order and MRCC methods)
   Frank Weinhold                                : gennbo (NPA and NBO analysis)
   Simon Mueller                                 : openCOSMO-RS
   Christopher J. Cramer and Donald G. Truhlar   : smd solvation model
   Lars Goerigk                                  : TD-DFT with DH, B97 family of functionals
   V. Asgeirsson, H. Jonsson                     : NEB implementation
   FAccTs GmbH                                   : IRC, NEB, NEB-TS, DLPNO-Multilevel, CI-OPT
                                                   MM, QMMM, 2- and 3-layer-ONIOM, Crystal-QMMM,
                                                   LR-CPCM, SF, NACMEs, symmetry and pop. for TD-DFT,
                                                   nearIR, NL-DFT gradient (VV10), updates on ESD,
                                                   ML-optimized integration grids, MBIS, APM,
                                                   GOAT, DOCKER, SOLVATOR, interface openCOSMO-RS
   S Lehtola, MJT Oliveira, MAL Marques          : LibXC Library
   Liviu Ungur et al                             : ANISO software


 Your calculation uses the libint2 library for the computation of 2-el integrals
 For citations please refer to: http://libint.valeyev.net

 Your ORCA version has been built with support for libXC version: 6.2.2
 For citations please refer to: https://libxc.gitlab.io

 This ORCA versions uses:
   CBLAS   interface :  Fast vector & matrix operations
   LAPACKE interface :  Fast linear algebra routines
   SCALAPACK package :  Parallel linear algebra routines
   Shared memory     :  Shared parallel matrices
   BLAS/LAPACK       :  OpenBLAS 0.3.27  USE64BITINT DYNAMIC_ARCH NO_AFFINITY SapphireRapids SINGLE_THREADED
        Core in use  :  SapphireRapids
   Copyright (c) 2011-2014, The OpenBLAS Project




***************************************
The coordinates will be read from file: xtb_opt.xyz
***************************************


Your calculation utilizes the geometrical counterpoise correction gCP
Please cite in your paper:
H.Kruse, S. Grimme J.Chem.Phys., 136, (2012), 154101 
   

Your calculation utilizes the atom-pairwise dispersion correction
based on EEQ partial charges (D4)


Your calculation utilizes the SMD solvation module
Please cite in your paper:
A.V. Marenich, C.J. Cramer, D.G. Truhlar J. Phys. Chem. B, 113, (2009), 6378 

================================================================================

----- Orbital basis set information -----
Your calculation utilizes the basis: def2-mTZVPP
   Stefan Grimme, Andreas Hansen, Sebastian Ehlert, and Jan-Michael Mewes 
   J. Chem. Phys. 154, 064103 (2021). DOI: 10.1063/5.0040021

----- AuxJ basis set information -----
Your calculation utilizes the auxiliary basis: def2/J
   F. Weigend, Phys. Chem. Chem. Phys. 8, 1057 (2006).

================================================================================
                                        WARNINGS
                       Please study these warnings very carefully!
================================================================================

WARNING: Old DensityContainer found on disk!
         Will remove this file - 
         If you want to keep old densities, please start your calculation with a different basename. 

Using LibXC functional ID 497 : Re-regularized SCAN exchange by Furness et al
[ 1]  J. W. Furness, A. D. Kaplan, J. Ning, J. P. Perdew, and J. Sun.,  J. Phys. Chem. Lett. 11, 8208-8215 (2020)
[ 2]  J. W. Furness, A. D. Kaplan, J. Ning, J. P. Perdew, and J. Sun.,  J. Phys. Chem. Lett. 11, 9248-9248 (2020)
Using LibXC functional ID 498 : Re-regularized SCAN correlation by Furness et al
[ 1]  J. W. Furness, A. D. Kaplan, J. Ning, J. P. Perdew, and J. Sun.,  J. Phys. Chem. Lett. 11, 8208-8215 (2020)
[ 2]  J. W. Furness, A. D. Kaplan, J. Ning, J. P. Perdew, and J. Sun.,  J. Phys. Chem. Lett. 11, 9248-9248 (2020)
Using LibXC functional ID 497 : Re-regularized SCAN exchange by Furness et al
[ 1]  J. W. Furness, A. D. Kaplan, J. Ning, J. P. Perdew, and J. Sun.,  J. Phys. Chem. Lett. 11, 8208-8215 (2020)
[ 2]  J. W. Furness, A. D. Kaplan, J. Ning, J. P. Perdew, and J. Sun.,  J. Phys. Chem. Lett. 11, 9248-9248 (2020)
Using LibXC functional ID 498 : Re-regularized SCAN correlation by Furness et al
[ 1]  J. W. Furness, A. D. Kaplan, J. Ning, J. P. Perdew, and J. Sun.,  J. Phys. Chem. Lett. 11, 8208-8215 (2020)
[ 2]  J. W. Furness, A. D. Kaplan, J. Ning, J. P. Perdew, and J. Sun.,  J. Phys. Chem. Lett. 11, 9248-9248 (2020)

================================================================================
                                       INPUT FILE
================================================================================
NAME = xtb_opt.inp
|  1> ! r2scan-3c def2/J RI DEFGRID2 scfconv7 ENGRAD tightSCF miniprint
|  2> %cpcm
|  3>     smd true
|  4>     smdsolvent "water"
|  5> end
|  6> * xyzfile 0 1 xtb_opt.xyz
|  7> 
|  8>                          ****END OF INPUT****
================================================================================

                     *******************************
                     * Energy+Gradient Calculation *
                     *******************************

---------------------------------
CARTESIAN COORDINATES (ANGSTROEM)
---------------------------------
  C      5.093382   -1.469151   -0.674309
  C      4.880868   -0.134937   -0.004207
  O      3.541419   -0.023836    0.591054
  P      2.220805    0.298195   -0.273677
  S      2.463472    1.286250   -1.934567
  O      1.268280    0.967835    0.832431
  C      1.195346    2.425164    1.013215
  C      2.434109    2.969917    1.681474
  S      1.400020   -1.648215   -0.420316
  C     -0.010179   -1.369409   -1.583105
  S     -1.653746   -1.818112   -0.907044
  P     -2.309451    0.028379   -0.071843
  S     -1.978073    1.602855   -1.159403
  O     -1.677531    0.180880    1.389680
  C     -1.872628   -0.839880    2.435662
  C     -0.656475   -0.815441    3.323396
  O     -3.831348   -0.360336    0.276241
  C     -4.858036   -0.461111   -0.773865
  C     -6.197862   -0.272357   -0.112696
  H      4.453115   -1.584643   -1.553554
  H      6.136392   -1.531499   -1.001970
  H      4.900804   -2.292410    0.019863
  H      5.017656    0.699525   -0.698384
  H      5.549558   -0.002382    0.848776
  H      1.018245    2.882386    0.035258
  H      0.307064    2.559280    1.634180
  H      3.316722    2.863485    1.043126
  H      2.284591    4.036643    1.878357
  H      2.620552    2.465838    2.634203
  H      0.143123   -2.029030   -2.440230
  H     -0.015697   -0.330858   -1.933084
  H     -2.786243   -0.574077    2.974131
  H     -2.004642   -1.819128    1.964134
  H      0.237729   -1.114401    2.769275
  H     -0.499919    0.181410    3.745840
  H     -0.806222   -1.520231    4.147363
  H     -4.664756    0.310780   -1.525544
  H     -4.766413   -1.448652   -1.235649
  H     -6.369573   -1.034670    0.652453
  H     -6.271544    0.718202    0.344481
  H     -6.981105   -0.362766   -0.871606

----------------------------
CARTESIAN COORDINATES (A.U.)
----------------------------
  NO LB      ZA    FRAG     MASS         X           Y           Z
   0 C     6.0000    0    12.011    9.625097   -2.776294   -1.274259
   1 C     6.0000    0    12.011    9.223503   -0.254994   -0.007951
   2 O     8.0000    0    15.999    6.692312   -0.045044    1.116930
   3 P    15.0000    0    30.974    4.196713    0.563506   -0.517174
   4 S    16.0000    0    32.060    4.655287    2.430660   -3.655802
   5 O     8.0000    0    15.999    2.396701    1.828943    1.573067
   6 C     6.0000    0    12.011    2.258877    4.582895    1.914699
   7 C     6.0000    0    12.011    4.599800    5.612330    3.177526
   8 S    16.0000    0    32.060    2.645654   -3.114675   -0.794282
   9 C     6.0000    0    12.011   -0.019236   -2.587808   -2.991635
  10 S    16.0000    0    32.060   -3.125127   -3.435734   -1.714065
  11 P    15.0000    0    30.974   -4.364231    0.053628   -0.135764
  12 S    16.0000    0    32.060   -3.738016    3.028958   -2.190954
  13 O     8.0000    0    15.999   -3.170074    0.341813    2.626114
  14 C     6.0000    0    12.011   -3.538755   -1.587144    4.602734
  15 C     6.0000    0    12.011   -1.240559   -1.540960    6.280308
  16 O     8.0000    0    15.999   -7.240199   -0.680936    0.522019
  17 C     6.0000    0    12.011   -9.180357   -0.871374   -1.462393
  18 C     6.0000    0    12.011  -11.712261   -0.514681   -0.212965
  19 H     1.0000    0     1.008    8.415168   -2.994542   -2.935792
  20 H     1.0000    0     1.008   11.596100   -2.894113   -1.893449
  21 H     1.0000    0     1.008    9.261178   -4.332027    0.037536
  22 H     1.0000    0     1.008    9.481996    1.321911   -1.319754
  23 H     1.0000    0     1.008   10.487144   -0.004501    1.603955
  24 H     1.0000    0     1.008    1.924203    5.446920    0.066628
  25 H     1.0000    0     1.008    0.580267    4.836339    3.088152
  26 H     1.0000    0     1.008    6.267696    5.411202    1.971223
  27 H     1.0000    0     1.008    4.317250    7.628150    3.549580
  28 H     1.0000    0     1.008    4.952126    4.659759    4.977922
  29 H     1.0000    0     1.008    0.270462   -3.834310   -4.611366
  30 H     1.0000    0     1.008   -0.029664   -0.625230   -3.653000
  31 H     1.0000    0     1.008   -5.265236   -1.084848    5.620292
  32 H     1.0000    0     1.008   -3.788225   -3.437654    3.711675
  33 H     1.0000    0     1.008    0.449243   -2.105912    5.233171
  34 H     1.0000    0     1.008   -0.944709    0.342816    7.078611
  35 H     1.0000    0     1.008   -1.523538   -2.872819    7.837381
  36 H     1.0000    0     1.008   -8.815112    0.587288   -2.882861
  37 H     1.0000    0     1.008   -9.007215   -2.737556   -2.335037
  38 H     1.0000    0     1.008  -12.036748   -1.955243    1.232958
  39 H     1.0000    0     1.008  -11.851500    1.357206    0.650974
  40 H     1.0000    0     1.008  -13.192377   -0.685529   -1.647096

------------------------------------------------------------------------------
                   ___                                                        
                  /   \      - P O W E R E D   B Y -                         
                 /     \                                                     
                 |  |  |   _    _      __       _____    __    __             
                 |  |  |  | |  | |    /  \     |  _  \  |  |  /  |          
                  \  \/   | |  | |   /    \    | | | |  |  | /  /          
                 / \  \   | |__| |  /  /\  \   | |_| |  |  |/  /          
                |  |  |   |  __  | /  /__\  \  |    /   |      \           
                |  |  |   | |  | | |   __   |  |    \   |  |\   \          
                \     /   | |  | | |  |  |  |  | |\  \  |  | \   \       
                 \___/    |_|  |_| |__|  |__|  |_| \__\ |__|  \__/        
                                                                              
                      - O R C A' S   B I G   F R I E N D -                    
                                      &                                       
                       - I N T E G R A L  F E E D E R -                       
                                                                              
 v1 FN, 2020, v2 2021, v3 2022-2024                                           
------------------------------------------------------------------------------


----------------------
SHARK INTEGRAL PACKAGE
----------------------

Number of atoms                             ...     41
Number of basis functions                   ...    539
Number of shells                            ...    253
Maximum angular momentum                    ...      2
Integral batch strategy                     ... SHARK/LIBINT Hybrid
RI-J (if used) integral strategy            ... SPLIT-RIJ (Revised 2003 algorithm where possible)
Printlevel                                  ...      1
Contraction scheme used                     ... SEGMENTED contraction
Prescreening option                         ... SCHWARTZ
   Thresh                                   ... 3.000e-11
   Tcut                                     ... 1.000e-12
   Tpresel                                  ... 1.000e-12 
Coulomb Range Separation                    ... NOT USED
Exchange Range Separation                   ... NOT USED
Multipole approximations                    ... NOT USED
Finite Nucleus Model                        ... NOT USED
CABS basis                                  ... NOT available
Auxiliary Coulomb fitting basis             ... AVAILABLE
   # of basis functions in Aux-J            ...   1185
   # of shells in Aux-J                     ...    407
   Maximum angular momentum in Aux-J        ...      4
Auxiliary J/K fitting basis                 ... NOT available
Auxiliary Correlation fitting basis         ... NOT available
Auxiliary 'external' fitting basis          ... NOT available

Checking pre-screening integrals            ... done (  0.0 sec) Dimension = 253
Check shell pair data                       ... done (  0.0 sec)
Shell pair information
Shell pair cut-off parameter TPreSel        ...   1.0e-12
Total number of shell pairs                 ...     32131
Shell pairs after pre-screening             ...     21559
Total number of primitive shell pairs       ...    124843
Primitive shell pairs kept                  ...     50557
          la=0 lb=0:   6098 shell pairs
          la=1 lb=0:   7833 shell pairs
          la=1 lb=1:   2561 shell pairs
          la=2 lb=0:   2866 shell pairs
          la=2 lb=1:   1844 shell pairs
          la=2 lb=2:    357 shell pairs

Calculating one electron integrals          ... done (  0.1 sec)
Calculating RI/J V-Matrix + Cholesky decomp.... done (  0.1 sec)
[...]
CPCM gradient                     ... done (  8.3 sec)
SMD gradient                      ... done (  0.0 sec)
Dispersion correction             ... done (  0.0 sec)

-------------------
DISPERSION GRADIENT
-------------------

   1   C   :    0.000119325   -0.000072313   -0.000012520
   2   C   :    0.000130898   -0.000027301    0.000000537
   3   O   :    0.000119973   -0.000024250    0.000033891
   4   P   :    0.000234729    0.000039105   -0.000094908
   5   S   :    0.000144064    0.000158078   -0.000273566
   6   O   :    0.000073203    0.000100913    0.000060026
   7   C   :    0.000051542    0.000178682    0.000057989
   8   C   :    0.000046322    0.000144399    0.000091939
   9   S   :    0.000097358   -0.000296709   -0.000119991
  10   C   :   -0.000001846   -0.000116150   -0.000140564
  11   S   :   -0.000078649   -0.000248450   -0.000161160
  12   P   :   -0.000229235    0.000015322   -0.000059746
  13   S   :   -0.000210621    0.000268368   -0.000195852
  14   O   :   -0.000093102    0.000008127    0.000119192
  15   C   :   -0.000061019   -0.000053947    0.000160591
  16   C   :   -0.000019155   -0.000060693    0.000208394
  17   O   :   -0.000098077   -0.000002110    0.000001531
  18   C   :   -0.000112688   -0.000007012   -0.000047792
  19   C   :   -0.000138831   -0.000000886    0.000002257
  20   H   :    0.000055299   -0.000031630   -0.000013882
  21   H   :    0.000042756   -0.000021314   -0.000006515
  22   H   :    0.000048160   -0.000034463    0.000006694
  23   H   :    0.000053556   -0.000002407   -0.000010197
  24   H   :    0.000057577   -0.000014521    0.000020518
  25   H   :    0.000018523    0.000076274    0.000006851
  26   H   :    0.000012996    0.000082310    0.000046879
  27   H   :    0.000009908    0.000054845    0.000033343
  28   H   :    0.000007047    0.000044776    0.000028216
  29   H   :    0.000015234    0.000049306    0.000046968
  30   H   :   -0.000004810   -0.000061472   -0.000048959
  31   H   :   -0.000004288   -0.000028480   -0.000062649
  32   H   :   -0.000009813   -0.000003840    0.000065853
  33   H   :   -0.000016620   -0.000033996    0.000058531
  34   H   :   -0.000008793   -0.000038996    0.000098438
  35   H   :   -0.000014890   -0.000012953    0.000079945
  36   H   :    0.000000936   -0.000016321    0.000050275
  37   H   :   -0.000045245    0.000011908   -0.000019618
  38   H   :   -0.000051074   -0.000022273   -0.000017869
  39   H   :   -0.000050575   -0.000006253    0.000005501
  40   H   :   -0.000053618    0.000007451    0.000005530
  41   H   :   -0.000036454   -0.000001123   -0.000004100

Difference to translation invariance:
           :    0.0000000000   -0.0000000000   -0.0000000000

Difference to rotation invariance:
           :   -0.0000000000    0.0000000000    0.0000000000

Norm of the Dispersion gradient    ...    0.0010117859
RMS gradient                       ...    0.0000912297
MAX gradient                       ...    0.0002967085
gCP correction                   ... done

------------------
CARTESIAN GRADIENT
------------------

   1   C   :   -0.000005201   -0.000074950    0.000023342
   2   C   :    0.000096147    0.000079612   -0.000038861
   3   O   :   -0.000042243   -0.000029070    0.000027018
   4   P   :   -0.000062105    0.000119293    0.000077614
   5   S   :    0.000003641   -0.000060345   -0.000000804
   6   O   :   -0.000060497    0.000071944    0.000088747
   7   C   :    0.000066302   -0.000007267    0.000012093
   8   C   :   -0.000026133    0.000003740   -0.000031795
   9   S   :   -0.000019796   -0.000111982   -0.000006952
  10   C   :   -0.000001835   -0.000047728   -0.000100491
  11   S   :    0.000197163    0.000041557    0.000168554
  12   P   :   -0.000137858   -0.000087482   -0.000122371
  13   S   :    0.000000530    0.000080169    0.000062272
  14   O   :    0.000002490    0.000056293   -0.000161740
  15   C   :   -0.000016310   -0.000116161    0.000050727
  16   C   :    0.000030473   -0.000033624   -0.000000738
  17   O   :    0.000010568   -0.000009407    0.000066853
  18   C   :   -0.000036965    0.000012227   -0.000001402
  19   C   :    0.000010192    0.000052011   -0.000023147
  20   H   :   -0.000002143   -0.000002385   -0.000004743
  21   H   :    0.000003456    0.000013998   -0.000010368
  22   H   :    0.000017052   -0.000009802   -0.000009991
  23   H   :    0.000001127   -0.000007406   -0.000022370
  24   H   :    0.000010135    0.000004363   -0.000017814
  25   H   :   -0.000017967    0.000003199   -0.000008472
  26   H   :   -0.000022815    0.000000158    0.000011556
  27   H   :    0.000006231    0.000018085   -0.000023642
  28   H   :   -0.000008025    0.000045912   -0.000018238
  29   H   :    0.000012113    0.000025438    0.000010939
  30   H   :    0.000029175   -0.000007530   -0.000001873
  31   H   :   -0.000013045    0.000003098    0.000010832
  32   H   :    0.000015161   -0.000001020    0.000007105
  33   H   :   -0.000021286   -0.000014923   -0.000002687
  34   H   :   -0.000016296    0.000006593   -0.000016683
  35   H   :   -0.000008023   -0.000002876    0.000021179
  36   H   :    0.000011506   -0.000027945    0.000007089
  37   H   :    0.000015504   -0.000004984   -0.000021271
  38   H   :   -0.000012671   -0.000004780    0.000004695
  39   H   :   -0.000020760   -0.000005254   -0.000000401
  40   H   :    0.000025354    0.000002166   -0.000000698
  41   H   :   -0.000012347    0.000027065   -0.000003063

Difference to translation invariance:
           :    0.0000000001   -0.0000000000    0.0000000000

Difference to rotation invariance:
           :   -0.0001603156    0.0000075755    0.0006166074

Norm of the Cartesian gradient     ...    0.0005435006
RMS gradient                       ...    0.0000490058
MAX gradient                       ...    0.0001971633

-------
TIMINGS
-------

Total SCF gradient time     ....       48.658 sec

Densities                   ....       0.007 sec  (  0.0%)
One electron gradient       ....       2.003 sec  (  4.1%)
RI-J Coulomb gradient       ....       9.527 sec  ( 19.6%)
XC gradient                 ....      22.666 sec  ( 46.6%)
CPCM gradient               ....       8.339 sec  ( 17.1%)
   A-Matrix (El+Nuc)        ....       0.283 sec  (  0.6%)
   Potential                ....       8.056 sec  ( 16.6%)
SMD gradient                ....       0.016 sec  (  0.0%)

Maximum memory used throughout the entire SCFGRAD-calculation: 84.9 MB

------------------------------------------------------------------------------
                              ORCA PROPERTY CALCULATIONS
------------------------------------------------------------------------------

GBWName                                 ... xtb_opt.gbw
Number of atoms                         ...     41
Number of basis functions               ...    539
Max core memory                         ...   1024 MB

Electric properties:
Dipole moment                           ... YES
Quadrupole moment                       ...  NO
Static polarizability (Dipole/Dipole)   ...  NO
Static polarizability (Dipole/Quad.)    ...  NO
Static polarizability (Quad./Quad.)     ...  NO
Static polarizability (Velocity)        ...  NO

Atomic electric properties:
Dipole moment                           ...  NO
Quadrupole moment                       ...  NO
Static polarizability                   ...  NO

Choice of electric origin               ... Center of mass
Position of electric origin             ...    -0.026863     0.028171    -0.127846

General magnetic properties:
Magnetizability                         ...  NO

EPR properties:
g-Tensor (aka g-matrix)                 ...  NO
Zero-Field splitting spin-orbit         ...  NO
Zero-field splitting spin-spin          ...  NO
Hyperfine couplings                     ...  NO (   0 nuclei)
Quadrupole couplings                    ...  NO (   0 nuclei)
Contact density                         ...  NO (   0 nuclei)

NMR properties:
Chemical shifts                         ...  NO (   0 nuclei)
Spin-rotation constants                 ...  NO (   0 nuclei)
Spin-spin couplings                     ...  NO (   0 nuclei,    0 pairs)

Choice of magnetic origin               ... GIAO
Position of magnetic origin             ...     0.000000     0.000000     0.000000

Properties with geometric perturbations:
SCF Hessian                             ...  NO
IR spectrum                             ...  NO
VCD spectrum                            ...  NO
X-ray spectroscopy properties:
SCF XES/XAS/RIXS spectra                ...  NO


-------------
DIPOLE MOMENT
-------------

Method             : SCF
Type of density    : Electron Density
Multiplicity       :   1
Irrep              :   0
Energy             : -2932.5082078989594265 Eh
Relativity type    : 
Basis              : AO
                                X                 Y                 Z
Electronic contribution:     -1.393425271      -1.802546158     -13.046881914
Nuclear contribution   :      1.096203052       0.444174209      14.362654918
                        -----------------------------------------
Total Dipole Moment    :     -0.297222219      -1.358371950       1.315773005
                        -----------------------------------------
Magnitude (a.u.)       :      1.914359945
Magnitude (Debye)      :      4.865916281



--------------------
Rotational spectrum 
--------------------
 
Rotational constants in cm-1:             0.013246             0.004525             0.004408 
Rotational constants in MHz :           397.095158           135.659847           132.149210 

Dipole components along the rotational axes: 
x,y,z [a.u.] :     0.438480    -0.284122     1.841680 
x,y,z [Debye]:     1.114527    -0.722181     4.681178 

 

Dipole moment calculation done in   0.0 sec 

Maximum memory used throughout the entire PROP-calculation: 52.1 MB

--------------------------------
SUGGESTED CITATIONS FOR THIS RUN
--------------------------------

Below you find a list of papers that are relevant to this ORCA run
We neither can nor want to force you to cite these papers, but we appreciate if you do
You receive ORCA, which is the product of decades of hard work by many enthusiastic individuals, for free
The only thing we kindly ask in return is that you cite our papers,
We deeply appreciate it, if you show your appreciation for ORCA by not just citing the generic ORCA reference.

Please note that relegating all ORCA citations to the supporting information does *not* help us.
SI sections are not indexed - citations you put there will not count into any citation statistics
But we need these citations in order to attract the funding resources that allow us to do what we are doing

Therefore, if you are a happy ORCA user, please consider citing a few of the papers listed below in the main body of your paper

In addition to the list printed below, the program has created the file xtb_opt.bibtex that contains the list in bibtex format
You can import this file easily into all common literature databanks and citation aid programs


List of essential papers. We consider these as the minimum necessary citations

  1. Neese,F.
     Software update: the ORCA program system, version 5.0
     WIRES Comput. Molec. Sci., 2022 12(1)e1606
     doi.org/10.1002/wcms.1606
  2. Grimme,S.; Hansen,A.; Ehlert,S.; Mewes,J.
     r2SCAN-3c: A 'Swiss army knife' composite electronic-structure method
     J. Chem. Phys., 2021 154 064103
     doi.org/10.1063/5.0040021

List of papers to cite with high priority. The work reported in these papers was absolutely
necessary for this run to complete.
Our perspective: the developers of density functionals and basis sets usually get cited in chemistry papers
Good! But without the algorithms to do something with them, the functionals or basis sets would not do anything.
Hence, in our opinion, the algorithm design and method developments papers are equally worthy of getting cited

  1. Neese,F.
     An improvement of the resolution of the identity approximation for the formation of the Coulomb matrix
     J. Comp. Chem., 2003 24(14)1740-1747
     doi.org/10.1002/jcc.10318
  2. Garcia-Rates,M.; Neese,F.
     Effect of the Solute Cavity on the Solvation Energy and its Derivatives within the Framework of the Gaussian Charge Scheme
     J. Comput. Chem., 2020 41 922-939
     doi.org/10.1002/jcc.26139
  3. Neese,F.
     The SHARK Integral Generation and Digestion System
     J. Comp. Chem., 2022  1-16
     doi.org/10.1002/jcc.26942
  4. Lehtola,S.; Steigemann,C.; Oliveira,M.; Marques,M.
     Recent developments in Libxc - A comprehensive library of functionals for density functional theory
     Software X, 2018 7 
     doi.org/10.1016/j.softx.2017.11.002
  5. Caldeweyher,E.; Bannwarth,C.; Grimme,S.
     Extension of the D3 dispersion coefficient model
     J. Chem. Phys., 2017 147 034112-XXXX
     doi.org/10.1063/1.4993215
  6. Caldeweyher,E.; Ehlert,S.; Hansen,A.; Neugebauer,H.; Spicher,S.; Bannwarth,C.; Grimme,S.
     A generally applicable atomic-charge dependent London dispersion correction
     J. Chem. Phys., 2019 150 154122-XXXX
     doi.org/10.1063/1.5090222
  7. Caldeweyher,E.; Mewes,J.; Ehlert,S.; Grimme,S.
     Extension and evaluation of the D4 London-dispersion model for periodic systems
     Phys. Chem. Chem. Phys., 2020 22(16)8499-8512
     doi.org/10.1039/D0CP00502A

List of suggested additional citations. These are papers that are important in the 'surrounding' of 
of this run, or papers that preceded the highly important papers. If you like your results we are grateful for a citation.

  1. Neese,F.
     The ORCA program system
     WIRES Comput. Molec. Sci., 2012 2(1)73-78
     doi.org/10.1002/wcms.81
  2. Neese,F.
     Software update: the ORCA program system, version 4.0
     WIRES Comput. Molec. Sci., 2018 8(1)1-6
     doi.org/10.1002/wcms.1327
  3. Neese,F.; Wennmohs,F.; Becker,U.; Riplinger,C.
     The ORCA quantum chemistry program package
     J. Chem. Phys., 2020 152 Art. No. L224108
     doi.org/10.1063/5.0004608

List of optional additional citations

  1. Neese,F.
     Approximate second-order SCF convergence for spin unrestricted wavefunctions
     Chem. Phys. Lett., 2000 325(1-3)93-98
     doi.org/10.1016/s0009-2614(00)00662-x

Timings for individual modules:

Sum of individual times          ...       82.742 sec (=   1.379 min)
Startup calculation              ...        3.089 sec (=   0.051 min)   3.7 %
SCF iterations                   ...       30.571 sec (=   0.510 min)  36.9 %
Property calculations            ...        0.195 sec (=   0.003 min)   0.2 %
SCF Gradient evaluation          ...       48.887 sec (=   0.815 min)  59.1 %
                             ****ORCA TERMINATED NORMALLY****
TOTAL RUN TIME: 0 days 0 hours 1 minutes 23 seconds 646 msec
  ------------------------------------------------------------------------
          * successful ORCA run, taking over control again...

         :::::::::::::::::::::::::::::::::::::::::::::::::::::
         ::                  ORCA SUMMARY                   ::
         :::::::::::::::::::::::::::::::::::::::::::::::::::::
         :: total energy           -2932.484267887432 Eh    ::
         :: gradient norm              0.000543500609 Eh/a0 ::
         :: HOMO-LUMO gap              0.000000000000 eV    ::
         :::::::::::::::::::::::::::::::::::::::::::::::::::::

           -------------------------------------------------
          |                Property Printout                |
           -------------------------------------------------
           -------------------------------------------------
          |                Geometry Summary                 |
           -------------------------------------------------

      molecular mass/u    :      384.4756129
   center of mass at/Å    :       -0.0142126       0.0149001      -0.0677079
  moments of inertia/u·Å² :        0.1272747E+04   0.3725407E+04   0.3824359E+04
rotational constants/cm⁻¹ :        0.1324508E-01   0.4525045E-02   0.4407963E-02

 * 34 selected distances

     #   Z          #   Z                                           value/Å
     1   6 C        2   6 C                                       1.5081992
     3   8 O        4  15 P                                       1.6112271
     4  15 P        5  16 S                                       1.9476457
     4  15 P        6   8 O                                       1.6058396
     7   6 C        8   6 C                                       1.5090431
     4  15 P        9  16 S                                       2.1172718
    11  16 S       12  15 P                                       2.1295943 (max)
    12  15 P       13  16 S                                       1.9421092
    12  15 P       14   8 O                                       1.5998420
    15   6 C       16   6 C                                       1.5058765
    12  15 P       17   8 O                                       1.6090091
    18   6 C       19   6 C                                       1.5058206
     1   6 C       20   1 H                                       1.0937346
     1   6 C       21   1 H                                       1.0949945
     1   6 C       22   1 H                                       1.0938725
     2   6 C       23   1 H                                       1.0939493
     2   6 C       24   1 H                                       1.0918231 (min)
     7   6 C       25   1 H                                       1.0939461
     7   6 C       26   1 H                                       1.0920433
     8   6 C       27   1 H                                       1.0944558
     8   6 C       28   1 H                                       1.0950082
     8   6 C       29   1 H                                       1.0938590
    10   6 C       30   1 H                                       1.0923019
    10   6 C       31   1 H                                       1.0958881
    15   6 C       32   1 H                                       1.0932215
    15   6 C       33   1 H                                       1.0947672
    16   6 C       34   1 H                                       1.0935918
    16   6 C       35   1 H                                       1.0939224
    16   6 C       36   1 H                                       1.0945680
    18   6 C       37   1 H                                       1.0946210
    18   6 C       38   1 H                                       1.0940157
    19   6 C       39   1 H                                       1.0936548
    19   6 C       40   1 H                                       1.0934997
    19   6 C       41   1 H                                       1.0943408

 * 4 distinct bonds (by element types)

   Z      Z             #   av. dist./Å        max./Å        min./Å
   1 H    6 C          22     1.0939127     1.0958881     1.0918231
   6 C    6 C           4     1.5072348     1.5090431     1.5058206
   8 O   15 P           4     1.6064795     1.6112271     1.5998420
  15 P   16 S           4     2.0341553     2.1295943     1.9421092


optimized geometry written to: xtbopt.coord


           -------------------------------------------------
          | TOTAL ENERGY            -2932.484267887432 Eh   |
          | GRADIENT NORM               0.000543500609 Eh/α |
           -------------------------------------------------

------------------------------------------------------------------------
 * finished run on 2025/04/10 at 06:23:14.414     
------------------------------------------------------------------------
 total:
 * wall-time:     0 d,  0 h,  8 min, 12.970 sec
 *  cpu-time:     0 d,  0 h,  0 min,  3.216 sec
 * ratio c/w:     0.007 speedup
 SCF:
 * wall-time:     0 d,  0 h,  1 min, 23.713 sec
 *  cpu-time:     0 d,  0 h,  0 min,  0.980 sec
 * ratio c/w:     0.012 speedup
 ANC optimizer:
 * wall-time:     0 d,  0 h,  6 min, 49.071 sec
 *  cpu-time:     0 d,  0 h,  0 min,  1.707 sec
 * ratio c/w:     0.004 speedup

