41
 energy: -2932.484251564651 gnorm: 0.001597454089 xtb: 6.7.1 (edcfbbe)
C            5.09401751998361       -1.46872332163605       -0.67419166901143
C            4.88276560148065       -0.13426724017505       -0.00475401145791
O            3.54493713602695       -0.02291607547382        0.59239764378146
P            2.22265821934331        0.29737151055425       -0.27020701766817
S            2.45898076296783        1.27716722886343       -1.93686082218221
O            1.27152434993348        0.96871147901820        0.83629093490415
C            1.19598888017805        2.42576017228685        1.01461472459263
C            2.43461375786475        2.97247566015855        1.68122008175334
S            1.40053562222630       -1.64708385038442       -0.42079786920075
C           -0.00936042606296       -1.37137970043389       -1.58508460994376
S           -1.65132215536340       -1.81766812070416       -0.90446174532972
P           -2.31130532178305        0.02815158980872       -0.07137176670755
S           -1.97787025767174        1.60346963341827       -1.15706018049567
O           -1.67925785483892        0.17974283883469        1.38991480272666
C           -1.87327129511650       -0.84072070270042        2.43550796783233
C           -0.65694499161877       -0.81627871101303        3.32257167867655
O           -3.83307208325853       -0.36181941488017        0.27539562523833
C           -4.85982204399217       -0.46106831333020       -0.77445176567310
C           -6.19929030203292       -0.27111337692705       -0.11293223648717
H            4.45320315182779       -1.58494131620928       -1.55257078510469
H            6.13638811363670       -1.53215497777981       -1.00254332303387
H            4.90189562523965       -2.29133134833280        0.02057201506505
H            5.01879554882287        0.70018012008068       -0.69886600744052
H            5.55266482078425       -0.00125688931642        0.84702272177582
H            1.01787339430371        2.88169107329162        0.03657916910644
H            0.30840507432745        2.55877167409332        1.63616477072790
H            3.31674708367420        2.86556787467953        1.04253395154394
H            2.28347440464709        4.03904162557149        1.87679160282444
H            2.62154421464009        2.46925159453466        2.63407893707104
H            0.14444699321749       -2.02893705362940       -2.44316711348093
H           -0.01502791455085       -0.33222760825033       -1.93210246418593
H           -2.78659681736809       -0.57525733755129        2.97460048835671
H           -2.00527046068635       -1.81987770715186        1.96421579739272
H            0.23686319427434       -1.11418974136030        2.76710732262953
H           -0.50069194893793        0.17992927996620        3.74582726311327
H           -0.80568999920423       -1.52222120589430        4.14540977577641
H           -4.66645227472071        0.31052747758630       -1.52604460658885
H           -4.76938787992529       -1.44892456551576       -1.23603865334525
H           -6.37195404176526       -1.03359119385792        0.65155425572677
H           -6.27161490583089        0.71968310615978        0.34498096554014
H           -6.98234200987182       -0.36009382533496       -0.87238290470043
41
 energy: -2932.484253443716 gnorm: 0.001562587703 xtb: 6.7.1 (edcfbbe)
C            5.09338170555104       -1.46915124767559       -0.67430906031535
C            4.88086754548255       -0.13493677033392       -0.00420749384705
O            3.54141898967870       -0.02383635700552        0.59105381043424
P            2.22080464856191        0.29819458964821       -0.27367684448924
S            2.46347200582235        1.28624972980712       -1.93456696856279
O            1.26827958396155        0.96783497791766        0.83243142136381
C            1.19534596784725        2.42516365869079        1.01321480976100
C            2.43410912991045        2.96991691713924        1.68147425696382
S            1.40001987947315       -1.64821500636503       -0.42031601568541
C           -0.01017946610395       -1.36940891645835       -1.58310502681408
S           -1.65374588484583       -1.81811205543032       -0.90704420797145
P           -2.30945143758202        0.02837852046402       -0.07184327398383
S           -1.97807307466167        1.60285529508588       -1.15940284879791
O           -1.67753082819814        0.18087951168440        1.38967978632139
C           -1.87262833053145       -0.83988019882825        2.43566179594880
C           -0.65647541605382       -0.81544071691324        3.32339583125649
O           -3.83134841767025       -0.36033598472006        0.27624051442947
C           -4.85803560014626       -0.46111137507776       -0.77386479244378
C           -6.19786172651673       -0.27235735780395       -0.11269615150343
H            4.45311525121267       -1.58464332024622       -1.55355417328081
H            6.13639168516632       -1.53149856644047       -1.00197020948467
H            4.90080432384443       -2.29240982962831        0.01986328572590
H            5.01765593769348        0.69952532964198       -0.69838372462672
H            5.54955764968135       -0.00238173833455        0.84877627665079
H            1.01824461969546        2.88238601066310        0.03525823496882
H            0.30706423410887        2.55928017864954        1.63417951282406
H            3.31672212960024        2.86348468274941        1.04312638899117
H            2.28459051161574        4.03664326005878        1.87835702160684
H            2.62055242172093        2.46583833182839        2.63420262396169
H            0.14312257570961       -2.02902954735416       -2.44022993272614
H           -0.01569735275883       -0.33085770541141       -1.93308443208747
H           -2.78624312928455       -0.57407677403394        2.97413068302457
H           -2.00464230008174       -1.81912818816809        1.96413383409798
H            0.23772889306313       -1.11440069844848        2.76927480180562
H           -0.49991857658862        0.18141039552461        3.74583963368937
H           -0.80622167617877       -1.52023050504268        4.14736337080184
H           -4.66475614261761        0.31077952608559       -1.52554422437341
H           -4.76641268198390       -1.44865205732883       -1.23564857363540
H           -6.36957270474901       -1.03467021516838        0.65245333261280
H           -6.27154387883494        0.71820222442588        0.34448060481806
H           -6.98110546060136       -0.36276623325764       -0.87160581478597
41
 energy: -2932.484264219014 gnorm: 0.000681773364 xtb: 6.7.1 (edcfbbe)
C            5.09305413891367       -1.46911940961349       -0.67374968738671
C            4.88110643916204       -0.13506063177985       -0.00268791529407
O            3.54149982174042       -0.02342914237720        0.59282970853375
P            2.22155492155273        0.29961941379959       -0.27270439816421
S            2.46398930454146        1.28513311981376       -1.93492019953316
O            1.26676332409639        0.96812623831574        0.83195857180116
C            1.19473278817355        2.42563762824833        1.01288659704859
C            2.43384616625104        2.96827593393971        1.68214592996530
S            1.40011078543904       -1.64568115902486       -0.42619476047197
C           -0.01117180117530       -1.37062652986664       -1.58759669687624
S           -1.65349629346812       -1.81639627495562       -0.90647748142127
P           -2.30971542050655        0.02948946268850       -0.07152111882154
S           -1.97783836724537        1.60311755037530       -1.16022507506908
O           -1.67671886248666        0.18205270545266        1.38971081615264
C           -1.87205876499409       -0.83913195284759        2.43586846402914
C           -0.65612482347211       -0.81452495563360        3.32409379611939
O           -3.83160794763313       -0.35820992852254        0.27793443386106
C           -4.85737089505424       -0.46092682376597       -0.77296091439385
C           -6.19753317307815       -0.27362893355388       -0.11226437117890
H            4.45288609165350       -1.58366991335436       -1.55336403006036
H            6.13619976888586       -1.53120572334655       -1.00145582736085
H            4.90013685293142       -2.29303232638147        0.01964927845445
H            5.01792348350105        0.69948991194776       -0.69683233764652
H            5.54949064399219       -0.00317588452215        0.85063765021774
H            1.01875152263054        2.88318033666191        0.03472745921853
H            0.30589785462704        2.56042663705239        1.63318306621893
H            3.31669638673798        2.86170960421953        1.04401953094362
H            2.28554165600129        4.03505455091357        1.88001265920039
H            2.61953156813172        2.46319188918679        2.63459457098755
H            0.14050987275345       -2.03164777304826       -2.44404821806952
H           -0.01746742320440       -0.33229253007165       -1.93850997657001
H           -2.78581101528188       -0.57308264973644        2.97394004718033
H           -2.00402501761212       -1.81830898984502        1.96404423890965
H            0.23830510182704       -1.11453185796459        2.77098604046430
H           -0.49928995117463        0.18280617633505        3.74567418764921
H           -0.80674799008340       -1.51821329476013        4.14898752901618
H           -4.66432837272570        0.31107675588151       -1.52475931428433
H           -4.76410053995990       -1.44835257270382       -1.23457274618889
H           -6.36803814591560       -1.03574112137050        0.65348817589478
H           -6.27256916143004        0.71696123550131        0.34418382908178
H           -6.98064896780030       -0.36576961681503       -0.87100653188121
41
 energy: -2932.484267540153 gnorm: 0.000500446747 xtb: 6.7.1 (edcfbbe)
C            5.09197576945919       -1.46894320387386       -0.67340161886316
C            4.87960146313596       -0.13539401864012       -0.00168142756111
O            3.53920029727756       -0.02437352380332        0.59251384009514
P            2.22008621720875        0.29983216007685       -0.27402007283937
S            2.46462875009165        1.28507595353633       -1.93619230624043
O            1.26457688851187        0.96843618276162        0.82992327099919
C            1.19446201424208        2.42599230476058        1.01214876553519
C            2.43365120344687        2.96603666860913        1.68294892934152
S            1.40123483686272       -1.64637996851987       -0.43079966999975
C           -0.01106767958505       -1.37077272338039       -1.59031125327664
S           -1.65185193691788       -1.81550899171761       -0.90404606421298
P           -2.30892222884488        0.03133049903647       -0.07181194204026
S           -1.97720757528030        1.60620094415650       -1.15879680265382
O           -1.67523855261017        0.18354117975200        1.38927356952768
C           -1.87111178076012       -0.83765702545993        2.43563790704484
C           -0.65599178933752       -0.81279149791728        3.32475476133188
O           -3.83070424742696       -0.35620806928400        0.27876358273572
C           -4.85616189823970       -0.46070643014815       -0.77229250039845
C           -6.19666253181653       -0.27579629630610       -0.11171579814640
H            4.45279742390204       -1.58278395634892       -1.55359840661007
H            6.13524860773928       -1.53075696098148       -1.00016377616046
H            4.89867369969134       -2.29346135963309        0.01895738687497
H            5.01728630736105        0.69988599422525       -0.69455590068415
H            5.54686399125674       -0.00438152396859        0.85252810960178
H            1.02001469355867        2.88476453705860        0.03449136623082
H            0.30546642602532        2.56105815546279        1.63182810883673
H            3.31672543113802        2.85899752686019        1.04533165454351
H            2.28632261176453        4.03260427570560        1.88237457402960
H            2.61762090218684        2.45891871167108        2.63453385069680
H            0.13851215441821       -2.03210090257686       -2.44669552615257
H           -0.01779984137288       -0.33280008646103       -1.94179099033990
H           -2.78509731269996       -0.57140086644661        2.97310522739753
H           -2.00268498822476       -1.81671869843101        1.96378870688270
H            0.23863960214959       -1.11437107284135        2.77282422564600
H           -0.49880198958612        0.18483731894597        3.74510485372743
H           -0.80797686971018       -1.51516657147158        4.15037494770260
H           -4.66471832596166        0.31151790269867       -1.52409953312740
H           -4.76099968816955       -1.44812252937131       -1.23362068742175
H           -6.36541313300549       -1.03762983696553        0.65458280985124
H           -6.27369696570921        0.71519234459316        0.34407855121228
H           -6.97957537237408       -0.37034590914366       -0.87045779898467
41
 energy: -2932.484267540153 gnorm: 0.000500446747 xtb: 6.7.1 (edcfbbe)
C            5.09197576945919       -1.46894320387386       -0.67340161886316
C            4.87960146313596       -0.13539401864012       -0.00168142756111
O            3.53920029727756       -0.02437352380332        0.59251384009514
P            2.22008621720875        0.29983216007685       -0.27402007283937
S            2.46462875009165        1.28507595353633       -1.93619230624043
O            1.26457688851187        0.96843618276162        0.82992327099919
C            1.19446201424208        2.42599230476058        1.01214876553519
C            2.43365120344687        2.96603666860913        1.68294892934152
S            1.40123483686272       -1.64637996851987       -0.43079966999975
C           -0.01106767958505       -1.37077272338039       -1.59031125327664
S           -1.65185193691788       -1.81550899171761       -0.90404606421298
P           -2.30892222884488        0.03133049903647       -0.07181194204026
S           -1.97720757528030        1.60620094415650       -1.15879680265382
O           -1.67523855261017        0.18354117975200        1.38927356952768
C           -1.87111178076012       -0.83765702545993        2.43563790704484
C           -0.65599178933752       -0.81279149791728        3.32475476133188
O           -3.83070424742696       -0.35620806928400        0.27876358273572
C           -4.85616189823970       -0.46070643014815       -0.77229250039845
C           -6.19666253181653       -0.27579629630610       -0.11171579814640
H            4.45279742390204       -1.58278395634892       -1.55359840661007
H            6.13524860773928       -1.53075696098148       -1.00016377616046
H            4.89867369969134       -2.29346135963309        0.01895738687497
H            5.01728630736105        0.69988599422525       -0.69455590068415
H            5.54686399125674       -0.00438152396859        0.85252810960178
H            1.02001469355867        2.88476453705860        0.03449136623082
H            0.30546642602532        2.56105815546279        1.63182810883673
H            3.31672543113802        2.85899752686019        1.04533165454351
H            2.28632261176453        4.03260427570560        1.88237457402960
H            2.61762090218684        2.45891871167108        2.63453385069680
H            0.13851215441821       -2.03210090257686       -2.44669552615257
H           -0.01779984137288       -0.33280008646103       -1.94179099033990
H           -2.78509731269996       -0.57140086644661        2.97310522739753
H           -2.00268498822476       -1.81671869843101        1.96378870688270
H            0.23863960214959       -1.11437107284135        2.77282422564600
H           -0.49880198958612        0.18483731894597        3.74510485372743
H           -0.80797686971018       -1.51516657147158        4.15037494770260
H           -4.66471832596166        0.31151790269867       -1.52409953312740
H           -4.76099968816955       -1.44812252937131       -1.23362068742175
H           -6.36541313300549       -1.03762983696553        0.65458280985124
H           -6.27369696570921        0.71519234459316        0.34407855121228
H           -6.97957537237408       -0.37034590914366       -0.87045779898467
