      -----------------------------------------------------------      
     |                   =====================                   |     
     |                           x T B                           |     
     |                   =====================                   |     
     |                         S. Grimme                         |     
     |          Mulliken Center for Theoretical Chemistry        |     
     |                    University of Bonn                     |     
      -----------------------------------------------------------      

   * xtb version 6.7.1 (edcfbbe) compiled by 'albert@albert-system' on 2024-07-22

   xtb is free software: you can redistribute it and/or modify it under
   the terms of the GNU Lesser General Public License as published by
   the Free Software Foundation, either version 3 of the License, or
   (at your option) any later version.
   
   xtb is distributed in the hope that it will be useful,
   but WITHOUT ANY WARRANTY; without even the implied warranty of
   MERCHANTABILITY or FITNESS FOR A PARTICULAR PURPOSE.  See the
   GNU Lesser General Public License for more details.
   
   Cite this work as:
   * C. Bannwarth, E. Caldeweyher, S. Ehlert, A. Hansen, P. Pracht,
     J. Seibert, S. Spicher, S. Grimme, WIREs Comput. Mol. Sci., 2020, 11,
     e01493. DOI: 10.1002/wcms.1493
   
   for GFN2-xTB:
   * C. Bannwarth, S. Ehlert and S. Grimme., J. Chem. Theory Comput., 2019,
     15, 1652-1671. DOI: 10.1021/acs.jctc.8b01176
   for GFN1-xTB:
   * S. Grimme, C. Bannwarth, P. Shushkov, J. Chem. Theory Comput., 2017,
     13, 1989-2009. DOI: 10.1021/acs.jctc.7b00118
   for GFN0-xTB:
   * P. Pracht, E. Caldeweyher, S. Ehlert, S. Grimme, ChemRxiv, 2019, preprint.
     DOI: 10.26434/chemrxiv.8326202.v1
   for GFN-FF:
   * S. Spicher and S. Grimme, Angew. Chem. Int. Ed., 2020, 59, 15665-15673.
     DOI: 10.1002/anie.202004239
   
   for ALPB and GBSA implicit solvation:
   * S. Ehlert, M. Stahn, S. Spicher, S. Grimme, J. Chem. Theory Comput.,
     2021, 17, 4250-4261. DOI: 10.1021/acs.jctc.1c00471
   
   for ddCOSMO and CPCM-X implicit solvation:
   * M. Stahn, S. Ehlert, S. Grimme, J. Phys. Chem. A,
     2023, XX, XXXX-XXXX. DOI: 10.1021/acs.jpca.3c04382
   
   for DFT-D4:
   * E. Caldeweyher, C. Bannwarth and S. Grimme, J. Chem. Phys., 2017,
     147, 034112. DOI: 10.1063/1.4993215
   * E. Caldeweyher, S. Ehlert, A. Hansen, H. Neugebauer, S. Spicher,
     C. Bannwarth and S. Grimme, J. Chem. Phys., 2019, 150, 154122.
     DOI: 10.1063/1.5090222
   * E. Caldeweyher, J.-M. Mewes, S. Ehlert and S. Grimme, Phys. Chem. Chem. Phys.
     2020, 22, 8499-8512. DOI: 10.1039/D0CP00502A
   
   for sTDA-xTB:
   * S. Grimme and C. Bannwarth, J. Chem. Phys., 2016, 145, 054103.
     DOI: 10.1063/1.4959605
   
   in the mass-spec context:
   * V. Asgeirsson, C. Bauer and S. Grimme, Chem. Sci., 2017, 8, 4879.
     DOI: 10.1039/c7sc00601b
   * J. Koopman and S. Grimme, ACS Omega 2019, 4, 12, 15120-15133.
     DOI: 10.1021/acsomega.9b02011
   
   for metadynamics refer to:
   * S. Grimme, J. Chem. Theory Comput., 2019, 155, 2847-2862
     DOI: 10.1021/acs.jctc.9b00143
   
   for SPH calculations refer to:
   * S. Spicher and S. Grimme, J. Chem. Theory Comput., 2021, 17, 1701-1714
     DOI: 10.1021/acs.jctc.0c01306
   
   for ONIOM refer to:
   * C. Plett, A. Katbashev, S. Ehlert, S. Grimme, M. Bursch,
     Phys. Chem. Chem. Phys., 2023, 25, 17860-17868. DOI: 10.1039/D3CP02178E
   
   for DIPRO refer to:
   * J. Kohn, N. Gildemeister, S. Grimme, D. Fazzi, A. Hansen,
     J. Chem. Phys., 2023, just accepted.
   
   for PTB refer to:
   * S. Grimme, M. Mueller, A. Hansen, J. Chem. Phys., 2023, 158, 124111.
     DOI: 10.1063/5.0137838
   
   with help from (in alphabetical order)
   P. Atkinson, C. Bannwarth, F. Bohle, G. Brandenburg, E. Caldeweyher
   M. Checinski, S. Dohm, S. Ehlert, S. Ehrlich, I. Gerasimov, C. Hölzer
   A. Katbashev, J. Kohn, J. Koopman, C. Lavigne, S. Lehtola, F. März, M. Müller,
   F. Musil, H. Neugebauer, J. Pisarek, C. Plett, P. Pracht, F. Pultar,
   J. Seibert, P. Shushkov, S. Spicher, M. Stahn, M. Steiner, T. Strunk,
   J. Stückrath, T. Rose, and J. Unsleber
   
 * started run on 2025/04/09 at 05:21:29.187     
   ID    Z sym.   atoms
    1    6 C      1, 2, 7, 8, 10, 15, 16, 18, 19
    2    8 O      3, 6, 14, 17
    3   15 P      4, 12
    4   16 S      5, 9, 11, 13
    5    1 H      20-41

           -------------------------------------------------
          |                Calculation Setup                |
           -------------------------------------------------

          program call               : /srv/scratch/z5358697/.xtb/bin/xtb solv.coord --gfn2 --sp --chrg 0 --norestart --parallel 1 --alpb water reference -I xtb_sp-xcontrol-inp
          hostname                   : k163
          coordinate file            : solv.coord
          omp threads                :                     1


           -------------------------------------------------
          |                 G F N 2 - x T B                 |
           -------------------------------------------------

        Reference                      10.1021/acs.jctc.8b01176
      * Hamiltonian:
        H0-scaling (s, p, d)           1.850000    2.230000    2.230000
        zeta-weighting                 0.500000
      * Dispersion:
        s8                             2.700000
        a1                             0.520000
        a2                             5.000000
        s9                             5.000000
      * Repulsion:
        kExp                           1.500000    1.000000
        rExp                           1.000000
      * Coulomb:
        alpha                          2.000000
        third order                    shell-resolved
        anisotropic                    true
        a3                             3.000000
        a5                             4.000000
        cn-shift                       1.200000
        cn-exp                         4.000000
        max-rad                        5.000000

      * Solvation model:               ALPB
        Solvent                        water
        Parameter file                 internal GFN2-xTB/ALPB
        Dielectric constant                8.0200E+01
        Reference state                gsolv=reference [X=1]
        Free energy shift                  2.8945E-03 Eh       1.8164E+00 kcal/mol
        Temperature                        2.9815E+02 K
        Density                            1.0000E+00 kg/L
        Solvent mass                       1.8000E+01 g/mol
        Interaction kernel             P16
        Born radius scaling (c1)           1.4744E+00
        Born radii integrator          GBOBC
        Born offset                        0.0000E+00 a0       0.0000E+00 AA
        H-bond correction              true
        Ion screening                  false
        Surface tension                    1.0000E-05 Eh       1.5569E+01 dyn/cm
        Grid points                               974 per atom

          ...................................................
          :                      SETUP                      :
          :.................................................:
          :  # basis functions                 134          :
          :  # atomic orbitals                 128          :
          :  # shells                           66          :
          :  # electrons                       116          :
          :  max. iterations                   250          :
          :  Hamiltonian                  GFN2-xTB          :
          :  restarted?                      false          :
          :  GBSA solvation                   true          :
          :  PC potential                    false          :
          :  electronic temp.          300.0000000     K    :
          :  accuracy                    1.0000000          :
          :  -> integral cutoff          0.2500000E+02      :
          :  -> integral neglect         0.1000000E-07      :
          :  -> SCF convergence          0.1000000E-05 Eh   :
          :  -> wf. convergence          0.1000000E-03 e    :
          :  Broyden damping             0.4000000          :
          :  net charge                          0          :
          :  unpaired electrons                  0          :
          ...................................................

 iter      E             dE          RMSdq      gap      omega  full diag
   1    -65.4383784 -0.654384E+02  0.630E+00    4.26       0.0  T
   2    -65.5605003 -0.122122E+00  0.356E+00    3.64       1.0  T
   3    -65.5803879 -0.198876E-01  0.114E+00    3.20       1.0  T
   4    -65.5832597 -0.287179E-02  0.533E-01    3.15       1.0  T
   5    -65.5840456 -0.785869E-03  0.284E-01    3.22       1.0  T
   6    -65.5842651 -0.219525E-03  0.125E-01    3.22       1.0  T
   7    -65.5843165 -0.513814E-04  0.449E-02    3.24       1.0  T
   8    -65.5843207 -0.417379E-05  0.193E-02    3.24       1.0  T
   9    -65.5843216 -0.931541E-06  0.609E-03    3.24       2.6  T
  10    -65.5843216 -0.190595E-08  0.316E-03    3.24       4.9  T
  11    -65.5843216 -0.582100E-07  0.962E-04    3.24      16.2  T
  12    -65.5843217 -0.153349E-08  0.399E-04    3.24      39.1  T

   *** convergence criteria satisfied after 12 iterations ***

         #    Occupation            Energy/Eh            Energy/eV
      -------------------------------------------------------------
         1        2.0000           -0.7657691             -20.8376
       ...           ...                  ...                  ...
        52        2.0000           -0.4429220             -12.0525
        53        2.0000           -0.4195776             -11.4173
        54        2.0000           -0.4109763             -11.1832
        55        2.0000           -0.3996841             -10.8760
        56        2.0000           -0.3964100             -10.7869
        57        2.0000           -0.3943174             -10.7299
        58        2.0000           -0.3912696             -10.6470 (HOMO)
        59                         -0.2721640              -7.4060 (LUMO)
        60                         -0.2652983              -7.2191
        61                         -0.2225985              -6.0572
        62                         -0.1889210              -5.1408
        63                         -0.1832363              -4.9861
       ...                                ...                  ...
       128                          1.2482333              33.9662
      -------------------------------------------------------------
                  HL-Gap            0.1191056 Eh            3.2410 eV
             Fermi-level           -0.3317168 Eh           -9.0265 eV

 SCC (total)                   0 d,  0 h,  0 min,  0.060 sec
 SCC setup                      ...        0 min,  0.003 sec (  4.202%)
 Dispersion                     ...        0 min,  0.000 sec (  0.546%)
 classical contributions        ...        0 min,  0.000 sec (  0.093%)
 integral evaluation            ...        0 min,  0.013 sec ( 22.289%)
 iterations                     ...        0 min,  0.024 sec ( 39.971%)
 molecular gradient             ...        0 min,  0.020 sec ( 32.551%)
 printout                       ...        0 min,  0.000 sec (  0.329%)

         :::::::::::::::::::::::::::::::::::::::::::::::::::::
         ::                     SUMMARY                     ::
         :::::::::::::::::::::::::::::::::::::::::::::::::::::
         :: total energy             -65.022606941852 Eh    ::
         :: total w/o Gsasa/hb       -65.026842771875 Eh    ::
         :: gradient norm              0.000163000424 Eh/a0 ::
         :: HOMO-LUMO gap              3.241028411399 eV    ::
         ::.................................................::
         :: SCC energy               -65.583431465110 Eh    ::
         :: -> isotropic ES            0.127704249675 Eh    ::
         :: -> anisotropic ES         -0.020011716775 Eh    ::
         :: -> anisotropic XC          0.030030775580 Eh    ::
         :: -> dispersion             -0.052981016890 Eh    ::
         :: -> Gsolv                  -0.024024666476 Eh    ::
         ::    -> Gelec               -0.028260496500 Eh    ::
         ::    -> Gsasa                0.005342779882 Eh    ::
         ::    -> Ghb                 -0.004001499019 Eh    ::
         ::    -> Gshift               0.002894549160 Eh    ::
         :: repulsion energy           0.560824523258 Eh    ::
         :: add. restraining           0.000000000000 Eh    ::
         :: total charge              -0.000000000000 e     ::
         :::::::::::::::::::::::::::::::::::::::::::::::::::::

           -------------------------------------------------
          |                Property Printout                |
           -------------------------------------------------

    * Orbital Energies and Occupations

         #    Occupation            Energy/Eh            Energy/eV
      -------------------------------------------------------------
         1        2.0000           -0.7657691             -20.8376
       ...           ...                  ...                  ...
        46        2.0000           -0.4663673             -12.6905
        47        2.0000           -0.4606904             -12.5360
        48        2.0000           -0.4577123             -12.4550
        49        2.0000           -0.4544085             -12.3651
        50        2.0000           -0.4506909             -12.2639
        51        2.0000           -0.4475663             -12.1789
        52        2.0000           -0.4429220             -12.0525
        53        2.0000           -0.4195776             -11.4173
        54        2.0000           -0.4109763             -11.1832
        55        2.0000           -0.3996841             -10.8760
        56        2.0000           -0.3964100             -10.7869
        57        2.0000           -0.3943174             -10.7299
        58        2.0000           -0.3912696             -10.6470 (HOMO)
        59                         -0.2721640              -7.4060 (LUMO)
        60                         -0.2652983              -7.2191
        61                         -0.2225985              -6.0572
        62                         -0.1889210              -5.1408
        63                         -0.1832363              -4.9861
        64                         -0.1757521              -4.7825
        65                         -0.1640588              -4.4643
        66                         -0.1575066              -4.2860
        67                         -0.1369015              -3.7253
        68                         -0.1257452              -3.4217
        69                         -0.0554315              -1.5084
       ...                                ...                  ...
       128                          1.2482333              33.9662
      -------------------------------------------------------------
                  HL-Gap            0.1191056 Eh            3.2410 eV
             Fermi-level           -0.3317168 Eh           -9.0265 eV

     #   Z          covCN         q      C6AA      α(0)
     1   6 C        3.751    -0.127    22.993     6.838
     2   6 C        3.866     0.075    19.290     6.246
     3   8 O        1.655    -0.251    18.183     5.756
     4  15 P        3.821     0.358   145.317    21.654
     5  16 S        0.926    -0.477   160.320    21.416
     6   8 O        1.655    -0.249    18.150     5.751
     7   6 C        3.829     0.083    19.190     6.233
     8   6 C        3.751    -0.132    23.097     6.854
     9  16 S        2.021    -0.139   146.901    20.399
    10   6 C        3.802     0.043    19.857     6.344
    11  16 S        2.023    -0.131   146.543    20.374
    12  15 P        3.851     0.386   144.196    21.571
    13  16 S        0.926    -0.480   160.425    21.423
    14   8 O        1.655    -0.248    18.131     5.748
    15   6 C        3.876     0.083    19.154     6.223
    16   6 C        3.752    -0.134    23.147     6.861
    17   8 O        1.653    -0.258    18.292     5.774
    18   6 C        3.848     0.071    19.369     6.260
    19   6 C        3.751    -0.135    23.154     6.862
    20   1 H        0.925     0.087     1.911     2.162
    21   1 H        0.925     0.075     2.031     2.229
    22   1 H        0.925     0.049     2.330     2.387
    23   1 H        0.924     0.062     2.177     2.307
    24   1 H        0.924     0.094     1.840     2.121
    25   1 H        0.924     0.080     1.981     2.201
    26   1 H        0.924     0.051     2.308     2.376
    27   1 H        0.925     0.065     2.136     2.285
    28   1 H        0.925     0.079     1.985     2.203
    29   1 H        0.925     0.083     1.951     2.184
    30   1 H        0.925     0.107     1.720     2.051
    31   1 H        0.924     0.077     2.006     2.215
    32   1 H        0.924     0.064     2.151     2.294
    33   1 H        0.924     0.057     2.230     2.336
    34   1 H        0.925     0.085     1.924     2.169
    35   1 H        0.925     0.073     2.056     2.243
    36   1 H        0.925     0.077     2.009     2.217
    37   1 H        0.924     0.093     1.853     2.129
    38   1 H        0.924     0.075     2.031     2.229
    39   1 H        0.925     0.071     2.077     2.254
    40   1 H        0.925     0.070     2.089     2.260
    41   1 H        0.925     0.088     1.898     2.154

 Mol. C6AA /au·bohr⁶  :      26397.438842
 Mol. C8AA /au·bohr⁸  :     862800.749878
 Mol. α(0) /au        :        257.592817


Wiberg/Mayer (AO) data.
largest (>0.10) Wiberg bond orders for each atom

 ---------------------------------------------------------------------------
     #   Z sym  total        # sym  WBO       # sym  WBO       # sym  WBO
 ---------------------------------------------------------------------------
     1   6 C    3.986 --     2 C    1.020    21 H    0.981    20 H    0.976
                            22 H    0.974
     2   6 C    3.887 --     1 C    1.020    23 H    0.967    24 H    0.964
                             3 O    0.889
     3   8 O    2.412 --     4 P    1.325     2 C    0.889
     4  15 P    5.294 --     5 S    1.501     6 O    1.345     3 O    1.325
                             9 S    0.976
     5  16 S    1.848 --     4 P    1.501     9 S    0.148
     6   8 O    2.419 --     4 P    1.345     7 C    0.881
     7   6 C    3.887 --     8 C    1.018    25 H    0.968    26 H    0.963
                             6 O    0.881
     8   6 C    3.983 --     7 C    1.018    28 H    0.982    27 H    0.979
                            29 H    0.976
     9  16 S    2.276 --     4 P    0.976    10 C    0.972     5 S    0.148
    10   6 C    3.952 --    11 S    0.997     9 S    0.972    30 H    0.959
                            31 H    0.948
    11  16 S    2.275 --    10 C    0.997    12 P    0.946    13 S    0.133
    12  15 P    5.283 --    13 S    1.526    17 O    1.365    14 O    1.319
                            11 S    0.946
    13  16 S    1.850 --    12 P    1.526    11 S    0.133
    14   8 O    2.411 --    12 P    1.319    15 C    0.884
    15   6 C    3.891 --    16 C    1.018    33 H    0.967    32 H    0.967
                            14 O    0.884
    16   6 C    3.981 --    15 C    1.018    35 H    0.983    36 H    0.982
                            34 H    0.975
    17   8 O    2.406 --    12 P    1.365    18 C    0.860
    18   6 C    3.878 --    19 C    1.022    37 H    0.966    38 H    0.961
                            17 O    0.860
    19   6 C    3.983 --    18 C    1.022    40 H    0.983    39 H    0.979
                            41 H    0.974
    20   1 H    0.992 --     1 C    0.976
    21   1 H    0.994 --     1 C    0.981
    22   1 H    0.998 --     1 C    0.974
    23   1 H    0.996 --     2 C    0.967
    24   1 H    0.991 --     2 C    0.964
    25   1 H    0.993 --     7 C    0.968
    26   1 H    0.997 --     7 C    0.963
    27   1 H    0.996 --     8 C    0.979
    28   1 H    0.993 --     8 C    0.982
    29   1 H    0.992 --     8 C    0.976
    30   1 H    0.988 --    10 C    0.959
    31   1 H    0.994 --    10 C    0.948
    32   1 H    0.996 --    15 C    0.967
    33   1 H    0.997 --    15 C    0.967
    34   1 H    0.991 --    16 C    0.975
    35   1 H    0.994 --    16 C    0.983
    36   1 H    0.994 --    16 C    0.982
    37   1 H    0.991 --    18 C    0.966
    38   1 H    0.994 --    18 C    0.961
    39   1 H    0.995 --    19 C    0.979
    40   1 H    0.995 --    19 C    0.983
    41   1 H    0.991 --    19 C    0.974
 ---------------------------------------------------------------------------

Topologies differ in total number of bonds
Writing topology from bond orders to xtbtopo.mol

molecular dipole:
                 x           y           z       tot (Debye)
 q only:       -1.182      -3.386       2.239
   full:       -0.939      -2.652       1.936       8.681
molecular quadrupole (traceless):
                xx          xy          yy          xz          yz          zz
 q only:       21.386       1.997     -22.362      -4.960      18.246       0.977
  q+dip:       23.325      -0.416     -21.213      -1.711      17.160      -2.112
   full:       24.332       0.402     -22.259      -2.602      18.096      -2.073


           -------------------------------------------------
          | TOTAL ENERGY              -65.022606941852 Eh   |
          | GRADIENT NORM               0.000163000424 Eh/α |
          | HOMO-LUMO GAP               3.241028411399 eV   |
           -------------------------------------------------

------------------------------------------------------------------------
 * finished run on 2025/04/09 at 05:21:29.289     
------------------------------------------------------------------------
 total:
 * wall-time:     0 d,  0 h,  0 min,  0.102 sec
 *  cpu-time:     0 d,  0 h,  0 min,  0.068 sec
 * ratio c/w:     0.673 speedup
 SCF:
 * wall-time:     0 d,  0 h,  0 min,  0.061 sec
 *  cpu-time:     0 d,  0 h,  0 min,  0.055 sec
 * ratio c/w:     0.909 speedup

