41
 energy: -2932.483157120134 gnorm: 0.001788175380 xtb: 6.7.1 (edcfbbe)
C            1.64373446583130        2.75751775683798       -1.62003669569586
C            1.69104835386368        2.18544168075103       -0.22770607905331
O            2.82608372279640        1.25443395649924       -0.15237923537065
P            2.64219966587649       -0.09512017853475        0.70723385353829
S            2.20681431012986        0.08782574010308        2.59464325773454
O            4.06895964298580       -0.72685636292341        0.32320487933293
C            4.71264888917063       -1.75335742141484        1.15581048544630
C            4.06129251275869       -3.10614141404822        1.01214306911528
S            1.24018915198400       -1.21522655537601       -0.45293432002789
C           -0.12606206455470       -1.54962199749426        0.71970817121841
S           -1.36020337462052       -0.21369199276409        0.96518742484066
P           -2.27190959990242       -0.11138100043408       -0.96308025791912
S           -2.10090004980241       -1.73565781667634       -2.02156163350271
O           -1.66384176510077        1.16768035456821       -1.71357545668521
C           -2.19358031303645        2.54195551150745       -1.60354986112353
C           -2.05342227477245        3.13947715105949       -0.22552820311443
O           -3.75284714407345        0.40328894193468       -0.60808757924210
C           -4.73623018866629       -0.48718744676728        0.02430795189745
C           -6.09059486923059        0.14815057822920       -0.14634495645330
H            0.85185872206616        3.51194321036280       -1.66632887606369
H            2.59149169220686        3.23880214458073       -1.87833454798478
H            1.42559680409062        1.97830618134585       -2.35658076060898
H            0.76553871419573        1.64897442100580        0.01004563614700
H            1.85916196473284        2.95290650244934        0.53272329514090
H            5.74094033856482       -1.76335934748718        0.78956628736906
H            4.70779300508795       -1.40476009531883        2.19284368843888
H            3.04820648610025       -3.11570053544326        1.42487325991654
H            4.02263202058629       -3.41611767948390       -0.03569130996658
H            4.66045045111147       -3.83583860283915        1.56633412590351
H            0.28462691889172       -1.75457856903550        1.71261735356626
H           -0.63004624972940       -2.43991764234294        0.33591907518827
H           -1.59607060912385        3.08954617160272       -2.33502424502783
H           -3.23430084696543        2.52629023524903       -1.93611433158957
H           -2.37973734693135        4.18335339812688       -0.28085635036894
H           -2.68330043532955        2.63258628356442        0.51027687756058
H           -1.01639682877050        3.12611879137831        0.11790587519647
H           -4.68416175084525       -1.46591975198105       -0.46216852884688
H           -4.46438384942513       -0.59132296145394        1.07863858596267
H           -6.34793252904936        0.24237257058972       -1.20387885854245
H           -6.84026304368633       -0.48572148543115        0.33622950021717
H           -6.12224265382813        1.13544684495414        0.32044961272111
41
 energy: -2932.483153376526 gnorm: 0.002009992644 xtb: 6.7.1 (edcfbbe)
C            1.64357532689166        2.75698333966606       -1.62016544097194
C            1.68981627389737        2.18446487148952       -0.22768911104904
O            2.82364295465572        1.25147200007321       -0.15165407166000
P            2.64062485101788       -0.09718393313816        0.70965359992122
S            2.20655573326456        0.09167988466235        2.59724238249750
O            4.06648101194354       -0.72868470028052        0.32353506764408
C            4.71193611179702       -1.75387632063239        1.15597565471410
C            4.06082545796192       -3.10710389770690        1.01284612487784
S            1.24202275875871       -1.21253783747546       -0.45777235551787
C           -0.12117540872141       -1.54791547925078        0.71847915041067
S           -1.35940679433307       -0.21533764317983        0.96078837026583
P           -2.27319825123580       -0.11072623438943       -0.96452098644420
S           -2.09827754385711       -1.73867544008228       -2.01624449074221
O           -1.66477536335765        1.16819706833552       -1.71455490724644
C           -2.19463060305553        2.54273769123126       -1.60368950683851
C           -2.05471649741720        3.13971117653449       -0.22542390183031
O           -3.75372017828353        0.40356476972293       -0.60799644526974
C           -4.73608793613156       -0.48838827016194        0.02406338972478
C           -6.08979648139162        0.14974909320193       -0.14533667592912
H            0.85208311352553        3.51162163295284       -1.66755229927471
H            2.59169241769395        3.23844764991593       -1.87686133895193
H            1.42616884513700        1.97797460758532       -2.35689942149811
H            0.76333188367980        1.64930841193953        0.01029031647393
H            1.85789220984715        2.95290237640592        0.53231993504614
H            5.74005214247320       -1.76314584539672        0.78924318897568
H            4.70680035103679       -1.40466461541047        2.19283793741244
H            3.04793191881016       -3.11682247443386        1.42595369536797
H            4.02178351625198       -3.41737512971678       -0.03511597074833
H            4.66090184079523       -3.83626566854921        1.56716622115882
H            0.28880546012380       -1.75381870221096        1.71169084020330
H           -0.62477255806325       -2.43857619622426        0.33441512230500
H           -1.59707479295872        3.09046567070574       -2.33494238099940
H           -3.23532815279924        2.52669216295005       -1.93652010312613
H           -2.38076654904624        4.18397849918013       -0.28054404127107
H           -2.68531417478185        2.63235574306892        0.50991963385408
H           -1.01746344162379        3.12565075584593        0.11811248033422
H           -4.68399491000941       -1.46613389683079       -0.46535811760173
H           -4.46270563744914       -0.59481410017450        1.07833413003881
H           -6.34742724979367        0.24590450680382       -1.20400723437243
H           -6.83981067462296       -0.48445352621173        0.33737675203995
H           -6.11962550419642        1.13756628800346        0.32347248527249
41
 energy: -2932.483165066391 gnorm: 0.000836287462 xtb: 6.7.1 (edcfbbe)
C            1.64396191539448        2.75730804990846       -1.62047698148654
C            1.69028186307159        2.18496394151342       -0.22790094067180
O            2.82470266996219        1.25270321536329       -0.15187848409473
P            2.64169463026016       -0.09652562120501        0.70858395976083
S            2.20540609405499        0.09036094086694        2.59575287293066
O            4.06750145997183       -0.72827121294862        0.32321919219089
C            4.71216539367303       -1.75370711597275        1.15594503564811
C            4.06086835444433       -3.10697352015253        1.01294081659130
S            1.24082388304323       -1.21229491544183       -0.45551908336910
C           -0.12395475710839       -1.54801851120642        0.71847288169643
S           -1.36022296623788       -0.21389622811895        0.96282571600612
P           -2.27197185833361       -0.11150730655721       -0.96388799635763
S           -2.09883150637423       -1.73796473793277       -2.01820079757174
O           -1.66427317917053        1.16753424875140       -1.71419988854509
C           -2.19479833703187        2.54208062771656       -1.60362641799344
C           -2.05519848179959        3.13935269491323       -0.22545772730302
O           -3.75243002061615        0.40288895033138       -0.60739376466889
C           -4.73551947534066       -0.48907370138819        0.02377869818409
C           -6.08894196572711        0.15013086016890       -0.14478195005197
H            0.85211597892595        3.51154484299382       -1.66805732072255
H            2.59193675355400        3.23921238388929       -1.87683993263046
H            1.42709046306501        1.97812735528333       -2.35716593804965
H            0.76403313182504        1.64924644517028        0.00997684200894
H            1.85775095229527        2.95349573877043        0.53221495332913
H            5.74040846351509       -1.76329604739479        0.78963661351854
H            4.70671370646036       -1.40452474159089        2.19282619270715
H            3.04796473622145       -3.11658030864414        1.42603624237924
H            4.02179258887144       -3.41742858612009       -0.03498873430382
H            4.66084355249305       -3.83617097467164        1.56739063230455
H            0.28655210847294       -1.75418817492953        1.71141045077742
H           -0.62740809491981       -2.43867092858563        0.33419174566337
H           -1.59736739063293        3.08994164058204       -2.33487123533316
H           -3.23546414763008        2.52573894858975       -1.93658991482137
H           -2.38124839454771        4.18365339791026       -0.28082961208483
H           -2.68599716998457        2.63212964744437        0.50985370633593
H           -1.01798290799207        3.12536426181452        0.11827653058782
H           -4.68405654249613       -1.46636457422143       -0.46671693845927
H           -4.46208417378553       -0.59674726262344        1.07797528747195
H           -6.34668048115781        0.24735385729857       -1.20349573513274
H           -6.83943999211288       -0.48379782009746        0.33766485673218
H           -6.11788236118458        1.13779907996703        0.32477653549597
41
 energy: -2932.483167377460 gnorm: 0.000641751351 xtb: 6.7.1 (edcfbbe)
C            1.64494220930088        2.75788694510741       -1.62099057083923
C            1.69074184836363        2.18603170198524       -0.22823775376366
O            2.82580153043176        1.25500241986116       -0.15187459567354
P            2.64145054597903       -0.09508669779081        0.70707686478243
S            2.20638321776603        0.08888640857515        2.59451195295989
O            4.06716329906719       -0.72750668453347        0.32309494416080
C            4.71137198216041       -1.75313496211071        1.15620316391309
C            4.06060695113808       -3.10670305618532        1.01339081593846
S            1.24055033059813       -1.21513437674110       -0.45416549827202
C           -0.12444911095564       -1.55001368825963        0.71942770004642
S           -1.35874124685872       -0.21440671340549        0.96436086831176
P           -2.27096337693919       -0.11150333260763       -0.96322489991958
S           -2.09920215751967       -1.73632557156205       -2.02054885949188
O           -1.66394138197602        1.16732300606331       -1.71424181123311
C           -2.19539727858137        2.54172089537511       -1.60402578924985
C           -2.05635855719544        3.13876816628389       -0.22571218671226
O           -3.75162838263375        0.40268717738233       -0.60757969890277
C           -4.73540995469380       -0.48963995047765        0.02219237323763
C           -6.08836371597381        0.15094430974171       -0.14312733669688
H            0.85233688618522        3.51134717687931       -1.66891127175928
H            2.59264393132051        3.24051491786218       -1.87694509934585
H            1.42921896102425        1.97835850151931       -2.35771740472910
H            0.76508453040045        1.64927117689889        0.00921710810806
H            1.85771275950326        2.95415088619715        0.53221220321461
H            5.73973930682791       -1.76298873624917        0.79027556492421
H            4.70592594409726       -1.40419295388133        2.19314115300841
H            3.04776289066096       -3.11652006676199        1.42663522783664
H            4.02158908633901       -3.41736475885158       -0.03439429498623
H            4.66067275701003       -3.83573107921656        1.56782126217728
H            0.28642107517737       -1.75575348270826        1.71216858370252
H           -0.62901195917088       -2.43996605804166        0.33530786571459
H           -1.59801836082160        3.08975477668071       -2.33516940980228
H           -3.23595427911324        2.52460036350404       -1.93716199107053
H           -2.38225243984356        4.18299941046441       -0.28124621188430
H           -2.68741567220560        2.63186611474264        0.50940942753916
H           -1.01944175594270        3.12483053791679        0.11859402636670
H           -4.68582156412253       -1.46583428218569       -0.47030784390107
H           -4.46150037975701       -0.60029485025587        1.07577850989002
H           -6.34670086109168        0.25086105383903       -1.20090683763868
H           -6.83968125227266       -0.48219925821920        0.33854665721613
H           -6.11500588441545        1.13741832917487        0.32798172751700
41
 energy: -2932.483167377460 gnorm: 0.000641751351 xtb: 6.7.1 (edcfbbe)
C            1.64494220930088        2.75788694510741       -1.62099057083923
C            1.69074184836363        2.18603170198524       -0.22823775376366
O            2.82580153043176        1.25500241986116       -0.15187459567354
P            2.64145054597903       -0.09508669779081        0.70707686478243
S            2.20638321776603        0.08888640857515        2.59451195295989
O            4.06716329906719       -0.72750668453347        0.32309494416080
C            4.71137198216041       -1.75313496211071        1.15620316391309
C            4.06060695113808       -3.10670305618532        1.01339081593846
S            1.24055033059813       -1.21513437674110       -0.45416549827202
C           -0.12444911095564       -1.55001368825963        0.71942770004642
S           -1.35874124685872       -0.21440671340549        0.96436086831176
P           -2.27096337693919       -0.11150333260763       -0.96322489991958
S           -2.09920215751967       -1.73632557156205       -2.02054885949188
O           -1.66394138197602        1.16732300606331       -1.71424181123311
C           -2.19539727858137        2.54172089537511       -1.60402578924985
C           -2.05635855719544        3.13876816628389       -0.22571218671226
O           -3.75162838263375        0.40268717738233       -0.60757969890277
C           -4.73540995469380       -0.48963995047765        0.02219237323763
C           -6.08836371597381        0.15094430974171       -0.14312733669688
H            0.85233688618522        3.51134717687931       -1.66891127175928
H            2.59264393132051        3.24051491786218       -1.87694509934585
H            1.42921896102425        1.97835850151931       -2.35771740472910
H            0.76508453040045        1.64927117689889        0.00921710810806
H            1.85771275950326        2.95415088619715        0.53221220321461
H            5.73973930682791       -1.76298873624917        0.79027556492421
H            4.70592594409726       -1.40419295388133        2.19314115300841
H            3.04776289066096       -3.11652006676199        1.42663522783664
H            4.02158908633901       -3.41736475885158       -0.03439429498623
H            4.66067275701003       -3.83573107921656        1.56782126217728
H            0.28642107517737       -1.75575348270826        1.71216858370252
H           -0.62901195917088       -2.43996605804166        0.33530786571459
H           -1.59801836082160        3.08975477668071       -2.33516940980228
H           -3.23595427911324        2.52460036350404       -1.93716199107053
H           -2.38225243984356        4.18299941046441       -0.28124621188430
H           -2.68741567220560        2.63186611474264        0.50940942753916
H           -1.01944175594270        3.12483053791679        0.11859402636670
H           -4.68582156412253       -1.46583428218569       -0.47030784390107
H           -4.46150037975701       -0.60029485025587        1.07577850989002
H           -6.34670086109168        0.25086105383903       -1.20090683763868
H           -6.83968125227266       -0.48219925821920        0.33854665721613
H           -6.11500588441545        1.13741832917487        0.32798172751700
