
                                 *****************
                                 * O   R   C   A *
                                 *****************

                                            #,                                       
                                            ###                                      
                                            ####                                     
                                            #####                                    
                                            ######                                   
                                           ########,                                 
                                     ,,################,,,,,                         
                               ,,#################################,,                 
                          ,,##########################################,,             
                       ,#########################################, ''#####,          
                    ,#############################################,,   '####,        
                  ,##################################################,,,,####,       
                ,###########''''           ''''###############################       
              ,#####''   ,,,,##########,,,,          '''####'''          '####       
            ,##' ,,,,###########################,,,                        '##       
           ' ,,###''''                  '''############,,,                           
         ,,##''                                '''############,,,,        ,,,,,,###''
      ,#''                                            '''#######################'''  
     '                                                          ''''####''''         
             ,#######,   #######,   ,#######,      ##                                
            ,#'     '#,  ##    ##  ,#'     '#,    #''#        ,####,   ,####,        
            ##       ##  ##   ,#'  ##            #'  '#       #'       #'  '#        
            ##       ##  #######   ##           ,######,      #####,   #    #        
            '#,     ,#'  ##    ##  '#,     ,#' ,#      #,     #,   #   #,  ,#        
             '#######'   ##     ##  '#######'  #'      '#     '####' # '####'        



                #########################################################
                #                        -***-                          #
                #          Department of theory and spectroscopy        #
                #                                                       #
                #                      Frank Neese                      #
                #                                                       #
                #     Directorship, Architecture, Infrastructure        #
                #                    SHARK, DRIVERS                     #
                #        Core code/Algorithms in most modules           #
                #                                                       #
                #        Max Planck Institute fuer Kohlenforschung      #
                #                Kaiser Wilhelm Platz 1                 #
                #                 D-45470 Muelheim/Ruhr                 #
                #                      Germany                          #
                #                                                       #
                #                  All rights reserved                  #
                #                        -***-                          #
                #########################################################


                         Program Version 6.0.0  -   RELEASE  -


 With contributions from (in alphabetic order):
   Daniel Aravena         : Magnetic Suceptibility
   Michael Atanasov       : Ab Initio Ligand Field Theory (pilot matlab implementation)
   Alexander A. Auer      : GIAO ZORA, VPT2 properties, NMR spectrum
   Ute Becker             : All parallelization in ORCA, NUMFREQ, NUMCALC
   Giovanni Bistoni       : ED, misc. LED, open-shell LED, HFLD
   Martin Brehm           : Molecular dynamics
   Dmytro Bykov           : pre 5.0 version of the SCF Hessian
   Marcos Casanova-Páez   : Triplet and SCS-CIS(D). UHF-(DLPNO)-IP/EA/STEOM-CCSD. UHF-CVS-IP/STEOM-CCSD
   Vijay G. Chilkuri      : MRCI spin determinant printing, contributions to CSF-ICE
   Pauline Colinet        : FMM embedding
   Dipayan Datta          : RHF DLPNO-CCSD density
   Achintya Kumar Dutta   : EOM-CC, STEOM-CC
   Nicolas Foglia         : Exact transition moments, OPA infrastructure, MCD improvements
   Dmitry Ganyushin       : Spin-Orbit,Spin-Spin,Magnetic field MRCI
   Miquel Garcia          : C-PCM and meta-GGA Hessian, CCSD/C-PCM, Gaussian charge scheme
   Tiago L. C. Gouveia    : GS-ROHF, GS-ROCIS
   Yang Guo               : DLPNO-NEVPT2, F12-NEVPT2, CIM, IAO-localization
   Andreas Hansen         : Spin unrestricted coupled pair/coupled cluster methods
   Ingolf Harden          : AUTO-CI MPn and infrastructure 
   Benjamin Helmich-Paris : MC-RPA, TRAH-(SCF,CASSCF), AVAS, COSX integrals, SCF dyn. polar.
   Lee Huntington         : MR-EOM, pCC
   Robert Izsak           : Overlap fitted RIJCOSX, COSX-SCS-MP3, EOM
   Riya Kayal             : Wick's Theorem for AUTO-CI, AUTO-CI UHF-CCSDT
   Emily Kempfer          : AUTO-CI, RHF CISDT and CCSDT
   Christian Kollmar      : KDIIS, OOCD, Brueckner-CCSD(T), CCSD density, CASPT2, CASPT2-K, improved NEVPT2
   Axel Koslowski         : Symmetry handling
   Simone Kossmann        : Meta GGA functionals, TD-DFT gradient, OOMP2, (MP2 Hessian; deprecated post 5.0)
   Lucas Lang             : DCDCAS
   Marvin Lechner         : AUTO-CI (C++ implementation), FIC-MRCC
   Spencer Leger          : CASSCF response
   Dagmar Lenk            : GEPOL surface, SMD, ORCA-2-JSON
   Dimitrios Liakos       : Extrapolation schemes; Compound Job, initial MDCI parallelization
   Dimitrios Manganas     : Further ROCIS development; embedding schemes. LFT, Crystal Embedding
   Dimitrios Pantazis     : SARC Basis sets
   Anastasios Papadopoulos: AUTO-CI, single reference methods and gradients
   Taras Petrenko         : pre 6.0 DFT Hessian and TD-DFT gradient, (ASA, deprecated), ECA, 1-Electron XAS/XES, NRVS
   Peter Pinski           : DLPNO-MP2, DLPNO-MP2 Gradient
   Christoph Reimann      : Effective Core Potentials
   Marius Retegan         : Local ZFS, SOC
   Christoph Riplinger    : Optimizer, TS searches, QM/MM, DLPNO-CCSD(T), (RO)-DLPNO pert. Triples
   Michael Roemelt        : Original ROCIS implementation
   Masaaki Saitow         : Open-shell DLPNO-CCSD energy and density
   Barbara Sandhoefer     : DKH picture change effects
   Kantharuban Sivalingam : CASSCF convergence/infrastructure, NEVPT2 and variants, FIC-MRCI
   Bernardo de Souza      : ESD, SOC TD-DFT
   Georgi Stoychev        : AutoAux, RI-MP2 NMR, DLPNO-MP2 response, X2C
   Van Anh Tran           : RI-MP2 g-tensors
   Willem Van den Heuvel  : Paramagnetic NMR
   Zikuan Wang            : NOTCH, Electric field optimization 
   Frank Wennmohs         : Technical directorship and infrastructure
   Hang Xu                : AUTO-CI-Response properties 


 We gratefully acknowledge several colleagues who have allowed us to
 interface, adapt or use parts of their codes:
   Stefan Grimme, W. Hujo, H. Kruse, P. Pracht,  : VdW corrections, initial TS optimization,
                  C. Bannwarth, S. Ehlert,         DFT functionals, gCP, sTDA/sTD-DF
                  L. Wittmann, M. Mueller
   Ed Valeev, F. Pavosevic, A. Kumar             : LibInt (2-el integral package), F12 methods
   Garnet Chan, S. Sharma, J. Yang, R. Olivares  : DMRG
   Ulf Ekstrom                                   : XCFun DFT Library
   Mihaly Kallay                                 : mrcc  (arbitrary order and MRCC methods)
   Frank Weinhold                                : gennbo (NPA and NBO analysis)
   Simon Mueller                                 : openCOSMO-RS
   Christopher J. Cramer and Donald G. Truhlar   : smd solvation model
   Lars Goerigk                                  : TD-DFT with DH, B97 family of functionals
   V. Asgeirsson, H. Jonsson                     : NEB implementation
   FAccTs GmbH                                   : IRC, NEB, NEB-TS, DLPNO-Multilevel, CI-OPT
                                                   MM, QMMM, 2- and 3-layer-ONIOM, Crystal-QMMM,
                                                   LR-CPCM, SF, NACMEs, symmetry and pop. for TD-DFT,
                                                   nearIR, NL-DFT gradient (VV10), updates on ESD,
                                                   ML-optimized integration grids, MBIS, APM,
                                                   GOAT, DOCKER, SOLVATOR, interface openCOSMO-RS
   S Lehtola, MJT Oliveira, MAL Marques          : LibXC Library
   Liviu Ungur et al                             : ANISO software


 Your calculation uses the libint2 library for the computation of 2-el integrals
 For citations please refer to: http://libint.valeyev.net

 Your ORCA version has been built with support for libXC version: 6.2.2
 For citations please refer to: https://libxc.gitlab.io

 This ORCA versions uses:
   CBLAS   interface :  Fast vector & matrix operations
   LAPACKE interface :  Fast linear algebra routines
   SCALAPACK package :  Parallel linear algebra routines
   Shared memory     :  Shared parallel matrices
   BLAS/LAPACK       :  OpenBLAS 0.3.27  USE64BITINT DYNAMIC_ARCH NO_AFFINITY SapphireRapids SINGLE_THREADED
        Core in use  :  SapphireRapids
   Copyright (c) 2011-2014, The OpenBLAS Project


Your calculation utilizes the geometrical counterpoise correction gCP
Please cite in your paper:
H.Kruse, S. Grimme J.Chem.Phys., 136, (2012), 154101 
   

Your calculation utilizes the DFT-NL dispersion correction.
Cite in your paper:
Vydrov, O. A.; Van Voorhis, T. J. Chem. Phys. 2010, 133, 244103
Hujo, W.; Grimme, S. J. Chem. Theory Comput. 2011, 7, 3866 
   

================================================================================

----- Orbital basis set information -----
Your calculation utilizes the basis: def2-TZVP
   F. Weigend and R. Ahlrichs, Phys. Chem. Chem. Phys. 7, 3297 (2005).

----- AuxJ basis set information -----
Your calculation utilizes the auxiliary basis: def2/J
   F. Weigend, Phys. Chem. Chem. Phys. 8, 1057 (2006).

================================================================================
                                        WARNINGS
                       Please study these warnings very carefully!
================================================================================


================================================================================
                                       INPUT FILE
================================================================================
NAME = sp_gas.inp
|  1> ! wb97x-v def2-tzvp def2/J RIJCOSX DEFGRID2 scfconv7 GCP(DFT/TZ) printgap
|  2> %output
|  3>     printlevel normal
|  4> end
|  5> * xyz 0 1
|  6> C 4.239851153364061 -0.26434581629550424 -2.7736348213036965
|  7> C 4.748993429470283 -0.6720729555525811 -1.4131348846698815
|  8> O 3.661327559185266 -0.8649757423964014 -0.44324617353673906
|  9> P 2.9047439926082976 0.3652908992200124 0.25685666065560364
| 10> S 3.9233995791967775 1.973184598427865 0.6600669153085519
| 11> O 2.322555370681473 -0.49104619079583034 1.4889977505537977
| 12> C 1.479906727108145 0.17088239599656552 2.493658694347464
| 13> C 1.056124218888304 -0.8818448406894923 3.4837785989743715
| 14> S 1.257333054630685 0.9000250787968352 -0.9519502515288295
| 15> C 0.5105606868615054 -0.744831296025108 -1.3143822461520442
| 16> S -0.6797329864928756 -1.405891468032085 -0.08091034258490604
| 17> P -2.247426219975699 0.008587953115363844 -0.24511458950080378
| 18> S -2.5185470187934236 0.7821809204645227 -2.0113977300988655
| 19> O -1.9115017484126546 1.0227089003202487 0.9531337422934864
| 20> C -2.474074109437276 2.3826605903688245 1.0010874052886494
| 21> C -3.93838262948974 2.372509447921184 1.3625959188461954
| 22> O -3.473618055878923 -0.813282605678559 0.4017743796887691
| 23> C -4.21659093900938 -1.7994546414672703 -0.3961391428922412
| 24> C -5.270330099666625 -2.3920389821119805 0.5026283121635907
| 25> H 5.0780026298618 -0.29380180933447125 -3.4774897020970315
| 26> H 3.468420034091739 -0.9548660817380483 -3.1276562721646455
| 27> H 3.835085896093324 0.7509124887492896 -2.7691341251099986
| 28> H 5.451207743526155 0.05894528671669985 -1.0010000460025994
| 29> H 5.231550210001414 -1.6507434076846363 -1.4430584839466605
| 30> H 2.071997185392318 0.9596936975037772 2.9682754645811387
| 31> H 0.6190591270617467 0.6182324086288461 1.985424952600254
| 32> H 0.4280066675489373 -0.4141340591025156 4.248157680774125
| 33> H 0.47634853751774436 -1.6697450660009814 2.995005090555285
| 34> H 1.9245173937910192 -1.3287420513485277 3.9760076075145765
| 35> H 1.2965737313453831 -1.5003664270867452 -1.4036667158390752
| 36> H 0.003992224789220315 -0.6401661809563562 -2.277621218858252
| 37> H -1.8711984674366624 2.877013170137542 1.7651562161012733
| 38> H -2.290921528415564 2.862909316206019 0.03503568762408874
| 39> H -4.273197727328101 3.4074800517335015 1.487622281455126
| 40> H -4.545202485743482 1.9126746191986437 0.5769842782030757
| 41> H -4.106724960622056 1.8394229370627189 2.302544526047382
| 42> H -4.65576557977908 -1.2818024359383478 -1.25413440044397
| 43> H -3.513347043412638 -2.559333865102233 -0.7533479326251766
| 44> H -5.8468067557140575 -3.1281263807298934 -0.06580539034159907
| 45> H -4.817147925309073 -2.8961563156711443 1.3607283315024763
| 46> H -5.955511523026586 -1.618773512422235 0.8614390533666665
| 47> *
| 48> 
| 49>                          ****END OF INPUT****
================================================================================

                       ****************************
                       * Single Point Calculation *
                       ****************************

---------------------------------
CARTESIAN COORDINATES (ANGSTROEM)
---------------------------------
  C      4.239851   -0.264346   -2.773635
  C      4.748993   -0.672073   -1.413135
  O      3.661328   -0.864976   -0.443246
  P      2.904744    0.365291    0.256857
  S      3.923400    1.973185    0.660067
  O      2.322555   -0.491046    1.488998
  C      1.479907    0.170882    2.493659
  C      1.056124   -0.881845    3.483779
  S      1.257333    0.900025   -0.951950
  C      0.510561   -0.744831   -1.314382
  S     -0.679733   -1.405891   -0.080910
  P     -2.247426    0.008588   -0.245115
  S     -2.518547    0.782181   -2.011398
  O     -1.911502    1.022709    0.953134
  C     -2.474074    2.382661    1.001087
  C     -3.938383    2.372509    1.362596
  O     -3.473618   -0.813283    0.401774
  C     -4.216591   -1.799455   -0.396139
  C     -5.270330   -2.392039    0.502628
  H      5.078003   -0.293802   -3.477490
  H      3.468420   -0.954866   -3.127656
  H      3.835086    0.750912   -2.769134
  H      5.451208    0.058945   -1.001000
  H      5.231550   -1.650743   -1.443058
  H      2.071997    0.959694    2.968275
  H      0.619059    0.618232    1.985425
  H      0.428007   -0.414134    4.248158
  H      0.476349   -1.669745    2.995005
  H      1.924517   -1.328742    3.976008
  H      1.296574   -1.500366   -1.403667
  H      0.003992   -0.640166   -2.277621
  H     -1.871198    2.877013    1.765156
  H     -2.290922    2.862909    0.035036
  H     -4.273198    3.407480    1.487622
  H     -4.545202    1.912675    0.576984
  H     -4.106725    1.839423    2.302545
  H     -4.655766   -1.281802   -1.254134
  H     -3.513347   -2.559334   -0.753348
  H     -5.846807   -3.128126   -0.065805
  H     -4.817148   -2.896156    1.360728
  H     -5.955512   -1.618774    0.861439

----------------------------
CARTESIAN COORDINATES (A.U.)
----------------------------
  NO LB      ZA    FRAG     MASS         X           Y           Z
   0 C     6.0000    0    12.011    8.012158   -0.499541   -5.241410
   1 C     6.0000    0    12.011    8.974297   -1.270034   -2.670438
   2 O     8.0000    0    15.999    6.918906   -1.634567   -0.837614
   3 P    15.0000    0    30.974    5.489171    0.690300    0.485389
   4 S    16.0000    0    32.060    7.414151    3.728779    1.247346
   5 O     8.0000    0    15.999    4.388994   -0.927943    2.813798
   6 C     6.0000    0    12.011    2.796618    0.322921    4.712332
   7 C     6.0000    0    12.011    1.995786   -1.666445    6.583387
   8 S    16.0000    0    32.060    2.376015    1.700801   -1.798925
   9 C     6.0000    0    12.011    0.964820   -1.407527   -2.483822
  10 S    16.0000    0    32.060   -1.284509   -2.656750   -0.152898
  11 P    15.0000    0    30.974   -4.247020    0.016229   -0.463199
  12 S    16.0000    0    32.060   -4.759364    1.478108   -3.800991
  13 O     8.0000    0    15.999   -3.612215    1.932640    1.801162
  14 C     6.0000    0    12.011   -4.675323    4.502576    1.891781
  15 C     6.0000    0    12.011   -7.442465    4.483393    2.574933
  16 O     8.0000    0    15.999   -6.564187   -1.536881    0.759244
  17 C     6.0000    0    12.011   -7.968202   -3.400476   -0.748594
  18 C     6.0000    0    12.011   -9.959481   -4.520299    0.949830
  19 H     1.0000    0     1.008    9.596034   -0.555205   -6.571503
  20 H     1.0000    0     1.008    6.554364   -1.804435   -5.910414
  21 H     1.0000    0     1.008    7.247262    1.419019   -5.232905
  22 H     1.0000    0     1.008   10.301290    0.111390   -1.891616
  23 H     1.0000    0     1.008    9.886197   -3.119453   -2.726985
  24 H     1.0000    0     1.008    3.915507    1.813558    5.609228
  25 H     1.0000    0     1.008    1.169852    1.168290    3.751909
  26 H     1.0000    0     1.008    0.808815   -0.782600    8.027855
  27 H     1.0000    0     1.008    0.900168   -3.155361    5.659739
  28 H     1.0000    0     1.008    3.636811   -2.510959    7.513565
  29 H     1.0000    0     1.008    2.450169   -2.835282   -2.652546
  30 H     1.0000    0     1.008    0.007544   -1.209739   -4.304080
  31 H     1.0000    0     1.008   -3.536053    5.436767    3.335662
  32 H     1.0000    0     1.008   -4.329214    5.410115    0.066208
  33 H     1.0000    0     1.008   -8.075173    6.439204    2.811199
  34 H     1.0000    0     1.008   -8.589188    3.614431    1.090342
  35 H     1.0000    0     1.008   -7.760585    3.476006    4.351179
  36 H     1.0000    0     1.008   -8.798122   -2.422256   -2.369971
  37 H     1.0000    0     1.008   -6.639264   -4.836440   -1.423621
  38 H     1.0000    0     1.008  -11.048864   -5.911302   -0.124354
  39 H     1.0000    0     1.008   -9.103090   -5.472942    2.571404
  40 H     1.0000    0     1.008  -11.254286   -3.059039    1.627884

--------------------------------
INTERNAL COORDINATES (ANGSTROEM)
--------------------------------
 C      0   0   0     0.000000000000     0.00000000     0.00000000
 C      1   0   0     1.508783402277     0.00000000     0.00000000
 O      2   1   0     1.470004300177   112.37836590     0.00000000
 P      3   2   1     1.605029183888   122.41094325   283.10077164
 S      4   3   2     1.945651526224   118.49256911   325.95350504
 O      4   3   2     1.609480807171    95.54416511   199.76381355
 C      6   4   3     1.468860035032   119.43015737   181.12821557
 C      7   6   4     1.506042388073   107.22302464   178.23037225
 S      4   3   2     2.112135789271   108.18492761    89.92897069
 C      9   4   3     1.842438170952   101.69470324    46.33738029
 S     10   9   4     1.837186032151   116.85693694    85.95803480
 P     11  10   9     2.117870898299   100.78998268    65.34678861
 S     12  11  10     1.947231033916   116.02258897    32.57393281
 O     12  11  10     1.605330374347   102.07226561   264.07831796
 C     14  12  11     1.472499852105   121.85677876   161.29622814
 C     15  14  12     1.508307293944   111.86972041    73.40652437
 O     12  11  10     1.611670863516   101.03867160   160.71688887
 C     17  12  11     1.470105431170   120.57995600   278.79872456
 C     18  17  12     1.506421374565   107.07211705   179.23241603
 H      1   2   3     1.094886864611   108.30537846   188.84838564
 H      1   2   3     1.094191663484   111.04615967   307.69730863
 H      1   2   3     1.092979686784   111.85602405    69.78414180
 H      2   1   3     1.094233859209   112.06436545   237.77223669
 H      2   1   3     1.091582485251   111.51481050   115.26414388
 H      7   6   4     1.094557197575   108.12066033   298.89484254
 H      7   6   4     1.095208729219   108.51699864    57.45282015
 H      8   7   6     1.094331035019   108.78205505   179.80123210
 H      8   7   6     1.093538361598   111.03715187   299.02437505
 H      8   7   6     1.093669611885   110.98302260    60.59675962
 H     10   9   4     1.093901986877   109.96400655   325.42043715
 H     10   9   4     1.093341534754   105.99979503   207.63074698
 H     15  14  12     1.091624780086   103.29957577   193.81537425
 H     15  14  12     1.094275846305   108.21800322   309.36288345
 H     16  15  14     1.094941501562   108.53414687   174.02517887
 H     16  15  14     1.094012823309   111.66682350   293.01457258
 H     16  15  14     1.093628708790   111.02150455    54.98859705
 H     18  17  12     1.094072224748   108.12677198   299.98609764
 H     18  17  12     1.095247246364   108.53755836    58.42834119
 H     19  18  17     1.094196905276   108.85738968   179.64622800
 H     19  18  17     1.093546529572   111.07729025   298.94386400
 H     19  18  17     1.093690183523   110.84485189    60.47928690

---------------------------
INTERNAL COORDINATES (A.U.)
---------------------------
 C      0   0   0     0.000000000000     0.00000000     0.00000000
 C      1   0   0     2.851187425709     0.00000000     0.00000000
 O      2   1   0     2.777905543021   112.37836590     0.00000000
 P      3   2   1     3.033065594500   122.41094325   283.10077164
 S      4   3   2     3.676748536609   118.49256911   325.95350504
 O      4   3   2     3.041477943357    95.54416511   199.76381355
 C      6   4   3     2.775743195272   119.43015737   181.12821557
 C      7   6   4     2.846007659534   107.22302464   178.23037225
 S      4   3   2     3.991358199376   108.18492761    89.92897069
 C      9   4   3     3.481703561783   101.69470324    46.33738029
 S     10   9   4     3.471778457831   116.85693694    85.95803480
 P     11  10   9     4.002195984787   100.78998268    65.34678861
 S     12  11  10     3.679733373573   116.02258897    32.57393281
 O     12  11  10     3.033634761982   102.07226561   264.07831796
 C     14  12  11     2.782621452718   121.85677876   161.29622814
 C     15  14  12     2.850287711351   111.86972041    73.40652437
 O     12  11  10     3.045616550066   101.03867160   160.71688887
 C     17  12  11     2.778096652902   120.57995600   278.79872456
 C     18  17  12     2.846723840214   107.07211705   179.23241603
 H      1   2   3     2.069036321743   108.30537846   188.84838564
 H      1   2   3     2.067722582005   111.04615967   307.69730863
 H      1   2   3     2.065432277960   111.85602405    69.78414180
 H      2   1   3     2.067802320368   112.06436545   237.77223669
 H      2   1   3     2.062791949709   111.51481050   115.26414388
 H      7   6   4     2.068413341329   108.12066033   298.89484254
 H      7   6   4     2.069644557704   108.51699864    57.45282015
 H      8   7   6     2.067985956037   108.78205505   179.80123210
 H      8   7   6     2.066488020358   111.03715187   299.02437505
 H      8   7   6     2.066736047455   110.98302260    60.59675962
 H     10   9   4     2.067175172551   109.96400655   325.42043715
 H     10   9   4     2.066116071527   105.99979503   207.63074698
 H     15  14  12     2.062871875365   103.29957577   193.81537425
 H     15  14  12     2.067881664481   108.21800322   309.36288345
 H     16  15  14     2.069139570617   108.53414687   174.02517887
 H     16  15  14     2.067384623052   111.66682350   293.01457258
 H     16  15  14     2.066658751807   111.02150455    54.98859705
 H     18  17  12     2.067496875504   108.12677198   299.98609764
 H     18  17  12     2.069717344560   108.53755836    58.42834119
 H     19  18  17     2.067732487556   108.85738968   179.64622800
 H     19  18  17     2.066503455592   111.07729025   298.94386400
 H     19  18  17     2.066774922217   110.84485189    60.47928690

---------------------
BASIS SET INFORMATION
---------------------
There are 5 groups of distinct atoms

 Group   1 Type C   : 11s6p2d1f contracted to 5s3p2d1f pattern {62111/411/11/1}
 Group   2 Type O   : 11s6p2d1f contracted to 5s3p2d1f pattern {62111/411/11/1}
 Group   3 Type P   : 14s9p3d1f contracted to 5s5p2d1f pattern {73211/51111/21/1}
 Group   4 Type S   : 14s9p3d1f contracted to 5s5p2d1f pattern {73211/51111/21/1}
 Group   5 Type H   : 5s1p contracted to 3s1p pattern {311/1}

Atom   0C    basis set group =>   1
Atom   1C    basis set group =>   1
Atom   2O    basis set group =>   2
Atom   3P    basis set group =>   3
Atom   4S    basis set group =>   4
Atom   5O    basis set group =>   2
Atom   6C    basis set group =>   1
Atom   7C    basis set group =>   1
Atom   8S    basis set group =>   4
Atom   9C    basis set group =>   1
Atom  10S    basis set group =>   4
Atom  11P    basis set group =>   3
Atom  12S    basis set group =>   4
Atom  13O    basis set group =>   2
Atom  14C    basis set group =>   1
Atom  15C    basis set group =>   1
Atom  16O    basis set group =>   2
Atom  17C    basis set group =>   1
Atom  18C    basis set group =>   1
Atom  19H    basis set group =>   5
Atom  20H    basis set group =>   5
Atom  21H    basis set group =>   5
Atom  22H    basis set group =>   5
Atom  23H    basis set group =>   5
Atom  24H    basis set group =>   5
Atom  25H    basis set group =>   5
Atom  26H    basis set group =>   5
Atom  27H    basis set group =>   5
Atom  28H    basis set group =>   5
Atom  29H    basis set group =>   5
Atom  30H    basis set group =>   5
Atom  31H    basis set group =>   5
Atom  32H    basis set group =>   5
Atom  33H    basis set group =>   5
Atom  34H    basis set group =>   5
Atom  35H    basis set group =>   5
Atom  36H    basis set group =>   5
Atom  37H    basis set group =>   5
Atom  38H    basis set group =>   5
Atom  39H    basis set group =>   5
Atom  40H    basis set group =>   5
---------------------------------
AUXILIARY/J BASIS SET INFORMATION
---------------------------------
There are 5 groups of distinct atoms

 Group   1 Type C   : 12s5p4d2f1g contracted to 6s4p3d1f1g pattern {711111/2111/211/2/1}
 Group   2 Type O   : 12s5p4d2f1g contracted to 6s4p3d1f1g pattern {711111/2111/211/2/1}
 Group   3 Type P   : 14s5p5d2f1g contracted to 8s4p3d1f1g pattern {71111111/2111/311/2/1}
 Group   4 Type S   : 14s5p5d2f1g contracted to 8s4p3d1f1g pattern {71111111/2111/311/2/1}
 Group   5 Type H   : 5s2p1d contracted to 3s1p1d pattern {311/2/1}

Atom   0C    basis set group =>   1
Atom   1C    basis set group =>   1
Atom   2O    basis set group =>   2
Atom   3P    basis set group =>   3
Atom   4S    basis set group =>   4
Atom   5O    basis set group =>   2
Atom   6C    basis set group =>   1
Atom   7C    basis set group =>   1
Atom   8S    basis set group =>   4
Atom   9C    basis set group =>   1
Atom  10S    basis set group =>   4
Atom  11P    basis set group =>   3
Atom  12S    basis set group =>   4
Atom  13O    basis set group =>   2
Atom  14C    basis set group =>   1
Atom  15C    basis set group =>   1
Atom  16O    basis set group =>   2
Atom  17C    basis set group =>   1
Atom  18C    basis set group =>   1
Atom  19H    basis set group =>   5
Atom  20H    basis set group =>   5
Atom  21H    basis set group =>   5
Atom  22H    basis set group =>   5
Atom  23H    basis set group =>   5
Atom  24H    basis set group =>   5
Atom  25H    basis set group =>   5
Atom  26H    basis set group =>   5
Atom  27H    basis set group =>   5
Atom  28H    basis set group =>   5
Atom  29H    basis set group =>   5
Atom  30H    basis set group =>   5
Atom  31H    basis set group =>   5
Atom  32H    basis set group =>   5
Atom  33H    basis set group =>   5
Atom  34H    basis set group =>   5
Atom  35H    basis set group =>   5
Atom  36H    basis set group =>   5
Atom  37H    basis set group =>   5
Atom  38H    basis set group =>   5
Atom  39H    basis set group =>   5
Atom  40H    basis set group =>   5

Checking for AutoStart:
The File: sp_gas.gbw exists
Trying to determine its content:
     ... Fine, the file contains calculation information
     ... Fine, the calculation information was read
     ... Fine, the file contains a basis set
     ... Fine, the basis set was read
     ... Fine, the file contains a geometry
     ... Fine, the geometry was read
     ... Fine, the file contains a set of orbitals
     ... Fine, the orbitals can be read
     => possible old guess file was deleted
     => GBW file was renamed to GES file
     => GES file is set as startup file
     => Guess is set to MORead
     ... now leaving AutoStart

------------------------------------------------------------------------------
                             ORCA STARTUP CALCULATIONS
                           -- RI-GTO INTEGRALS CHOSEN --
------------------------------------------------------------------------------
------------------------------------------------------------------------------
                   ___                                                        
                  /   \      - P O W E R E D   B Y -                         
                 /     \                                                     
                 |  |  |   _    _      __       _____    __    __             
                 |  |  |  | |  | |    /  \     |  _  \  |  |  /  |          
                  \  \/   | |  | |   /    \    | | | |  |  | /  /          
                 / \  \   | |__| |  /  /\  \   | |_| |  |  |/  /          
                |  |  |   |  __  | /  /__\  \  |    /   |      \           
                |  |  |   | |  | | |   __   |  |    \   |  |\   \          
                \     /   | |  | | |  |  |  |  | |\  \  |  | \   \       
                 \___/    |_|  |_| |__|  |__|  |_| \__\ |__|  \__/        
                                                                              
                      - O R C A' S   B I G   F R I E N D -                    
                                      &                                       
                       - I N T E G R A L  F E E D E R -                       
                                                                              
 v1 FN, 2020, v2 2021, v3 2022-2024                                           
------------------------------------------------------------------------------


----------------------
SHARK INTEGRAL PACKAGE
----------------------

Number of atoms                             ...     41
Number of basis functions                   ...    757
Number of shells                            ...    309
Maximum angular momentum                    ...      3
Integral batch strategy                     ... SHARK/LIBINT Hybrid
RI-J (if used) integral strategy            ... SPLIT-RIJ (Revised 2003 algorithm where possible)
Printlevel                                  ...      1
Contraction scheme used                     ... SEGMENTED contraction
Prescreening option                         ... SCHWARTZ
   Thresh                                   ... 3.000e-11
   Tcut                                     ... 1.000e-12
   Tpresel                                  ... 1.000e-12 
Coulomb Range Separation                    ... NOT USED
Exchange Range Separation                   ... Long Range
   Mu parameter                             ... 3.000e-01
   Scaling (regular/separated)              ... 1.670e-01 8.330e-01
Multipole approximations                    ... NOT USED
Finite Nucleus Model                        ... NOT USED
CABS basis                                  ... NOT available
Auxiliary Coulomb fitting basis             ... AVAILABLE
   # of basis functions in Aux-J            ...   1185
   # of shells in Aux-J                     ...    407
   Maximum angular momentum in Aux-J        ...      4
Auxiliary J/K fitting basis                 ... NOT available
Auxiliary Correlation fitting basis         ... NOT available
Auxiliary 'external' fitting basis          ... NOT available

Checking pre-screening integrals            ... done (  0.1 sec) Dimension = 309
Check shell pair data                       ... done (  0.0 sec)
Shell pair information
Shell pair cut-off parameter TPreSel        ...   1.0e-12
Total number of shell pairs                 ...     47895
Shell pairs after pre-screening             ...     31055
Total number of primitive shell pairs       ...    154303
Primitive shell pairs kept                  ...     64124
          la=0 lb=0:   8218 shell pairs
          la=1 lb=0:   9532 shell pairs
          la=1 lb=1:   2841 shell pairs
          la=2 lb=0:   3985 shell pairs
          la=2 lb=1:   2360 shell pairs
          la=2 lb=2:    521 shell pairs
          la=3 lb=0:   1876 shell pairs
          la=3 lb=1:   1120 shell pairs
          la=3 lb=2:    480 shell pairs
          la=3 lb=3:    122 shell pairs

Calculating one electron integrals          ... done (  0.2 sec)
Calculating RI/J V-Matrix + Cholesky decomp.... done (  0.1 sec)
Calculating Nuclear repulsion               ... done (  0.0 sec) ENN=   2679.645769045296 Eh

Diagonalization of the overlap matrix:
Smallest eigenvalue                        ... 3.365e-04
Time for diagonalization                   ...    0.078 sec
Threshold for overlap eigenvalues          ... 1.000e-07
Number of eigenvalues below threshold      ... 0
Time for construction of square roots      ...    0.098 sec
Total time needed                          ...    0.188 sec

-------------------
DFT GRID GENERATION
-------------------

General Integration Accuracy     IntAcc      ... 4.388
Radial Grid Type                 RadialGrid  ... OptM3 with GC (2021)
Angular Grid (max. ang.)         AngularGrid ... 4 (Lebedev-302)
Angular grid pruning method      GridPruning ... 4 (adaptive)
Weight generation scheme         WeightScheme... mBecke (2022)
Basis function cutoff            BFCut       ... 1.0000e-11
Integration weight cutoff        WCut        ... 1.0000e-14
Partially contracted basis set               ... off
Rotationally invariant grid construction     ... off
Angular grids for H and He will be reduced by one unit

Total number of grid points                  ...   191902
Total number of batches                      ...     3021
Average number of points per batch           ...       63
Average number of grid points per atom       ...     4681

--------------------
COSX GRID GENERATION
--------------------

GRIDX 1
-------
General Integration Accuracy     IntAcc      ... 3.816
Radial Grid Type                 RadialGrid  ... OptM3 with GC (2021)
Angular Grid (max. ang.)         AngularGrid ... 1 (Lebedev-50)
Angular grid pruning method      GridPruning ... 4 (adaptive)
Weight generation scheme         WeightScheme... mBecke (2022)
Basis function cutoff            BFCut       ... 1.0000e-11
Integration weight cutoff        WCut        ... 1.0000e-14
Partially contracted basis set               ... on
Rotationally invariant grid construction     ... off
Angular grids for H and He will be reduced by one unit

Total number of grid points                  ...    30500
Total number of batches                      ...      260
Average number of points per batch           ...      117
Average number of grid points per atom       ...      744
UseSFitting                                  ... on

GRIDX 2
-------
General Integration Accuracy     IntAcc      ... 4.020
Radial Grid Type                 RadialGrid  ... OptM3 with GC (2021)
Angular Grid (max. ang.)         AngularGrid ... 2 (Lebedev-110)
Angular grid pruning method      GridPruning ... 4 (adaptive)
Weight generation scheme         WeightScheme... mBecke (2022)
Basis function cutoff            BFCut       ... 1.0000e-11
Integration weight cutoff        WCut        ... 1.0000e-14
Partially contracted basis set               ... on
Rotationally invariant grid construction     ... off
Angular grids for H and He will be reduced by one unit

Total number of grid points                  ...    51060
Total number of batches                      ...      421
Average number of points per batch           ...      121
Average number of grid points per atom       ...     1245
UseSFitting                                  ... on

GRIDX 3
-------
General Integration Accuracy     IntAcc      ... 4.338
Radial Grid Type                 RadialGrid  ... OptM3 with GC (2021)
Angular Grid (max. ang.)         AngularGrid ... 3 (Lebedev-194)
Angular grid pruning method      GridPruning ... 4 (adaptive)
Weight generation scheme         WeightScheme... mBecke (2022)
Basis function cutoff            BFCut       ... 1.0000e-11
Integration weight cutoff        WCut        ... 1.0000e-14
Partially contracted basis set               ... on
Rotationally invariant grid construction     ... off
Angular grids for H and He will be reduced by one unit

Total number of grid points                  ...   114177
Total number of batches                      ...      909
Average number of points per batch           ...      125
Average number of grid points per atom       ...     2785
UseSFitting                                  ... on
Initializing property integral containers    ... done (  0.0 sec)

SHARK setup successfully completed in   7.5 seconds

Maximum memory used throughout the entire STARTUP-calculation: 139.5 MB
-------------------------------------------------------------------------------
                                 ORCA GUESS
                   Start orbitals & Density for SCF / CASSCF
-------------------------------------------------------------------------------

------------
SCF SETTINGS
------------
Hamiltonian:
 Density Functional     Method          .... DFT(GTOs)
 Exchange Functional    Exchange        .... WB97X-V
 Correlation Functional Correlation     .... WB97X-V
 Gradients option       PostSCFGGA      .... off
 Hybrid DFT is turned on
   Fraction HF Exchange ScalHFX         ....  0.167000
   Scaling of DF-GGA-X  ScalDFX         ....  0.000000
   Scaling of DF-GGA-C  ScalDFC         ....  1.000000
   Scaling of DF-LDA-C  ScalLDAC        ....  1.000000
   Perturbative correction              ....  0.000000
 Long-range corrected/Screened/Range-Separated Hybrid DFT is turned on
   Amount of maximum screened exact exchange              ....  0.833000
   Range separation parameter mu (erf(mu*r12)/r12)        ....  0.300000
   NL short-range parameter             ....  6.000000
   NL long-range parameter              ....  0.010000
 RI-approximation to the Coulomb term is turned on
   Number of AuxJ basis functions       .... 1185
   RIJ-COSX (HFX calculated with COS-X)).... on


General Settings:
 Integral files         IntName         .... sp_gas
 Hartree-Fock type      HFTyp           .... RHF
 Total Charge           Charge          ....    0
 Multiplicity           Mult            ....    1
 Number of Electrons    NEL             ....  202
 Basis Dimension        Dim             ....  757
 Nuclear Repulsion      ENuc            ....   2679.6457690453 Eh

Convergence Acceleration:
 AO-DIIS                CNVDIIS         .... on
   Start iteration      DIISMaxIt       ....    12
   Startup error        DIISStart       ....  0.200000
   # of expansion vecs  DIISMaxEq       ....     5
   Bias factor          DIISBfac        ....   1.050
   Max. coefficient     DIISMaxC        ....  10.000
 MO-DIIS                CNVKDIIS        .... off
 Trust-Rad. Augm. Hess. CNVTRAH         .... auto
   Auto Start mean grad. ratio tolernc. ....  1.125000
   Auto Start start iteration           ....     1
   Auto Start num. interpolation iter.  ....    10
   Max. Number of Micro iterations      ....    24
   Max. Number of Macro iterations      .... Maxiter - #DIIS iter
   Number of Davidson start vectors     ....     2
   Converg. threshold    (grad. norm)   ....   1.000e-04
   Grad. Scal. Fac. for Micro threshold ....   0.100
   Minimum threshold for Micro iter.    ....   1.000e-02
   NR start threshold (gradient norm)   ....   1.000e-04
   Initial trust radius                 ....   0.400
   Minimum AH scaling param. (alpha)    ....   1.000
   Maximum AH scaling param. (alpha)    .... 1000.000
   Quad. conv. algorithm                .... NR
   White noise on init. David. guess    .... on
   Maximum white noise                  ....   0.010
   Pseudo random numbers                .... off
   Inactive MOs                         .... canonical
   Orbital update algorithm             .... Taylor
   Preconditioner                       .... Diag
   Full preconditioner red. dimension   ....   250
 SOSCF                  CNVSOSCF        .... on
   Start iteration      SOSCFMaxIt      ....   150
   Startup grad/error   SOSCFStart      ....  0.003300
   Hessian update       SOSCFHessUp     .... L-BFGS
 Level Shifting         CNVShift        .... on
   Level shift para.    LevelShift      ....    0.2500
   Turn off err/grad.   ShiftErr        ....    0.0010
 Zerner damping         CNVZerner       .... off
 Static damping         CNVDamp         .... on
   Fraction old density DampFac         ....    0.7000
   Max. Damping (<1)    DampMax         ....    0.9800
   Min. Damping (>=0)   DampMin         ....    0.0000
   Turn off err/grad.   DampErr         ....    0.1000

SCF Procedure:
 Maximum # iterations   MaxIter         ....   125
 SCF integral mode      SCFMode         .... Direct
   Integral package                     .... SHARK and LIBINT hybrid scheme
 Reset frequency        DirectResetFreq ....    20
 Integral Threshold     Thresh          ....  3.000e-11 Eh
 Primitive CutOff       TCut            ....  1.000e-12 Eh

Convergence Tolerance:
 Convergence Check Mode ConvCheckMode   .... Total+1el-Energy
 Convergence forced     ConvForced      .... 0
 Energy Change          TolE            ....  1.000e-07 Eh
 1-El. energy change                    ....  1.000e-04 Eh
 Orbital Gradient       TolG            ....  1.000e-04
 Orbital Rotation angle TolX            ....  1.000e-04
 DIIS Error             TolErr          ....  1.000e-07

---------------------
INITIAL GUESS: MOREAD
---------------------
Guess MOs are being read from file: sp_gas.ges
Input Geometry matches current geometry (good)
Atom 0: N(Shells)= 11 and 9 - projection required
Input basis set needs projection
NBasis(read)= 539
NBasis(calc)= 757
Basis set overlap was calculated
Using GuessMode=FMatrix for the initial guess
C*T matrix was formed
Effective Fockian was calculated
Effective Fockian was diagonalized
Initial density was built
                      ------------------
                      INITIAL GUESS DONE (   0.3 sec)
                      ------------------
             **** ENERGY FILE WAS UPDATED (sp_gas.en.tmp) ****
Finished Guess after   0.8 sec
Maximum memory used throughout the entire GUESS-calculation: 113.1 MB

-------------------------------------------------------------------------------------------
                                      ORCA LEAN-SCF
                              memory conserving SCF solver
-------------------------------------------------------------------------------------------

----------------------------------------D-I-I-S--------------------------------------------
Iteration    Energy (Eh)           Delta-E    RMSDP     MaxDP     DIISErr   Damp  Time(sec)
-------------------------------------------------------------------------------------------
               ***  Starting incremental Fock matrix formation  ***
    1    -2933.2664637592465624     0.00e+00  5.51e-04  2.84e-02  5.86e-02  0.700 100.9
    2    -2933.2871558256970275    -2.07e-02  4.68e-04  2.37e-02  4.25e-02  0.700  53.4
                               ***Turning on AO-DIIS***
    3    -2933.3028126629092185    -1.57e-02  3.83e-04  1.92e-02  3.04e-02  0.700  52.4
    4    -2933.3143720313742051    -1.16e-02  9.53e-04  4.71e-02  2.14e-02  0.000  51.6
                              *** Initializing SOSCF ***
---------------------------------------S-O-S-C-F--------------------------------------
Iteration    Energy (Eh)           Delta-E    RMSDP     MaxDP     MaxGrad    Time(sec)
--------------------------------------------------------------------------------------
    5    -2933.3441585428613507    -2.98e-02  4.90e-05  1.84e-03  1.15e-03    55.9
               *** Restarting incremental Fock matrix formation ***
    6    -2933.3443197366518689    -1.61e-04  2.95e-05  1.13e-03  8.09e-04   103.9
    7    -2933.3443583929406486    -3.87e-05  2.23e-05  9.69e-04  3.08e-04    68.9
    8    -2933.3443641578955976    -5.76e-06  7.34e-06  2.75e-04  1.09e-04    66.4
    9    -2933.3443672993475957    -3.14e-06  1.49e-06  1.58e-04  2.19e-05    58.6
                  *** Gradient check signals convergence ***

               *****************************************************
               *                     SUCCESS                       *
               *           SCF CONVERGED AFTER   9 CYCLES          *
               *****************************************************


------------------
NL GRID GENERATION
------------------

General Integration Accuracy     IntAcc      ... 4.004
Radial Grid Type                 RadialGrid  ... OptM3 with GC (2021)
Angular Grid (max. ang.)         AngularGrid ... 2 (Lebedev-110)
Angular grid pruning method      GridPruning ... 4 (adaptive)
Weight generation scheme         WeightScheme... mBecke (2022)
Basis function cutoff            BFCut       ... 1.0000e-10
Integration weight cutoff        WCut        ... 1.0000e-14
Partially contracted basis set               ... off
Rotationally invariant grid construction     ... off
Angular grids for H and He will be reduced by one unit

Total number of grid points                  ...    57105
Total number of batches                      ...      914
Average number of points per batch           ...       62
Average number of grid points per atom       ...     1393
Final grid set up in    0.6 sec

-------------------------------------------------------------------------------
                    post-SCF DFT-NL dispersion correction                      
-------------------------------------------------------------------------------

SCF Energy:    -2933.344367299 
NL    Energy:      0.775776483 
SC+NL Energy:  -2932.568590817 
NL done in  :             11.3 sec
-------------------------------------------------------------------------------
Recomputing exchange energy using gridx3       ... done (  205.443 sec)
Old exchange energy                            :    -65.562802543 Eh
New exchange energy                            :    -65.562809117 Eh
Exchange energy change after final integration :     -0.000006575 Eh
Total energy after final integration           :  -2932.568597391 Eh
             **** ENERGY FILE WAS UPDATED (sp_gas.en.tmp) ****

----------------
TOTAL SCF ENERGY
----------------

Total Energy       :      -2932.56859739139963 Eh          -79799.24845 eV

Components:
Nuclear Repulsion  :       2679.64576904529576 Eh           72916.86840 eV
Electronic Energy  :      -5612.99013634464427 Eh         -152737.22662 eV
One Electron Energy:      -9380.55302626023331 Eh         -255257.82490 eV
Two Electron Energy:       3767.56288991558949 Eh          102520.59828 eV

Virial components:
Potential Energy   :      -5857.84305489673534 Eh         -159400.01326 eV
Kinetic Energy     :       2925.27445750533525 Eh           79600.76481 eV
Virial Ratio       :          2.00249348906984

DFT components:
N(Alpha)           :      100.999997127445 electrons
N(Beta)            :      100.999997127445 electrons
N(Total)           :      201.999994254890 electrons
E(X)               :     -166.441577264426 Eh       
E(C)               :       -9.363423841103 Eh       
NL Energy, E(C,NL) :        0.775776482756 Eh       
E(XC)              :     -175.029224622773 Eh       

---------------
SCF CONVERGENCE
---------------

  Last Energy change         ...    3.1415e-06  Tolerance :   1.0000e-07
  Last MAX-Density change    ...    1.5804e-04  Tolerance :   1.0000e-05
  Last RMS-Density change    ...    1.4903e-06  Tolerance :   1.0000e-06
  Last DIIS Error            ...    1.1476e-03  Tolerance :   1.0000e-07
  Last Orbital Gradient      ...    2.1923e-05  Tolerance :   1.0000e-04
  Last Orbital Rotation      ...    3.6971e-05  Tolerance :   1.0000e-04


----------------
ORBITAL ENERGIES
----------------

  NO   OCC          E(Eh)            E(eV) 
   0   2.0000     -94.148469     -2561.9101 
   1   2.0000     -94.143530     -2561.7757 
   2   2.0000     -94.090061     -2560.3207 
   3   2.0000     -94.079045     -2560.0210 
   4   2.0000     -82.124991     -2234.7346 
   5   2.0000     -82.116650     -2234.5076 
   6   2.0000     -21.716398      -590.9332 
   7   2.0000     -21.713154      -590.8450 
   8   2.0000     -21.711684      -590.8050 
   9   2.0000     -21.705144      -590.6270 
  10   2.0000     -12.127652      -330.0102 
  11   2.0000     -12.120762      -329.8227 
  12   2.0000     -12.117682      -329.7389 
  13   2.0000     -12.117016      -329.7208 
  14   2.0000     -12.106282      -329.4287 
  15   2.0000     -12.054543      -328.0208 
  16   2.0000     -12.049758      -327.8906 
  17   2.0000     -12.049153      -327.8741 
  18   2.0000     -12.041407      -327.6634 
  19   2.0000      -9.659890      -262.8590 
  20   2.0000      -9.654712      -262.7181 
  21   2.0000      -9.602928      -261.3089 
  22   2.0000      -9.591781      -261.0056 
  23   2.0000      -8.238334      -224.1765 
  24   2.0000      -8.229955      -223.9485 
  25   2.0000      -7.637526      -207.8276 
  26   2.0000      -7.636610      -207.8027 
  27   2.0000      -7.635477      -207.7719 
  28   2.0000      -7.632183      -207.6822 
  29   2.0000      -7.631034      -207.6510 
  30   2.0000      -7.629953      -207.6216 
  31   2.0000      -7.580535      -206.2768 
  32   2.0000      -7.578779      -206.2291 
  33   2.0000      -7.578681      -206.2264 
  34   2.0000      -7.569332      -205.9720 
  35   2.0000      -7.567749      -205.9289 
  36   2.0000      -7.567543      -205.9233 
  37   2.0000      -6.402457      -174.2197 
  38   2.0000      -6.402416      -174.2186 
  39   2.0000      -6.401993      -174.2071 
  40   2.0000      -6.394252      -173.9964 
  41   2.0000      -6.394033      -173.9905 
  42   2.0000      -6.393472      -173.9752 
  43   2.0000      -1.725397       -46.9504 
  44   2.0000      -1.720889       -46.8278 
  45   2.0000      -1.702044       -46.3150 
  46   2.0000      -1.694681       -46.1146 
  47   2.0000      -1.332086       -36.2479 
  48   2.0000      -1.316686       -35.8288 
  49   2.0000      -1.305986       -35.5377 
  50   2.0000      -1.292876       -35.1809 
  51   2.0000      -1.283719       -34.9318 
  52   2.0000      -1.256168       -34.1821 
  53   2.0000      -1.232581       -33.5402 
  54   2.0000      -1.208182       -32.8763 
  55   2.0000      -1.178962       -32.0812 
  56   2.0000      -1.174711       -31.9655 
  57   2.0000      -1.153485       -31.3879 
  58   2.0000      -1.140703       -31.0401 
  59   2.0000      -1.121180       -30.5089 
  60   2.0000      -1.080139       -29.3921 
  61   2.0000      -1.070035       -29.1171 
  62   2.0000      -1.049965       -28.5710 
  63   2.0000      -1.046251       -28.4699 
  64   2.0000      -1.002448       -27.2780 
  65   2.0000      -0.995651       -27.0930 
  66   2.0000      -0.985705       -26.8224 
  67   2.0000      -0.984773       -26.7970 
  68   2.0000      -0.982833       -26.7442 
  69   2.0000      -0.968384       -26.3511 
  70   2.0000      -0.964092       -26.2343 
  71   2.0000      -0.963124       -26.2079 
  72   2.0000      -0.922650       -25.1066 
  73   2.0000      -0.896891       -24.4056 
  74   2.0000      -0.885784       -24.1034 
  75   2.0000      -0.880846       -23.9690 
  76   2.0000      -0.876534       -23.8517 
  77   2.0000      -0.870076       -23.6760 
  78   2.0000      -0.864462       -23.5232 
  79   2.0000      -0.851020       -23.1574 
  80   2.0000      -0.843331       -22.9482 
  81   2.0000      -0.842154       -22.9162 
  82   2.0000      -0.840145       -22.8615 
  83   2.0000      -0.835815       -22.7437 
  84   2.0000      -0.828600       -22.5474 
  85   2.0000      -0.824857       -22.4455 
  86   2.0000      -0.824631       -22.4393 
  87   2.0000      -0.816119       -22.2077 
  88   2.0000      -0.813595       -22.1390 
  89   2.0000      -0.793931       -21.6040 
  90   2.0000      -0.790882       -21.5210 
  91   2.0000      -0.790284       -21.5047 
  92   2.0000      -0.781934       -21.2775 
  93   2.0000      -0.775187       -21.0939 
  94   2.0000      -0.756680       -20.5903 
  95   2.0000      -0.693308       -18.8659 
  96   2.0000      -0.680706       -18.5229 
  97   2.0000      -0.653252       -17.7759 
  98   2.0000      -0.647816       -17.6280 
  99   2.0000      -0.640979       -17.4419 
 100   2.0000      -0.635766       -17.3001 
 101   0.0000      -0.320403        -8.7186 
 102   0.0000      -0.312936        -8.5154 
 103   0.0000      -0.272076        -7.4036 
 104   0.0000      -0.240662        -6.5487 
 105   0.0000      -0.234607        -6.3840 
 106   0.0000      -0.231131        -6.2894 
 107   0.0000      -0.221412        -6.0249 
 108   0.0000      -0.213544        -5.8108 
 109   0.0000      -0.190996        -5.1973 
 110   0.0000      -0.184575        -5.0225 
 111   0.0000      -0.172004        -4.6805 
*Only the first 10 virtual orbitals were printed.

                    ********************************
                    * MULLIKEN POPULATION ANALYSIS *
                    ********************************

-----------------------
MULLIKEN ATOMIC CHARGES
-----------------------
   0 C :   -0.345266
   1 C :   -0.044796
   2 O :   -0.303609
   3 P :    0.583996
   4 S :   -0.410076
   5 O :   -0.290162
   6 C :   -0.061441
   7 C :   -0.312223
   8 S :   -0.104035
   9 C :   -0.196300
  10 S :   -0.130620
  11 P :    0.610153
  12 S :   -0.415275
  13 O :   -0.296056
  14 C :   -0.052235
  15 C :   -0.317485
  16 O :   -0.308134
  17 C :   -0.055328
  18 C :   -0.314322
  19 H :    0.121451
  20 H :    0.109049
  21 H :    0.144257
  22 H :    0.132029
  23 H :    0.117041
  24 H :    0.128708
  25 H :    0.119782
  26 H :    0.108376
  27 H :    0.118837
  28 H :    0.118136
  29 H :    0.162487
  30 H :    0.177972
  31 H :    0.117292
  32 H :    0.133945
  33 H :    0.118528
  34 H :    0.123474
  35 H :    0.116467
  36 H :    0.127155
  37 H :    0.114189
  38 H :    0.114770
  39 H :    0.119979
  40 H :    0.119289
Sum of atomic charges:   -0.0000000

--------------------------------
MULLIKEN REDUCED ORBITAL CHARGES
--------------------------------
  0 C s       :     3.228548  s :     3.228548
      pz      :     0.946116  p :     3.058888
      px      :     1.045612
      py      :     1.067160
      dz2     :     0.010613  d :     0.054555
      dxz     :     0.016044
      dyz     :     0.009406
      dx2y2   :     0.007355
      dxy     :     0.011138
      f0      :     0.000814  f :     0.003275
      f+1     :     0.000766
      f-1     :     0.000536
      f+2     :     0.000297
      f-2     :     0.000328
      f+3     :     0.000383
      f-3     :     0.000152

  1 C s       :     3.205638  s :     3.205638
      pz      :     0.826374  p :     2.697000
      px      :     0.813914
      py      :     1.056711
      dz2     :     0.036840  d :     0.132671
      dxz     :     0.031702
      dyz     :     0.021448
      dx2y2   :     0.014302
      dxy     :     0.028379
      f0      :     0.001713  f :     0.009488
      f+1     :     0.002521
      f-1     :     0.000742
      f+2     :     0.001403
      f-2     :     0.001629
      f+3     :     0.000917
      f-3     :     0.000563

  2 O s       :     3.723504  s :     3.723504
      pz      :     1.540203  p :     4.548648
      px      :     1.469657
      py      :     1.538788
      dz2     :     0.004806  d :     0.029870
      dxz     :     0.004478
      dyz     :     0.006611
      dx2y2   :     0.005883
      dxy     :     0.008092
      f0      :     0.000205  f :     0.001586
      f+1     :     0.000355
      f-1     :     0.000113
      f+2     :     0.000339
      f-2     :     0.000273
      f+3     :     0.000158
      f-3     :     0.000143

  3 P s       :     5.257951  s :     5.257951
      pz      :     2.726508  p :     8.209861
      px      :     2.784074
      py      :     2.699279
      dz2     :     0.148607  d :     0.854247
      dxz     :     0.157071
      dyz     :     0.192333
      dx2y2   :     0.177299
      dxy     :     0.178936
      f0      :     0.012437  f :     0.093946
      f+1     :     0.011124
      f-1     :     0.017147
      f+2     :     0.015175
      f-2     :     0.012737
      f+3     :     0.009121
      f-3     :     0.016205

  4 S s       :     5.813355  s :     5.813355
      pz      :     3.672245  p :    10.517198
      px      :     3.537765
      py      :     3.307189
      dz2     :     0.010074  d :     0.072422
      dxz     :     0.005885
      dyz     :     0.013301
      dx2y2   :     0.017748
      dxy     :     0.025413
      f0      :     0.000664  f :     0.007100
      f+1     :     0.000443
      f-1     :     0.000953
      f+2     :     0.000445
      f-2     :     0.001144
      f+3     :     0.001891
      f-3     :     0.001560

  5 O s       :     3.729171  s :     3.729171
      pz      :     1.370311  p :     4.528810
      px      :     1.594818
      py      :     1.563681
      dz2     :     0.005475  d :     0.030627
      dxz     :     0.004390
      dyz     :     0.010095
      dx2y2   :     0.004140
      dxy     :     0.006527
      f0      :     0.000209  f :     0.001554
      f+1     :     0.000404
      f-1     :     0.000222
      f+2     :     0.000267
      f-2     :     0.000321
      f+3     :     0.000065
      f-3     :     0.000064

  6 C s       :     3.206482  s :     3.206482
      pz      :     0.832719  p :     2.705080
      px      :     0.915712
      py      :     0.956649
      dz2     :     0.029767  d :     0.140025
      dxz     :     0.029495
      dyz     :     0.028883
      dx2y2   :     0.019765
      dxy     :     0.032115
      f0      :     0.001371  f :     0.009855
      f+1     :     0.001121
      f-1     :     0.001401
      f+2     :     0.002131
      f-2     :     0.002227
      f+3     :     0.000805
      f-3     :     0.000797

  7 C s       :     3.217321  s :     3.217321
      pz      :     0.996160  p :     3.037228
      px      :     1.050520
      py      :     0.990548
      dz2     :     0.007488  d :     0.054266
      dxz     :     0.013414
      dyz     :     0.012404
      dx2y2   :     0.004264
      dxy     :     0.016696
      f0      :     0.000217  f :     0.003409
      f+1     :     0.000147
      f-1     :     0.000627
      f+2     :     0.000627
      f-2     :     0.001420
      f+3     :     0.000183
      f-3     :     0.000188

  8 S s       :     5.823054  s :     5.823054
      pz      :     3.593814  p :    10.143095
      px      :     3.297618
      py      :     3.251662
      dz2     :     0.017036  d :     0.126793
      dxz     :     0.026566
      dyz     :     0.016481
      dx2y2   :     0.033200
      dxy     :     0.033509
      f0      :     0.001246  f :     0.011093
      f+1     :     0.001241
      f-1     :     0.001380
      f+2     :     0.001379
      f-2     :     0.001897
      f+3     :     0.001980
      f-3     :     0.001969

  9 C s       :     3.170341  s :     3.170341
      pz      :     0.993456  p :     2.918270
      px      :     0.989341
      py      :     0.935473
      dz2     :     0.024686  d :     0.103515
      dxz     :     0.017034
      dyz     :     0.018221
      dx2y2   :     0.015364
      dxy     :     0.028211
      f0      :     0.000419  f :     0.004174
      f+1     :     0.001017
      f-1     :     0.000406
      f+2     :     0.000454
      f-2     :     0.000636
      f+3     :     0.000614
      f-3     :     0.000627

 10 S s       :     5.816491  s :     5.816491
      pz      :     3.549403  p :    10.182448
      px      :     3.145852
      py      :     3.487194
      dz2     :     0.021265  d :     0.120563
      dxz     :     0.026448
      dyz     :     0.017291
      dx2y2   :     0.014164
      dxy     :     0.041395
      f0      :     0.001431  f :     0.011118
      f+1     :     0.001813
      f-1     :     0.001329
      f+2     :     0.001366
      f-2     :     0.002094
      f+3     :     0.001699
      f-3     :     0.001386

 11 P s       :     5.247725  s :     5.247725
      pz      :     2.726704  p :     8.202707
      px      :     2.737015
      py      :     2.738987
      dz2     :     0.185982  d :     0.843929
      dxz     :     0.160852
      dyz     :     0.185280
      dx2y2   :     0.127423
      dxy     :     0.184392
      f0      :     0.015458  f :     0.095487
      f+1     :     0.013239
      f-1     :     0.012877
      f+2     :     0.013731
      f-2     :     0.017889
      f+3     :     0.013920
      f-3     :     0.008372

 12 S s       :     5.829309  s :     5.829309
      pz      :     3.211888  p :    10.505583
      px      :     3.687200
      py      :     3.606495
      dz2     :     0.028053  d :     0.073273
      dxz     :     0.014801
      dyz     :     0.022756
      dx2y2   :     0.004142
      dxy     :     0.003520
      f0      :     0.001995  f :     0.007110
      f+1     :     0.001252
      f-1     :     0.002181
      f+2     :     0.000766
      f-2     :     0.000742
      f+3     :     0.000078
      f-3     :     0.000097

 13 O s       :     3.732631  s :     3.732631
      pz      :     1.561941  p :     4.531772
      px      :     1.682114
      py      :     1.287718
      dz2     :     0.006429  d :     0.030062
      dxz     :     0.004287
      dyz     :     0.008187
      dx2y2   :     0.004075
      dxy     :     0.007085
      f0      :     0.000172  f :     0.001590
      f+1     :     0.000080
      f-1     :     0.000329
      f+2     :     0.000247
      f-2     :     0.000198
      f+3     :     0.000300
      f-3     :     0.000265

 14 C s       :     3.211117  s :     3.211117
      pz      :     1.061200  p :     2.696715
      px      :     0.939868
      py      :     0.695648
      dz2     :     0.015297  d :     0.134854
      dxz     :     0.021961
      dyz     :     0.029823
      dx2y2   :     0.027604
      dxy     :     0.040169
      f0      :     0.001077  f :     0.009548
      f+1     :     0.000807
      f-1     :     0.000998
      f+2     :     0.001247
      f-2     :     0.000789
      f+3     :     0.001727
      f-3     :     0.002903

 15 C s       :     3.212898  s :     3.212898
      pz      :     1.060523  p :     3.047241
      px      :     0.929724
      py      :     1.056994
      dz2     :     0.008464  d :     0.054081
      dxz     :     0.017198
      dyz     :     0.007132
      dx2y2   :     0.010994
      dxy     :     0.010294
      f0      :     0.000254  f :     0.003264
      f+1     :     0.000546
      f-1     :     0.000556
      f+2     :     0.000652
      f-2     :     0.000077
      f+3     :     0.000552
      f-3     :     0.000628

 16 O s       :     3.740251  s :     3.740251
      pz      :     1.573421  p :     4.536202
      px      :     1.462726
      py      :     1.500055
      dz2     :     0.004822  d :     0.030134
      dxz     :     0.007478
      dyz     :     0.007633
      dx2y2   :     0.005455
      dxy     :     0.004747
      f0      :     0.000107  f :     0.001547
      f+1     :     0.000116
      f-1     :     0.000114
      f+2     :     0.000158
      f-2     :     0.000372
      f+3     :     0.000352
      f-3     :     0.000328

 17 C s       :     3.212972  s :     3.212972
      pz      :     0.923577  p :     2.696237
      px      :     0.917124
      py      :     0.855536
      dz2     :     0.026755  d :     0.136427
      dxz     :     0.025861
      dyz     :     0.028718
      dx2y2   :     0.024594
      dxy     :     0.030498
      f0      :     0.000541  f :     0.009692
      f+1     :     0.001448
      f-1     :     0.001496
      f+2     :     0.001658
      f-2     :     0.002090
      f+3     :     0.001199
      f-3     :     0.001260

 18 C s       :     3.219392  s :     3.219392
      pz      :     1.006651  p :     3.037055
      px      :     0.990842
      py      :     1.039562
      dz2     :     0.007945  d :     0.054493
      dxz     :     0.011767
      dyz     :     0.014956
      dx2y2   :     0.005788
      dxy     :     0.014038
      f0      :     0.000100  f :     0.003382
      f+1     :     0.000511
      f-1     :     0.000269
      f+2     :     0.000437
      f-2     :     0.001388
      f+3     :     0.000476
      f-3     :     0.000200

 19 H s       :     0.857449  s :     0.857449
      pz      :     0.008135  p :     0.021101
      px      :     0.008718
      py      :     0.004247

 20 H s       :     0.869979  s :     0.869979
      pz      :     0.005134  p :     0.020972
      px      :     0.008467
      py      :     0.007371

 21 H s       :     0.834418  s :     0.834418
      pz      :     0.004020  p :     0.021325
      px      :     0.005470
      py      :     0.011834

 22 H s       :     0.846991  s :     0.846991
      pz      :     0.004921  p :     0.020980
      px      :     0.007388
      py      :     0.008670

 23 H s       :     0.862466  s :     0.862466
      pz      :     0.003405  p :     0.020493
      px      :     0.005349
      py      :     0.011740

 24 H s       :     0.850753  s :     0.850753
      pz      :     0.005026  p :     0.020539
      px      :     0.006158
      py      :     0.009355

 25 H s       :     0.859357  s :     0.859357
      pz      :     0.005403  p :     0.020861
      px      :     0.010034
      py      :     0.005423

 26 H s       :     0.870660  s :     0.870660
      pz      :     0.008566  p :     0.020964
      px      :     0.007068
      py      :     0.005330

 27 H s       :     0.860047  s :     0.860047
      pz      :     0.005705  p :     0.021116
      px      :     0.006616
      py      :     0.008795

 28 H s       :     0.860968  s :     0.860968
      pz      :     0.005901  p :     0.020896
      px      :     0.009305
      py      :     0.005690

 29 H s       :     0.814956  s :     0.814956
      pz      :     0.004301  p :     0.022557
      px      :     0.009620
      py      :     0.008636

 30 H s       :     0.798983  s :     0.798983
      pz      :     0.012018  p :     0.023045
      px      :     0.006750
      py      :     0.004276

 31 H s       :     0.862198  s :     0.862198
      pz      :     0.008670  p :     0.020510
      px      :     0.007001
      py      :     0.004839

 32 H s       :     0.845105  s :     0.845105
      pz      :     0.012242  p :     0.020950
      px      :     0.004078
      py      :     0.004630

 33 H s       :     0.860380  s :     0.860380
      pz      :     0.004364  p :     0.021091
      px      :     0.005194
      py      :     0.011534

 34 H s       :     0.855345  s :     0.855345
      pz      :     0.008534  p :     0.021181
      px      :     0.006920
      py      :     0.005726

 35 H s       :     0.862521  s :     0.862521
      pz      :     0.010552  p :     0.021012
      px      :     0.004264
      py      :     0.006197

 36 H s       :     0.852101  s :     0.852101
      pz      :     0.010279  p :     0.020745
      px      :     0.005051
      py      :     0.005414

 37 H s       :     0.865379  s :     0.865379
      pz      :     0.004814  p :     0.020432
      px      :     0.007544
      py      :     0.008074

 38 H s       :     0.864209  s :     0.864209
      pz      :     0.006060  p :     0.021021
      px      :     0.006780
      py      :     0.008181

 39 H s       :     0.859042  s :     0.859042
      pz      :     0.009734  p :     0.020979
      px      :     0.005266
      py      :     0.005979

 40 H s       :     0.859768  s :     0.859768
      pz      :     0.005148  p :     0.020943
      px      :     0.007642
      py      :     0.008153


------------------------
MULLIKEN OVERLAP CHARGES
------------------------
B(  0-C ,  1-C ) :   0.6267 B(  0-C ,  2-O ) :  -0.0897 B(  0-C , 19-H ) :   0.7939 
B(  0-C , 20-H ) :   0.7907 B(  0-C , 21-H ) :   0.8210 B(  0-C , 22-H ) :  -0.0978 
B(  0-C , 23-H ) :  -0.0699 B(  1-C ,  2-O ) :   0.4758 B(  1-C ,  3-P ) :  -0.0555 
B(  1-C , 19-H ) :  -0.0581 B(  1-C , 20-H ) :  -0.0597 B(  1-C , 21-H ) :  -0.0653 
B(  1-C , 22-H ) :   0.8675 B(  1-C , 23-H ) :   0.8046 B(  2-O ,  3-P ) :   0.8233 
B(  2-O ,  4-S ) :  -0.0876 B(  2-O ,  5-O ) :  -0.0930 B(  2-O ,  8-S ) :  -0.0713 
B(  2-O , 22-H ) :  -0.0633 B(  2-O , 23-H ) :  -0.0747 B(  3-P ,  4-S ) :   1.4042 
B(  3-P ,  5-O ) :   0.8586 B(  3-P ,  6-C ) :  -0.0646 B(  3-P ,  8-S ) :   0.7605 
B(  3-P ,  9-C ) :  -0.0703 B(  4-S ,  5-O ) :  -0.0815 B(  4-S ,  8-S ) :  -0.0983 
B(  5-O ,  6-C ) :   0.4391 B(  5-O ,  7-C ) :  -0.0771 B(  5-O ,  8-S ) :  -0.0771 
B(  5-O , 24-H ) :  -0.0628 B(  5-O , 25-H ) :  -0.0809 B(  6-C ,  7-C ) :   0.6229 
B(  6-C , 24-H ) :   0.8258 B(  6-C , 25-H ) :   0.8207 B(  6-C , 26-H ) :  -0.0693 
B(  6-C , 27-H ) :  -0.0628 B(  6-C , 28-H ) :  -0.0681 B(  7-C , 25-H ) :  -0.0757 
B(  7-C , 26-H ) :   0.8044 B(  7-C , 27-H ) :   0.8261 B(  7-C , 28-H ) :   0.8140 
B(  8-S ,  9-C ) :   0.5609 B(  8-S , 10-S ) :  -0.1115 B(  8-S , 29-H ) :  -0.0684 
B(  8-S , 30-H ) :  -0.0616 B(  9-C , 10-S ) :   0.5748 B(  9-C , 11-P ) :  -0.0725 
B(  9-C , 29-H ) :   0.7862 B(  9-C , 30-H ) :   0.8145 B( 10-S , 11-P ) :   0.7808 
B( 10-S , 12-S ) :  -0.1115 B( 10-S , 13-O ) :  -0.0775 B( 10-S , 16-O ) :  -0.0500 
B( 10-S , 29-H ) :  -0.0581 B( 10-S , 30-H ) :  -0.0685 B( 11-P , 12-S ) :   1.3304 
B( 11-P , 13-O ) :   0.8213 B( 11-P , 14-C ) :  -0.0646 B( 11-P , 16-O ) :   0.8067 
B( 11-P , 17-C ) :  -0.0527 B( 12-S , 13-O ) :  -0.0873 B( 12-S , 16-O ) :  -0.0847 
B( 13-O , 14-C ) :   0.4805 B( 13-O , 15-C ) :  -0.0834 B( 13-O , 16-O ) :  -0.0766 
B( 13-O , 31-H ) :  -0.0793 B( 13-O , 32-H ) :  -0.0667 B( 14-C , 15-C ) :   0.6540 
B( 14-C , 31-H ) :   0.7978 B( 14-C , 32-H ) :   0.8732 B( 14-C , 33-H ) :  -0.0675 
B( 14-C , 34-H ) :  -0.0624 B( 14-C , 35-H ) :  -0.0531 B( 15-C , 31-H ) :  -0.0581 
B( 15-C , 32-H ) :  -0.1081 B( 15-C , 33-H ) :   0.7977 B( 15-C , 34-H ) :   0.8131 
B( 15-C , 35-H ) :   0.7839 B( 16-O , 17-C ) :   0.4593 B( 16-O , 18-C ) :  -0.0909 
B( 16-O , 36-H ) :  -0.0723 B( 16-O , 37-H ) :  -0.0761 B( 17-C , 18-C ) :   0.6341 
B( 17-C , 36-H ) :   0.8365 B( 17-C , 37-H ) :   0.8153 B( 17-C , 38-H ) :  -0.0739 
B( 17-C , 39-H ) :  -0.0614 B( 17-C , 40-H ) :  -0.0667 B( 18-C , 36-H ) :  -0.0631 
B( 18-C , 37-H ) :  -0.0574 B( 18-C , 38-H ) :   0.8115 B( 18-C , 39-H ) :   0.8169 
B( 18-C , 40-H ) :   0.8221 B( 20-H , 21-H ) :  -0.0505 B( 22-H , 23-H ) :  -0.0606 
B( 24-H , 25-H ) :  -0.0827 B( 27-H , 28-H ) :  -0.0511 B( 31-H , 32-H ) :  -0.0624 
B( 36-H , 37-H ) :  -0.0827 B( 39-H , 40-H ) :  -0.0513 


                     *******************************
                     * LOEWDIN POPULATION ANALYSIS *
                     *******************************

----------------------
LOEWDIN ATOMIC CHARGES
----------------------
   0 C :   -0.313978
   1 C :   -0.316345
   2 O :    0.032089
   3 P :   -0.045840
   4 S :   -0.118539
   5 O :    0.034035
   6 C :   -0.330453
   7 C :   -0.305732
   8 S :    0.357072
   9 C :   -0.699717
  10 S :    0.360345
  11 P :   -0.030440
  12 S :   -0.110396
  13 O :    0.025716
  14 C :   -0.315202
  15 C :   -0.310816
  16 O :    0.027134
  17 C :   -0.323858
  18 C :   -0.303265
  19 H :    0.127713
  20 H :    0.118894
  21 H :    0.122719
  22 H :    0.123293
  23 H :    0.126893
  24 H :    0.121632
  25 H :    0.118327
  26 H :    0.124961
  27 H :    0.118524
  28 H :    0.121603
  29 H :    0.116482
  30 H :    0.114602
  31 H :    0.127143
  32 H :    0.122783
  33 H :    0.127180
  34 H :    0.120551
  35 H :    0.122316
  36 H :    0.122098
  37 H :    0.119314
  38 H :    0.126217
  39 H :    0.122418
  40 H :    0.122530

-------------------------------
LOEWDIN REDUCED ORBITAL CHARGES
-------------------------------
  0 C s       :     2.831985  s :     2.831985
      pz      :     1.052855  p :     3.201723
      px      :     1.071955
      py      :     1.076913
      dz2     :     0.057071  d :     0.255299
      dxz     :     0.076130
      dyz     :     0.044875
      dx2y2   :     0.030077
      dxy     :     0.047145
      f0      :     0.005084  f :     0.024970
      f+1     :     0.003882
      f-1     :     0.005630
      f+2     :     0.003966
      f-2     :     0.002853
      f+3     :     0.002217
      f-3     :     0.001339

  1 C s       :     2.816012  s :     2.816012
      pz      :     0.957512  p :     2.931399
      px      :     0.897023
      py      :     1.076864
      dz2     :     0.134455  d :     0.505070
      dxz     :     0.134529
      dyz     :     0.076558
      dx2y2   :     0.051828
      dxy     :     0.107700
      f0      :     0.010705  f :     0.063863
      f+1     :     0.014142
      f-1     :     0.006583
      f+2     :     0.012418
      f-2     :     0.010027
      f+3     :     0.005935
      f-3     :     0.004052

  2 O s       :     3.332157  s :     3.332157
      pz      :     1.505280  p :     4.555321
      px      :     1.472384
      py      :     1.577656
      dz2     :     0.012955  d :     0.076454
      dxz     :     0.014262
      dyz     :     0.015363
      dx2y2   :     0.013820
      dxy     :     0.020055
      f0      :     0.000575  f :     0.003979
      f+1     :     0.000734
      f-1     :     0.000278
      f+2     :     0.000695
      f-2     :     0.000679
      f+3     :     0.000532
      f-3     :     0.000486

  3 P s       :     4.769516  s :     4.769516
      pz      :     2.754430  p :     8.452947
      px      :     2.841114
      py      :     2.857403
      dz2     :     0.243034  d :     1.515273
      dxz     :     0.283670
      dyz     :     0.348564
      dx2y2   :     0.300427
      dxy     :     0.339577
      f0      :     0.040355  f :     0.308104
      f+1     :     0.033470
      f-1     :     0.055312
      f+2     :     0.049072
      f-2     :     0.045296
      f+3     :     0.035237
      f-3     :     0.049363

  4 S s       :     5.535342  s :     5.535342
      pz      :     3.598354  p :    10.455757
      px      :     3.506172
      py      :     3.351231
      dz2     :     0.017392  d :     0.112985
      dxz     :     0.008261
      dyz     :     0.016804
      dx2y2   :     0.022803
      dxy     :     0.047724
      f0      :     0.001336  f :     0.014455
      f+1     :     0.000914
      f-1     :     0.001940
      f+2     :     0.000783
      f-2     :     0.002225
      f+3     :     0.005217
      f-3     :     0.002041

  5 O s       :     3.335808  s :     3.335808
      pz      :     1.419197  p :     4.547976
      px      :     1.551232
      py      :     1.577546
      dz2     :     0.015836  d :     0.078181
      dxz     :     0.015166
      dyz     :     0.025396
      dx2y2   :     0.008430
      dxy     :     0.013352
      f0      :     0.000439  f :     0.004000
      f+1     :     0.000816
      f-1     :     0.000725
      f+2     :     0.000795
      f-2     :     0.000661
      f+3     :     0.000311
      f-3     :     0.000254

  6 C s       :     2.816358  s :     2.816358
      pz      :     0.935948  p :     2.943844
      px      :     0.977298
      py      :     1.030598
      dz2     :     0.090344  d :     0.505426
      dxz     :     0.112618
      dyz     :     0.124751
      dx2y2   :     0.063888
      dxy     :     0.113825
      f0      :     0.011494  f :     0.064824
      f+1     :     0.007844
      f-1     :     0.009494
      f+2     :     0.010592
      f-2     :     0.012262
      f+3     :     0.006513
      f-3     :     0.006625

  7 C s       :     2.830719  s :     2.830719
      pz      :     1.059529  p :     3.191999
      px      :     1.068759
      py      :     1.063711
      dz2     :     0.033684  d :     0.257722
      dxz     :     0.061433
      dyz     :     0.067378
      dx2y2   :     0.025852
      dxy     :     0.069376
      f0      :     0.004536  f :     0.025292
      f+1     :     0.001854
      f-1     :     0.004657
      f+2     :     0.003388
      f-2     :     0.004816
      f+3     :     0.002770
      f-3     :     0.003271

  8 S s       :     5.354025  s :     5.354025
      pz      :     3.506938  p :    10.034349
      px      :     3.268002
      py      :     3.259409
      dz2     :     0.025292  d :     0.224683
      dxz     :     0.052709
      dyz     :     0.031896
      dx2y2   :     0.058163
      dxy     :     0.056624
      f0      :     0.002888  f :     0.029871
      f+1     :     0.002251
      f-1     :     0.003297
      f+2     :     0.004278
      f-2     :     0.004739
      f+3     :     0.005942
      f-3     :     0.006476

  9 C s       :     2.950183  s :     2.950183
      pz      :     1.098337  p :     3.301173
      px      :     1.098595
      py      :     1.104241
      dz2     :     0.094138  d :     0.418764
      dxz     :     0.074087
      dyz     :     0.068499
      dx2y2   :     0.064960
      dxy     :     0.117080
      f0      :     0.003066  f :     0.029597
      f+1     :     0.005319
      f-1     :     0.004340
      f+2     :     0.004259
      f-2     :     0.003688
      f+3     :     0.004052
      f-3     :     0.004873

 10 S s       :     5.345699  s :     5.345699
      pz      :     3.478307  p :    10.046062
      px      :     3.117716
      py      :     3.450040
      dz2     :     0.040950  d :     0.217998
      dxz     :     0.049797
      dyz     :     0.025911
      dx2y2   :     0.028327
      dxy     :     0.073014
      f0      :     0.003355  f :     0.029896
      f+1     :     0.005097
      f-1     :     0.003321
      f+2     :     0.003774
      f-2     :     0.005461
      f+3     :     0.004630
      f-3     :     0.004259

 11 P s       :     4.771630  s :     4.771630
      pz      :     2.880645  p :     8.450509
      px      :     2.776453
      py      :     2.793410
      dz2     :     0.339918  d :     1.498340
      dxz     :     0.281706
      dyz     :     0.346820
      dx2y2   :     0.198581
      dxy     :     0.331315
      f0      :     0.048364  f :     0.309961
      f+1     :     0.041978
      f-1     :     0.046252
      f+2     :     0.042876
      f-2     :     0.059585
      f+3     :     0.041628
      f-3     :     0.029277

 12 S s       :     5.534653  s :     5.534653
      pz      :     3.290332  p :    10.446953
      px      :     3.603124
      py      :     3.553497
      dz2     :     0.048575  d :     0.114295
      dxz     :     0.017413
      dyz     :     0.038928
      dx2y2   :     0.004932
      dxy     :     0.004447
      f0      :     0.003819  f :     0.014495
      f+1     :     0.001997
      f-1     :     0.005804
      f+2     :     0.001237
      f-2     :     0.001344
      f+3     :     0.000161
      f-3     :     0.000133

[...]
13 O  pz              0.0       0.3       0.0       0.0       0.0       0.0
13 O  py              0.0       0.2       0.0       0.0       0.0       0.0
13 O  dyz             0.0       0.2       0.0       0.0       0.0       0.0
16 O  s               0.0       0.6       0.0       0.0       0.0       0.0
16 O  px              0.0       0.3       0.0       0.0       0.0       0.0
16 O  py              0.0       0.1       0.0       0.0       0.0       0.0
16 O  dxy             0.0       0.1       0.0       0.0       0.0       0.0

                    744       745       746       747       748       749   
                  20.58732  20.67652  20.71281  20.72043  20.72614  20.76771
                   0.00000   0.00000   0.00000   0.00000   0.00000   0.00000
                  --------  --------  --------  --------  --------  --------
 0 C  s               3.0       0.3       4.1      39.6      13.7       0.1
 1 C  s               0.3       0.1       4.9      23.0       9.7       0.0
 6 C  s               1.0       0.0      12.8       0.3       2.7       0.2
 7 C  s               0.0       0.3      66.9       0.5      14.2       0.0
 8 S  s               0.8       0.0       0.0       0.0       0.0       0.0
 9 C  s              92.1       0.4       0.9       1.9       0.4       0.1
 9 C  pz              0.2       0.0       0.0       0.0       0.0       0.0
10 S  s               0.7       0.0       0.0       0.0       0.0       0.0
14 C  s               0.0       0.2       3.9      11.3      18.0       1.3
15 C  s               0.0       0.8       4.3      20.5      39.3       0.7
17 C  s               0.4      32.8       0.1       0.1       0.2      63.1
18 C  s               0.2      63.3       0.3       1.1       0.0      33.1
20 H  s               0.0       0.0       0.0       0.1       0.0       0.0
21 H  s               0.0       0.0       0.0       0.1       0.0       0.0
26 H  s               0.0       0.0       0.2       0.0       0.0       0.0
27 H  s               0.0       0.0       0.2       0.0       0.0       0.0
28 H  s               0.0       0.0       0.2       0.0       0.0       0.0
29 H  s               0.3       0.0       0.0       0.0       0.0       0.0
30 H  s               0.3       0.0       0.0       0.0       0.0       0.0
34 H  s               0.0       0.0       0.0       0.1       0.1       0.0
35 H  s               0.0       0.0       0.0       0.1       0.1       0.0
36 H  s               0.0       0.1       0.0       0.0       0.0       0.1
37 H  s               0.0       0.1       0.0       0.0       0.0       0.1
38 H  s               0.0       0.2       0.0       0.0       0.0       0.1
39 H  s               0.0       0.2       0.0       0.0       0.0       0.1
40 H  s               0.0       0.2       0.0       0.0       0.0       0.1

                    750       751       752       753       754       755   
                  20.79412  20.80408  20.81273  41.49156  41.60127  41.63176
                   0.00000   0.00000   0.00000   0.00000   0.00000   0.00000
                  --------  --------  --------  --------  --------  --------
 0 C  s               0.9      22.4      14.4       0.0       0.0       0.0
 1 C  s               1.8      35.3      23.1       0.0       0.0       0.0
 2 O  s               0.0       0.0       0.0      53.3       1.4       0.1
 5 O  s               0.0       0.0       0.0      45.3       0.1       0.1
 6 C  s               0.9      29.5      51.1       0.0       0.0       0.0
 7 C  s               1.0       6.9       8.6       0.0       0.0       0.0
 9 C  s               0.0       0.0       1.3       0.0       0.0       0.0
13 O  s               0.1       0.0       0.0       0.3      57.5      41.8
14 C  s              60.1       3.6       0.0       0.0       0.0       0.0
15 C  s              31.9       1.0       0.0       0.0       0.0       0.0
16 O  s               0.0       0.0       0.0       0.9      40.9      57.8
17 C  s               1.6       0.0       0.1       0.0       0.0       0.0
18 C  s               0.5       0.0       0.0       0.0       0.0       0.0
24 H  s               0.0       0.1       0.1       0.0       0.0       0.0
25 H  s               0.0       0.1       0.1       0.0       0.0       0.0
31 H  s               0.1       0.0       0.0       0.0       0.0       0.0
32 H  s               0.1       0.0       0.0       0.0       0.0       0.0

                    756   
                  41.71308
                   0.00000
                  --------
 2 O  s              45.1
 5 O  s              54.3
13 O  s               0.3
16 O  s               0.1


                      *****************************
                      * MAYER POPULATION ANALYSIS *
                      *****************************

  NA   - Mulliken gross atomic population
  ZA   - Total nuclear charge
  QA   - Mulliken gross atomic charge
  VA   - Mayer's total valence
  BVA  - Mayer's bonded valence
  FA   - Mayer's free valence

  ATOM       NA         ZA         QA         VA         BVA        FA
  0 C      6.3453     6.0000    -0.3453     3.8827     3.8827    -0.0000
  1 C      6.0448     6.0000    -0.0448     3.8797     3.8797    -0.0000
  2 O      8.3036     8.0000    -0.3036     2.1188     2.1188    -0.0000
  3 P     14.4160    15.0000     0.5840     5.4865     5.4865     0.0000
  4 S     16.4101    16.0000    -0.4101     2.0483     2.0483     0.0000
  5 O      8.2902     8.0000    -0.2902     2.1294     2.1294    -0.0000
  6 C      6.0614     6.0000    -0.0614     3.8517     3.8517    -0.0000
  7 C      6.3122     6.0000    -0.3122     3.9194     3.9194    -0.0000
  8 S     16.1040    16.0000    -0.1040     2.2748     2.2748     0.0000
  9 C      6.1963     6.0000    -0.1963     3.9192     3.9192     0.0000
 10 S     16.1306    16.0000    -0.1306     2.2798     2.2798     0.0000
 11 P     14.3898    15.0000     0.6102     5.4197     5.4197    -0.0000
 12 S     16.4153    16.0000    -0.4153     2.0155     2.0155     0.0000
 13 O      8.2961     8.0000    -0.2961     2.1181     2.1181    -0.0000
 14 C      6.0522     6.0000    -0.0522     3.8915     3.8915     0.0000
 15 C      6.3175     6.0000    -0.3175     3.8833     3.8833     0.0000
 16 O      8.3081     8.0000    -0.3081     2.1209     2.1209     0.0000
 17 C      6.0553     6.0000    -0.0553     3.8649     3.8649    -0.0000
 18 C      6.3143     6.0000    -0.3143     3.9246     3.9246    -0.0000
 19 H      0.8785     1.0000     0.1215     0.9755     0.9755    -0.0000
 20 H      0.8910     1.0000     0.1090     0.9741     0.9741    -0.0000
 21 H      0.8557     1.0000     0.1443     0.9796     0.9796    -0.0000
 22 H      0.8680     1.0000     0.1320     0.9852     0.9852    -0.0000
 23 H      0.8830     1.0000     0.1170     0.9621     0.9621    -0.0000
 24 H      0.8713     1.0000     0.1287     0.9768     0.9768     0.0000
 25 H      0.8802     1.0000     0.1198     0.9783     0.9783     0.0000
 26 H      0.8916     1.0000     0.1084     0.9758     0.9758    -0.0000
 27 H      0.8812     1.0000     0.1188     0.9850     0.9850    -0.0000
 28 H      0.8819     1.0000     0.1181     0.9766     0.9766    -0.0000
 29 H      0.8375     1.0000     0.1625     0.9815     0.9815     0.0000
 30 H      0.8220     1.0000     0.1780     0.9782     0.9782     0.0000
 31 H      0.8827     1.0000     0.1173     0.9607     0.9607     0.0000
 32 H      0.8661     1.0000     0.1339     0.9801     0.9801     0.0000
 33 H      0.8815     1.0000     0.1185     0.9735     0.9735     0.0000
 34 H      0.8765     1.0000     0.1235     0.9894     0.9894    -0.0000
 35 H      0.8835     1.0000     0.1165     0.9782     0.9782     0.0000
 36 H      0.8728     1.0000     0.1272     0.9750     0.9750     0.0000
 37 H      0.8858     1.0000     0.1142     0.9715     0.9715     0.0000
 38 H      0.8852     1.0000     0.1148     0.9748     0.9748    -0.0000
 39 H      0.8800     1.0000     0.1200     0.9765     0.9765     0.0000
 40 H      0.8807     1.0000     0.1193     0.9764     0.9764    -0.0000

  Mayer bond orders larger than 0.100000
B(  0-C ,  1-C ) :   0.9936 B(  0-C , 19-H ) :   0.9662 B(  0-C , 20-H ) :   0.9725 
B(  0-C , 21-H ) :   0.9681 B(  1-C ,  2-O ) :   0.8808 B(  1-C , 22-H ) :   0.9743 
B(  1-C , 23-H ) :   0.9673 B(  2-O ,  3-P ) :   1.2026 B(  3-P ,  4-S ) :   1.8527 
B(  3-P ,  5-O ) :   1.2190 B(  3-P ,  8-S ) :   1.0835 B(  5-O ,  6-C ) :   0.8743 
B(  6-C ,  7-C ) :   1.0040 B(  6-C , 24-H ) :   0.9648 B(  6-C , 25-H ) :   0.9620 
B(  7-C , 26-H ) :   0.9703 B(  7-C , 27-H ) :   0.9759 B(  7-C , 28-H ) :   0.9749 
B(  8-S ,  9-C ) :   0.9957 B(  9-C , 10-S ) :   1.0079 B(  9-C , 29-H ) :   0.9380 
B(  9-C , 30-H ) :   0.9348 B( 10-S , 11-P ) :   1.0844 B( 11-P , 12-S ) :   1.7960 
B( 11-P , 13-O ) :   1.2105 B( 11-P , 16-O ) :   1.1866 B( 13-O , 14-C ) :   0.8776 
B( 14-C , 15-C ) :   1.0042 B( 14-C , 31-H ) :   0.9661 B( 14-C , 32-H ) :   0.9743 
B( 15-C , 33-H ) :   0.9667 B( 15-C , 34-H ) :   0.9683 B( 15-C , 35-H ) :   0.9695 
B( 16-O , 17-C ) :   0.8821 B( 17-C , 18-C ) :   1.0065 B( 17-C , 36-H ) :   0.9651 
B( 17-C , 37-H ) :   0.9631 B( 18-C , 38-H ) :   0.9703 B( 18-C , 39-H ) :   0.9748 
B( 18-C , 40-H ) :   0.9753 

-------
TIMINGS
-------

Total SCF time: 0 days 0 hours 13 min 51 sec 

Total time                  ....     831.201 sec
Sum of individual times     ....     819.438 sec  ( 98.6%)

SCF preparation             ....       0.548 sec  (  0.1%)
Fock matrix formation       ....     813.797 sec  ( 97.9%)
  Startup                   ....       0.224 sec  (  0.0% of F)
  Split-RI-J                ....      32.509 sec  (  4.0% of F)
  Chain of spheres X        ....     748.332 sec  ( 92.0% of F)
  XC integration            ....      42.660 sec  (  5.2% of F)
    XC Preparation          ....       0.000 sec  (  0.0% of XC)
    Basis function eval.    ....       8.776 sec  ( 20.6% of XC)
    Density eval.           ....       9.366 sec  ( 22.0% of XC)
    XC-Functional eval.     ....      12.429 sec  ( 29.1% of XC)
    XC-Potential eval.      ....      11.014 sec  ( 25.8% of XC)
Diagonalization             ....       0.000 sec  (  0.0%)
Density matrix formation    ....       0.753 sec  (  0.1%)
Total Energy calculation    ....       0.144 sec  (  0.0%)
Population analysis         ....       0.776 sec  (  0.1%)
Orbital Transformation      ....       0.428 sec  (  0.1%)
Orbital Orthonormalization  ....       0.000 sec  (  0.0%)
DIIS solution               ....       1.493 sec  (  0.2%)
  MO trafo                  ....       0.000 sec  (  0.0 % of DIIS)
  Orb grad                  ....       0.000 sec  (  0.0 % of DIIS)
  Energy W gradient         ....       0.000 sec  (  0.0 % of DIIS)
  DIIS error                ....       0.171 sec  ( 11.5 % of DIIS)
  DIIS work                 ....       1.083 sec  ( 72.5 % of DIIS)
  Form Q                    ....       0.000 sec  (  0.0 % of DIIS)
  Form QpQm                 ....       0.000 sec  (  0.0 % of DIIS)
  Exp/Cayley                ....       0.000 sec  (  0.0 % of DIIS)
  Orb update                ....       0.000 sec  (  0.0 % of DIIS)
  Wake-sleep                ....       0.018 sec  (  1.2 % of DIIS)
SOSCF solution              ....       0.900 sec  (  0.1%)
  MO trafo                  ....       0.409 sec  ( 45.4 % of SOSCF)
  Orb grad                  ....       0.033 sec  (  3.7 % of SOSCF)
  Rot update                ....       0.102 sec  ( 11.3 % of SOSCF)
  Step                      ....       0.356 sec  ( 39.5 % of SOSCF)
Grid generation             ....       0.597 sec  (  0.1%)
Finished LeanSCF after 831.3 sec

Maximum memory used throughout the entire LEANSCF-calculation: 146.6 MB
------------------   -----------------
gCP correction             0.029671558
------------------   -----------------

-------------------------   --------------------
FINAL SINGLE POINT ENERGY     -2932.538925833100
-------------------------   --------------------


------------------------------------------------------------------------------
                              ORCA PROPERTY CALCULATIONS
------------------------------------------------------------------------------

GBWName                                 ... sp_gas.gbw
Number of atoms                         ...     41
Number of basis functions               ...    757
Max core memory                         ...   1024 MB

Electric properties:
Dipole moment                           ... YES
Quadrupole moment                       ...  NO
Static polarizability (Dipole/Dipole)   ...  NO
Static polarizability (Dipole/Quad.)    ...  NO
Static polarizability (Quad./Quad.)     ...  NO
Static polarizability (Velocity)        ...  NO

Atomic electric properties:
Dipole moment                           ...  NO
Quadrupole moment                       ...  NO
Static polarizability                   ...  NO

Choice of electric origin               ... Center of mass
Position of electric origin             ...     0.172035     0.190250     0.023446

General magnetic properties:
Magnetizability                         ...  NO

EPR properties:
g-Tensor (aka g-matrix)                 ...  NO
Zero-Field splitting spin-orbit         ...  NO
Zero-field splitting spin-spin          ...  NO
Hyperfine couplings                     ...  NO (   0 nuclei)
Quadrupole couplings                    ...  NO (   0 nuclei)
Contact density                         ...  NO (   0 nuclei)

NMR properties:
Chemical shifts                         ...  NO (   0 nuclei)
Spin-rotation constants                 ...  NO (   0 nuclei)
Spin-spin couplings                     ...  NO (   0 nuclei,    0 pairs)

Choice of magnetic origin               ... GIAO
Position of magnetic origin             ...     0.000000     0.000000     0.000000

Properties with geometric perturbations:
SCF Hessian                             ...  NO
IR spectrum                             ...  NO
VCD spectrum                            ...  NO
X-ray spectroscopy properties:
SCF XES/XAS/RIXS spectra                ...  NO


-------------
DIPOLE MOMENT
-------------

Method             : SCF
Type of density    : Electron Density
Multiplicity       :   1
Irrep              :   0
Energy             : -2932.5685973913996349 Eh
Relativity type    : 
Basis              : AO
                                X                 Y                 Z
Electronic contribution:     12.487076860       5.590947599      -6.342364283
Nuclear contribution   :    -13.596732123      -6.670498753       6.418181957
                        -----------------------------------------
Total Dipole Moment    :     -1.109655263      -1.079551154       0.075817674
                        -----------------------------------------
Magnitude (a.u.)       :      1.550004456
Magnitude (Debye)      :      3.939798227



--------------------
Rotational spectrum 
--------------------
 
Rotational constants in cm-1:             0.012559             0.004233             0.004053 
Rotational constants in MHz :           376.501696           126.902081           121.502843 

Dipole components along the rotational axes: 
x,y,z [a.u.] :    -1.193095     0.298413    -0.943392 
x,y,z [Debye]:    -3.032607     0.758505    -2.397911 

 

Dipole moment calculation done in   0.1 sec 

Maximum memory used throughout the entire PROP-calculation: 97.7 MB

--------------------------------
SUGGESTED CITATIONS FOR THIS RUN
--------------------------------

Below you find a list of papers that are relevant to this ORCA run
We neither can nor want to force you to cite these papers, but we appreciate if you do
You receive ORCA, which is the product of decades of hard work by many enthusiastic individuals, for free
The only thing we kindly ask in return is that you cite our papers,
We deeply appreciate it, if you show your appreciation for ORCA by not just citing the generic ORCA reference.

Please note that relegating all ORCA citations to the supporting information does *not* help us.
SI sections are not indexed - citations you put there will not count into any citation statistics
But we need these citations in order to attract the funding resources that allow us to do what we are doing

Therefore, if you are a happy ORCA user, please consider citing a few of the papers listed below in the main body of your paper

In addition to the list printed below, the program has created the file sp_gas.bibtex that contains the list in bibtex format
You can import this file easily into all common literature databanks and citation aid programs


List of essential papers. We consider these as the minimum necessary citations

  1. Neese,F.
     Software update: the ORCA program system, version 5.0
     WIRES Comput. Molec. Sci., 2022 12(1)e1606
     doi.org/10.1002/wcms.1606

List of papers to cite with high priority. The work reported in these papers was absolutely
necessary for this run to complete.
Our perspective: the developers of density functionals and basis sets usually get cited in chemistry papers
Good! But without the algorithms to do something with them, the functionals or basis sets would not do anything.
Hence, in our opinion, the algorithm design and method developments papers are equally worthy of getting cited

  1. Neese,F.
     An improvement of the resolution of the identity approximation for the formation of the Coulomb matrix
     J. Comp. Chem., 2003 24(14)1740-1747
     doi.org/10.1002/jcc.10318
  2. Neese,F.; Wennmohs,F.; Hansen,A.; Becker,U.
     Efficient, approximate and parallel Hartree-Fock and hybrid DFT calculations. A 'chain-of-spheres' algorithm for the Hartree-Fock exchange
     Chem. Phys., 2009 356(1-3)98-109
     doi.org/10.1016/j.chemphys.2008.10.036
  3. Helmich-Paris,B.; de Souza,B.; Neese,F.; Izsák,R.
     An improved chain of spheres for exchange algorithm
     J. Chem. Phys., 2021 155 104109
     doi.org/doi: 10.1063/5.0058766.
  4. Neese,F.
     The SHARK Integral Generation and Digestion System
     J. Comp. Chem., 2022  1-16
     doi.org/10.1002/jcc.26942

List of suggested additional citations. These are papers that are important in the 'surrounding' of 
of this run, or papers that preceded the highly important papers. If you like your results we are grateful for a citation.

  1. Izsak,R.; Neese,F.
     An overlap fitted chain of spheres exchange method
     J. Chem. Phys., 2011 135 144105
     doi.org/10.1063/1.3646921
  2. Izsak,R.; Hansen,A.; Neese,F.
     The resolution of identity and chain of spheres approximations for the LPNO-CCSD singles Fock term
     Molec. Phys., 2012 110 2413-2417
     doi.org/10.1080/00268976.2012.687466
  3. Neese,F.
     The ORCA program system
     WIRES Comput. Molec. Sci., 2012 2(1)73-78
     doi.org/10.1002/wcms.81
  4. Izsak,R.; Neese,F.; Klopper,W.
     Robust fitting techniques in the chain of spheres approximation to the Fock exchange: The role of the complementary space
     J. Chem. Phys., 2013 139 
     doi.org/10.1063/1.4819264
  5. Neese,F.
     Software update: the ORCA program system, version 4.0
     WIRES Comput. Molec. Sci., 2018 8(1)1-6
     doi.org/10.1002/wcms.1327
  6. Neese,F.; Wennmohs,F.; Becker,U.; Riplinger,C.
     The ORCA quantum chemistry program package
     J. Chem. Phys., 2020 152 Art. No. L224108
     doi.org/10.1063/5.0004608

List of optional additional citations

  1. Neese,F.
     Approximate second-order SCF convergence for spin unrestricted wavefunctions
     Chem. Phys. Lett., 2000 325(1-3)93-98
     doi.org/10.1016/s0009-2614(00)00662-x

Timings for individual modules:

Sum of individual times          ...      840.051 sec (=  14.001 min)
Startup calculation              ...        7.575 sec (=   0.126 min)   0.9 %
SCF iterations                   ...      832.247 sec (=  13.871 min)  99.1 %
Property calculations            ...        0.229 sec (=   0.004 min)   0.0 %
                             ****ORCA TERMINATED NORMALLY****
TOTAL RUN TIME: 0 days 0 hours 14 minutes 0 seconds 733 msec
