41
 energy: -2932.483855278222 gnorm: 0.001324143895 xtb: 6.7.1 (edcfbbe)
C            5.72286218368244       -0.07507195023573       -0.37120304850188
C            4.59003920901350       -1.04047580247069       -0.13063437995039
O            3.45707482236065       -0.31588102947620        0.46876552204039
P            2.10540285214388       -0.04285074080517       -0.36472533304029
S            2.28994361309326        0.49916255702691       -2.22626605865466
O            1.35130799706966        0.97236223389471        0.61906961268762
C            1.42451061412290        2.43018605947749        0.44797746621966
C            2.74910268885718        2.97463137297759        0.92270931297230
S            1.10078772839106       -1.87526168976982       -0.02261044655542
C           -0.27480732464028       -1.80687962109945       -1.25515246798930
S           -1.95414028503450       -1.92817610919681       -0.53185225065075
P           -2.37153769100416        0.10928790600370       -0.07084828737856
S           -1.95948622187354        1.39327777205126       -1.46765440629242
O           -1.59740434020476        0.46412349476331        1.28732862918808
C           -1.83660547056583       -0.27710380520079        2.53600389181185
C           -0.62353880963899       -0.09625319544299        3.41025812666428
O           -3.89255950543304       -0.03719087054835        0.43124314560413
C           -5.05493694187242        0.22821664918705       -0.43206367744670
C           -5.33917351838909       -0.91608119738238       -1.37168282932204
H            5.44153759639875        0.68181759754960       -1.10873726502360
H            6.01451888610939        0.42172620093485        0.55868653663769
H            6.58744017566393       -0.62776891805294       -0.75312774819993
H            4.85417370161377       -1.81010278838435        0.59853000704905
H            4.26639683244855       -1.52632776443910       -1.05629630878238
H            1.23398562132605        2.66329646228569       -0.60368995342102
H            0.59213191573751        2.79897743047608        1.05116297409854
H            2.94257006370217        2.68315367341617        1.95911141563419
H            3.57508428780362        2.62689988279139        0.29441096788172
H            2.71785016704872        4.06794628020731        0.87061106798396
H           -0.17437854359527       -2.67821816014963       -1.90661624234652
H           -0.18575535735048       -0.89802761120919       -1.86083155596205
H           -2.73874932869966        0.13855548315059        2.99297575239547
H           -2.00560860669456       -1.33258740282702        2.29872363563749
H           -0.42078034546914        0.96455224808175        3.58419780784953
H           -0.81361298619424       -0.57386730048772        4.37670823763650
H            0.25870329038117       -0.56048490800772        2.96092604824162
H           -5.86902231123986        0.37456033199680        0.28025579413117
H           -4.87401448536664        1.16494593532938       -0.96713838495470
H           -5.45160510154820       -1.85649710725209       -0.82366092457741
H           -6.27951465641212       -0.70720386016826       -1.89296037331347
H           -4.55284845187647       -1.03003147405150       -2.12300411869963
41
 energy: -2932.483857206505 gnorm: 0.001168549068 xtb: 6.7.1 (edcfbbe)
C            5.72310461356704       -0.07608783912755       -0.37058633325157
C            4.59015929586111       -1.04143209136991       -0.13103277896199
O            3.45663824592943       -0.31666862258420        0.46675816832300
P            2.10694420522415       -0.04299144396148       -0.36942601132665
S            2.29696108312582        0.50660135673091       -2.22858469514013
O            1.35138113186766        0.97014130778273        0.61575393875621
C            1.42469413205304        2.42895373450191        0.44705895576658
C            2.74883875543820        2.97388618743732        0.92263732046486
S            1.10094957475118       -1.87300230127505       -0.01955910411255
C           -0.27299025304512       -1.80506266387947       -1.25398063498848
S           -1.95438908666402       -1.92660187387280       -0.53614797044647
P           -2.37205903034637        0.10961379511053       -0.07011230381898
S           -1.96387488650421        1.39171836707422       -1.46933575963764
O           -1.59822708449132        0.46472418520656        1.28799790529293
C           -1.83708540081651       -0.27803959178276        2.53671726345193
C           -0.62439382621031       -0.09492738886035        3.41170643563716
O           -3.89279306885911       -0.03843612982755        0.43139378202443
C           -5.05542945094957        0.22780744486706       -0.43123003337255
C           -5.34075541853785       -0.91609522617144       -1.37100458560266
H            5.44242364847529        0.68070496040136       -1.10838860212775
H            6.01384009199593        0.42081467146304        0.55946064446178
H            6.58796026405437       -0.62878346901420       -0.75173911166861
H            4.85318503052277       -1.81099381263215        0.59847399662191
H            4.26656066496041       -1.52660842785352       -1.05691627777457
H            1.23446146170697        2.66319424634638       -0.60442523518703
H            0.59198738291454        2.79738123881327        1.05003035638322
H            2.94179730924765        2.68270743780027        1.95916067122934
H            3.57534541798096        2.62625495255789        0.29498391022489
H            2.71794935434179        4.06714219713078        0.87051687004843
H           -0.17219254078477       -2.67664611910080       -1.90497233385446
H           -0.18212012950350       -0.89744782465773       -1.86099719675233
H           -2.74030905527661        0.13581239804072        2.99356931509719
H           -2.00375055477376       -1.33385208050253        2.29810243645567
H           -0.42467359483477        0.96634280708171        3.58638201199780
H           -0.81213163882329       -0.57374024790287        4.37777003210245
H            0.25865515625112       -0.55655577063115        2.96171971756930
H           -5.86913130519408        0.37494298846980        0.28141105989556
H           -4.87437284119998        1.16456082167046       -0.96642882805641
H           -5.45373601821092       -1.85605358562457       -0.82315550951147
H           -6.28029888714588       -0.70735017568122       -1.89314425607273
H           -4.55377264878906       -1.03060081129154       -2.12155710946552
41
 energy: -2932.483865208374 gnorm: 0.000651039817 xtb: 6.7.1 (edcfbbe)
C            5.72439162789804       -0.07686248557073       -0.37009696777733
C            4.59112257681514       -1.04159208482321       -0.13030672407329
O            3.45853187232126       -0.31572144127194        0.46783384632901
P            2.10894651728278       -0.04210915189967       -0.36837286784565
S            2.29781743915470        0.50346233903931       -2.22857769582467
O            1.35222903553189        0.97100163492539        0.61623630961824
C            1.42507560794180        2.42987789107968        0.44676674391578
C            2.74920791102524        2.97434573250033        0.92271668409026
S            1.10231877906151       -1.87277911451901       -0.02492942537332
C           -0.27369263835495       -1.80520296920417       -1.25657776074082
S           -1.95328408135447       -1.92684399536329       -0.53510501948843
P           -2.37268835717577        0.10949147245653       -0.07050812596953
S           -1.96672576393466        1.39401372385095       -1.46819287207788
O           -1.59889604029737        0.46449659924370        1.28754332252348
C           -1.83731186091355       -0.27918173322815        2.53645825365856
C           -0.62527842989511       -0.09366962898795        3.41217227796018
O           -3.89306125319399       -0.03992280419183        0.43113933708986
C           -5.05607920791574        0.22746255117800       -0.43048023393284
C           -5.34211701362404       -0.91623095023450       -1.37028787060558
H            5.44387201648548        0.67975127697848       -1.10812829335611
H            6.01479974817963        0.42022992668237        0.55992084268661
H            6.58920157469718       -0.62982878153761       -0.75088230153463
H            4.85369113339141       -1.81123189858911        0.59921672262219
H            4.26711382388429       -1.52665302815506       -1.05611329369398
H            1.23505392485178        2.66364934764202       -0.60487040892205
H            0.59208016863240        2.79801910489937        1.04950365525011
H            2.94157350057525        2.68350138714627        1.95944222879490
H            3.57586565476195        2.62610476554490        0.29558462415910
H            2.71870298052709        4.06754653459491        0.87012199161591
H           -0.17363230353712       -2.67670777812847       -1.90766060803388
H           -0.18317356269462       -0.89753314714892       -1.86345548862130
H           -2.74158291603073        0.13304693031255        2.99281397721068
H           -2.00178934066993       -1.33523964540750        2.29718600707280
H           -0.42847393497410        0.96802843302380        3.58764478236129
H           -0.81170692190277       -0.57360245453397        4.37788265491644
H            0.25893539387323       -0.55277250745617        2.96200936192479
H           -5.86926248284098        0.37508340685224        0.28267558235334
H           -4.87475358689304        1.16421772220428       -0.96564058105355
H           -5.45577229683752       -1.85600695301503       -0.82249092542561
H           -6.28116011308577       -0.70709485900470       -1.89296979320875
H           -4.55473125934033       -1.03122761477352       -2.12036689821196
41
 energy: -2932.483868661353 gnorm: 0.000797145369 xtb: 6.7.1 (edcfbbe)
C            5.72546326842942       -0.07830907940985       -0.36909622818632
C            4.59106680430675       -1.04193726166782       -0.12976342344331
O            3.45831508540775       -0.31554694089627        0.46796846920544
P            2.10878058987317       -0.04221185411745       -0.36820163839834
S            2.29903068169595        0.50306060120380       -2.22824127619279
O            1.35187541390943        0.97206830514212        0.61538867500888
C            1.42583688420446        2.43088749476756        0.44551058841782
C            2.74978031108517        2.97456323930915        0.92259388737582
S            1.10448585302161       -1.87555843646638       -0.02789790538755
C           -0.27155163884526       -1.80354117135205       -1.25930700040678
S           -1.94981735535433       -1.92614916163002       -0.53533357728364
P           -2.37393193248099        0.10941370446993       -0.07071860498391
S           -1.96814103896399        1.39621687982063       -1.46673767661663
O           -1.59967979121116        0.46403395816429        1.28714465151515
C           -1.83719125766541       -0.28097900872607        2.53590357443411
C           -0.62652326592417       -0.09143373005110        3.41243839412528
O           -3.89383668428119       -0.04229128270593        0.43128107253787
C           -5.05730212639321        0.22671285952462       -0.42899331369592
C           -5.34431888139349       -0.91664164095229       -1.36892161322470
H            5.44602710673368        0.67817473391795       -1.10768294676547
H            6.01544320379354        0.41904660494078        0.56093288862608
H            6.59041247449205       -0.63180394417256       -0.74889025005075
H            4.85319810526692       -1.81171689445962        0.59980173444832
H            4.26800440450690       -1.52740543658975       -1.05572664955812
H            1.23654892198030        2.66463878162046       -0.60624187689183
H            0.59252082565533        2.79887767822894        1.04790497778260
H            2.94087996902862        2.68395479385853        1.95963976280287
H            3.57678079369186        2.62555356648170        0.29636305172656
H            2.71984680720693        4.06779499779122        0.86949042376963
H           -0.17269879616704       -2.67460181747600       -1.91127778865108
H           -0.18206980760155       -0.89516780305201       -1.86540526401595
H           -2.74329508279389        0.12850959619757        2.99088977563614
H           -1.99798585363972       -1.33727273271311        2.29583487621457
H           -0.43436935334840        0.97086800390938        3.58938832142174
H           -0.81209255798837       -0.57339423294280        4.37740868751142
H            0.26003124584228       -0.54624580351614        2.96233155237363
H           -5.86979765304796        0.37470431205358        0.28486394114603
H           -4.87549856075161        1.16345679233022       -0.96394429370901
H           -5.45929583540046       -1.85647166884222       -0.82114095310817
H           -6.28289195715305       -0.70612392754747       -1.89209634742180
H           -4.55666858258870       -1.03243632776671       -2.11864626538281
41
 energy: -2932.483868661353 gnorm: 0.000797145369 xtb: 6.7.1 (edcfbbe)
C            5.72546326842942       -0.07830907940985       -0.36909622818632
C            4.59106680430675       -1.04193726166782       -0.12976342344331
O            3.45831508540775       -0.31554694089627        0.46796846920544
P            2.10878058987317       -0.04221185411745       -0.36820163839834
S            2.29903068169595        0.50306060120380       -2.22824127619279
O            1.35187541390943        0.97206830514212        0.61538867500888
C            1.42583688420446        2.43088749476756        0.44551058841782
C            2.74978031108517        2.97456323930915        0.92259388737582
S            1.10448585302161       -1.87555843646638       -0.02789790538755
C           -0.27155163884526       -1.80354117135205       -1.25930700040678
S           -1.94981735535433       -1.92614916163002       -0.53533357728364
P           -2.37393193248099        0.10941370446993       -0.07071860498391
S           -1.96814103896399        1.39621687982063       -1.46673767661663
O           -1.59967979121116        0.46403395816429        1.28714465151515
C           -1.83719125766541       -0.28097900872607        2.53590357443411
C           -0.62652326592417       -0.09143373005110        3.41243839412528
O           -3.89383668428119       -0.04229128270593        0.43128107253787
C           -5.05730212639321        0.22671285952462       -0.42899331369592
C           -5.34431888139349       -0.91664164095229       -1.36892161322470
H            5.44602710673368        0.67817473391795       -1.10768294676547
H            6.01544320379354        0.41904660494078        0.56093288862608
H            6.59041247449205       -0.63180394417256       -0.74889025005075
H            4.85319810526692       -1.81171689445962        0.59980173444832
H            4.26800440450690       -1.52740543658975       -1.05572664955812
H            1.23654892198030        2.66463878162046       -0.60624187689183
H            0.59252082565533        2.79887767822894        1.04790497778260
H            2.94087996902862        2.68395479385853        1.95963976280287
H            3.57678079369186        2.62555356648170        0.29636305172656
H            2.71984680720693        4.06779499779122        0.86949042376963
H           -0.17269879616704       -2.67460181747600       -1.91127778865108
H           -0.18206980760155       -0.89516780305201       -1.86540526401595
H           -2.74329508279389        0.12850959619757        2.99088977563614
H           -1.99798585363972       -1.33727273271311        2.29583487621457
H           -0.43436935334840        0.97086800390938        3.58938832142174
H           -0.81209255798837       -0.57339423294280        4.37740868751142
H            0.26003124584228       -0.54624580351614        2.96233155237363
H           -5.86979765304796        0.37470431205358        0.28486394114603
H           -4.87549856075161        1.16345679233022       -0.96394429370901
H           -5.45929583540046       -1.85647166884222       -0.82114095310817
H           -6.28289195715305       -0.70612392754747       -1.89209634742180
H           -4.55666858258870       -1.03243632776671       -2.11864626538281
