      -----------------------------------------------------------      
     |                   =====================                   |     
     |                           x T B                           |     
     |                   =====================                   |     
     |                         S. Grimme                         |     
     |          Mulliken Center for Theoretical Chemistry        |     
     |                    University of Bonn                     |     
      -----------------------------------------------------------      

   * xtb version 6.7.1 (edcfbbe) compiled by 'albert@albert-system' on 2024-07-22

   xtb is free software: you can redistribute it and/or modify it under
   the terms of the GNU Lesser General Public License as published by
   the Free Software Foundation, either version 3 of the License, or
   (at your option) any later version.
   
   xtb is distributed in the hope that it will be useful,
   but WITHOUT ANY WARRANTY; without even the implied warranty of
   MERCHANTABILITY or FITNESS FOR A PARTICULAR PURPOSE.  See the
   GNU Lesser General Public License for more details.
   
   Cite this work as:
   * C. Bannwarth, E. Caldeweyher, S. Ehlert, A. Hansen, P. Pracht,
     J. Seibert, S. Spicher, S. Grimme, WIREs Comput. Mol. Sci., 2020, 11,
     e01493. DOI: 10.1002/wcms.1493
   
   for GFN2-xTB:
   * C. Bannwarth, S. Ehlert and S. Grimme., J. Chem. Theory Comput., 2019,
     15, 1652-1671. DOI: 10.1021/acs.jctc.8b01176
   for GFN1-xTB:
   * S. Grimme, C. Bannwarth, P. Shushkov, J. Chem. Theory Comput., 2017,
     13, 1989-2009. DOI: 10.1021/acs.jctc.7b00118
   for GFN0-xTB:
   * P. Pracht, E. Caldeweyher, S. Ehlert, S. Grimme, ChemRxiv, 2019, preprint.
     DOI: 10.26434/chemrxiv.8326202.v1
   for GFN-FF:
   * S. Spicher and S. Grimme, Angew. Chem. Int. Ed., 2020, 59, 15665-15673.
     DOI: 10.1002/anie.202004239
   
   for ALPB and GBSA implicit solvation:
   * S. Ehlert, M. Stahn, S. Spicher, S. Grimme, J. Chem. Theory Comput.,
     2021, 17, 4250-4261. DOI: 10.1021/acs.jctc.1c00471
   
   for ddCOSMO and CPCM-X implicit solvation:
   * M. Stahn, S. Ehlert, S. Grimme, J. Phys. Chem. A,
     2023, XX, XXXX-XXXX. DOI: 10.1021/acs.jpca.3c04382
   
   for DFT-D4:
   * E. Caldeweyher, C. Bannwarth and S. Grimme, J. Chem. Phys., 2017,
     147, 034112. DOI: 10.1063/1.4993215
   * E. Caldeweyher, S. Ehlert, A. Hansen, H. Neugebauer, S. Spicher,
     C. Bannwarth and S. Grimme, J. Chem. Phys., 2019, 150, 154122.
     DOI: 10.1063/1.5090222
   * E. Caldeweyher, J.-M. Mewes, S. Ehlert and S. Grimme, Phys. Chem. Chem. Phys.
     2020, 22, 8499-8512. DOI: 10.1039/D0CP00502A
   
   for sTDA-xTB:
   * S. Grimme and C. Bannwarth, J. Chem. Phys., 2016, 145, 054103.
     DOI: 10.1063/1.4959605
   
   in the mass-spec context:
   * V. Asgeirsson, C. Bauer and S. Grimme, Chem. Sci., 2017, 8, 4879.
     DOI: 10.1039/c7sc00601b
   * J. Koopman and S. Grimme, ACS Omega 2019, 4, 12, 15120-15133.
     DOI: 10.1021/acsomega.9b02011
   
   for metadynamics refer to:
   * S. Grimme, J. Chem. Theory Comput., 2019, 155, 2847-2862
     DOI: 10.1021/acs.jctc.9b00143
   
   for SPH calculations refer to:
   * S. Spicher and S. Grimme, J. Chem. Theory Comput., 2021, 17, 1701-1714
     DOI: 10.1021/acs.jctc.0c01306
   
   for ONIOM refer to:
   * C. Plett, A. Katbashev, S. Ehlert, S. Grimme, M. Bursch,
     Phys. Chem. Chem. Phys., 2023, 25, 17860-17868. DOI: 10.1039/D3CP02178E
   
   for DIPRO refer to:
   * J. Kohn, N. Gildemeister, S. Grimme, D. Fazzi, A. Hansen,
     J. Chem. Phys., 2023, just accepted.
   
   for PTB refer to:
   * S. Grimme, M. Mueller, A. Hansen, J. Chem. Phys., 2023, 158, 124111.
     DOI: 10.1063/5.0137838
   
   with help from (in alphabetical order)
   P. Atkinson, C. Bannwarth, F. Bohle, G. Brandenburg, E. Caldeweyher
   M. Checinski, S. Dohm, S. Ehlert, S. Ehrlich, I. Gerasimov, C. Hölzer
   A. Katbashev, J. Kohn, J. Koopman, C. Lavigne, S. Lehtola, F. März, M. Müller,
   F. Musil, H. Neugebauer, J. Pisarek, C. Plett, P. Pracht, F. Pultar,
   J. Seibert, P. Shushkov, S. Spicher, M. Stahn, M. Steiner, T. Strunk,
   J. Stückrath, T. Rose, and J. Unsleber
   
 * started run on 2025/04/09 at 05:21:16.090     
   ID    Z sym.   atoms
    1    6 C      1, 2, 7, 8, 10, 15, 16, 18, 19
    2    8 O      3, 6, 14, 17
    3   15 P      4, 12
    4   16 S      5, 9, 11, 13
    5    1 H      20-41

           -------------------------------------------------
          |                Calculation Setup                |
           -------------------------------------------------

          program call               : /srv/scratch/z5358697/.xtb/bin/xtb solv.coord --gfn2 --sp --chrg 0 --norestart --parallel 1 --alpb water reference -I xtb_sp-xcontrol-inp
          hostname                   : k163
          coordinate file            : solv.coord
          omp threads                :                     1


           -------------------------------------------------
          |                 G F N 2 - x T B                 |
           -------------------------------------------------

        Reference                      10.1021/acs.jctc.8b01176
      * Hamiltonian:
        H0-scaling (s, p, d)           1.850000    2.230000    2.230000
        zeta-weighting                 0.500000
      * Dispersion:
        s8                             2.700000
        a1                             0.520000
        a2                             5.000000
        s9                             5.000000
      * Repulsion:
        kExp                           1.500000    1.000000
        rExp                           1.000000
      * Coulomb:
        alpha                          2.000000
        third order                    shell-resolved
        anisotropic                    true
        a3                             3.000000
        a5                             4.000000
        cn-shift                       1.200000
        cn-exp                         4.000000
        max-rad                        5.000000

      * Solvation model:               ALPB
        Solvent                        water
        Parameter file                 internal GFN2-xTB/ALPB
        Dielectric constant                8.0200E+01
        Reference state                gsolv=reference [X=1]
        Free energy shift                  2.8945E-03 Eh       1.8164E+00 kcal/mol
        Temperature                        2.9815E+02 K
        Density                            1.0000E+00 kg/L
        Solvent mass                       1.8000E+01 g/mol
        Interaction kernel             P16
        Born radius scaling (c1)           1.4744E+00
        Born radii integrator          GBOBC
        Born offset                        0.0000E+00 a0       0.0000E+00 AA
        H-bond correction              true
        Ion screening                  false
        Surface tension                    1.0000E-05 Eh       1.5569E+01 dyn/cm
        Grid points                               974 per atom

          ...................................................
          :                      SETUP                      :
          :.................................................:
          :  # basis functions                 134          :
          :  # atomic orbitals                 128          :
          :  # shells                           66          :
          :  # electrons                       116          :
          :  max. iterations                   250          :
          :  Hamiltonian                  GFN2-xTB          :
          :  restarted?                      false          :
          :  GBSA solvation                   true          :
          :  PC potential                    false          :
          :  electronic temp.          300.0000000     K    :
          :  accuracy                    1.0000000          :
          :  -> integral cutoff          0.2500000E+02      :
          :  -> integral neglect         0.1000000E-07      :
          :  -> SCF convergence          0.1000000E-05 Eh   :
          :  -> wf. convergence          0.1000000E-03 e    :
          :  Broyden damping             0.4000000          :
          :  net charge                          0          :
          :  unpaired electrons                  0          :
          ...................................................

 iter      E             dE          RMSdq      gap      omega  full diag
   1    -65.4407150 -0.654407E+02  0.646E+00    4.29       0.0  T
   2    -65.5614726 -0.120758E+00  0.367E+00    3.63       1.0  T
   3    -65.5815924 -0.201198E-01  0.111E+00    3.18       1.0  T
   4    -65.5843422 -0.274984E-02  0.515E-01    3.15       1.0  T
   5    -65.5850141 -0.671901E-03  0.276E-01    3.22       1.0  T
   6    -65.5852150 -0.200907E-03  0.126E-01    3.22       1.0  T
   7    -65.5852699 -0.548901E-04  0.451E-02    3.24       1.0  T
   8    -65.5852744 -0.450130E-05  0.178E-02    3.24       1.0  T
   9    -65.5852752 -0.785360E-06  0.498E-03    3.24       3.1  T
  10    -65.5852752 -0.167776E-07  0.227E-03    3.24       6.9  T
  11    -65.5852752 -0.248432E-07  0.663E-04    3.24      23.5  T
  12    -65.5852752 -0.741920E-09  0.346E-04    3.24      45.1  T

   *** convergence criteria satisfied after 12 iterations ***

         #    Occupation            Energy/Eh            Energy/eV
      -------------------------------------------------------------
         1        2.0000           -0.7690626             -20.9273
       ...           ...                  ...                  ...
        52        2.0000           -0.4447582             -12.1025
        53        2.0000           -0.4202470             -11.4355
        54        2.0000           -0.4118361             -11.2066
        55        2.0000           -0.3999582             -10.8834
        56        2.0000           -0.3966724             -10.7940
        57        2.0000           -0.3935264             -10.7084
        58        2.0000           -0.3903112             -10.6209 (HOMO)
        59                         -0.2712365              -7.3807 (LUMO)
        60                         -0.2615824              -7.1180
        61                         -0.2206408              -6.0039
        62                         -0.1879828              -5.1153
        63                         -0.1837802              -5.0009
       ...                                ...                  ...
       128                          1.2803815              34.8410
      -------------------------------------------------------------
                  HL-Gap            0.1190747 Eh            3.2402 eV
             Fermi-level           -0.3307738 Eh           -9.0008 eV

 SCC (total)                   0 d,  0 h,  0 min,  0.063 sec
 SCC setup                      ...        0 min,  0.003 sec (  4.065%)
 Dispersion                     ...        0 min,  0.000 sec (  0.467%)
 classical contributions        ...        0 min,  0.000 sec (  0.092%)
 integral evaluation            ...        0 min,  0.013 sec ( 20.571%)
 iterations                     ...        0 min,  0.025 sec ( 39.160%)
 molecular gradient             ...        0 min,  0.022 sec ( 35.218%)
 printout                       ...        0 min,  0.000 sec (  0.402%)

         :::::::::::::::::::::::::::::::::::::::::::::::::::::
         ::                     SUMMARY                     ::
         :::::::::::::::::::::::::::::::::::::::::::::::::::::
         :: total energy             -65.023819651605 Eh    ::
         :: total w/o Gsasa/hb       -65.026897586400 Eh    ::
         :: gradient norm              0.000188402007 Eh/a0 ::
         :: HOMO-LUMO gap              3.240188799943 eV    ::
         ::.................................................::
         :: SCC energy               -65.584282944676 Eh    ::
         :: -> isotropic ES            0.127664830947 Eh    ::
         :: -> anisotropic ES         -0.019286975739 Eh    ::
         :: -> anisotropic XC          0.029877028902 Eh    ::
         :: -> dispersion             -0.054590952073 Eh    ::
         :: -> Gsolv                  -0.022771789470 Eh    ::
         ::    -> Gelec               -0.025849724265 Eh    ::
         ::    -> Gsasa                0.004182950104 Eh    ::
         ::    -> Ghb                 -0.003999564470 Eh    ::
         ::    -> Gshift               0.002894549160 Eh    ::
         :: repulsion energy           0.560463293071 Eh    ::
         :: add. restraining           0.000000000000 Eh    ::
         :: total charge               0.000000000000 e     ::
         :::::::::::::::::::::::::::::::::::::::::::::::::::::

           -------------------------------------------------
          |                Property Printout                |
           -------------------------------------------------

    * Orbital Energies and Occupations

         #    Occupation            Energy/Eh            Energy/eV
      -------------------------------------------------------------
         1        2.0000           -0.7690626             -20.9273
       ...           ...                  ...                  ...
        46        2.0000           -0.4682061             -12.7405
        47        2.0000           -0.4623510             -12.5812
        48        2.0000           -0.4583988             -12.4737
        49        2.0000           -0.4568804             -12.4323
        50        2.0000           -0.4522274             -12.3057
        51        2.0000           -0.4504157             -12.2564
        52        2.0000           -0.4447582             -12.1025
        53        2.0000           -0.4202470             -11.4355
        54        2.0000           -0.4118361             -11.2066
        55        2.0000           -0.3999582             -10.8834
        56        2.0000           -0.3966724             -10.7940
        57        2.0000           -0.3935264             -10.7084
        58        2.0000           -0.3903112             -10.6209 (HOMO)
        59                         -0.2712365              -7.3807 (LUMO)
        60                         -0.2615824              -7.1180
        61                         -0.2206408              -6.0039
        62                         -0.1879828              -5.1153
        63                         -0.1837802              -5.0009
        64                         -0.1788374              -4.8664
        65                         -0.1718446              -4.6761
        66                         -0.1634320              -4.4472
        67                         -0.1327572              -3.6125
        68                         -0.1265500              -3.4436
        69                         -0.0547326              -1.4893
       ...                                ...                  ...
       128                          1.2803815              34.8410
      -------------------------------------------------------------
                  HL-Gap            0.1190747 Eh            3.2402 eV
             Fermi-level           -0.3307738 Eh           -9.0008 eV

     #   Z          covCN         q      C6AA      α(0)
     1   6 C        3.752    -0.135    23.162     6.863
     2   6 C        3.888     0.080    19.199     6.229
     3   8 O        1.655    -0.250    18.158     5.752
     4  15 P        3.842     0.377   144.554    21.598
     5  16 S        0.928    -0.486   160.748    21.445
     6   8 O        1.653    -0.263    18.384     5.788
     7   6 C        3.813     0.074    19.333     6.258
     8   6 C        3.751    -0.133    23.122     6.857
     9  16 S        2.018    -0.114   145.826    20.325
    10   6 C        3.811     0.036    19.954     6.358
    11  16 S        2.024    -0.127   146.390    20.364
    12  15 P        3.791     0.370   144.819    21.617
    13  16 S        0.926    -0.464   159.652    21.372
    14   8 O        1.656    -0.260    18.321     5.778
    15   6 C        3.821     0.094    19.010     6.205
    16   6 C        3.751    -0.127    23.009     6.841
    17   8 O        1.660    -0.272    18.529     5.811
    18   6 C        3.844     0.076    19.279     6.246
    19   6 C        3.751    -0.124    22.943     6.831
    20   1 H        0.925     0.071     2.077     2.254
    21   1 H        0.925     0.080     1.977     2.199
    22   1 H        0.925     0.086     1.922     2.168
    23   1 H        0.924     0.071     2.076     2.253
    24   1 H        0.924     0.058     2.222     2.331
    25   1 H        0.924     0.080     1.982     2.202
    26   1 H        0.924     0.090     1.878     2.143
    27   1 H        0.925     0.070     2.083     2.257
    28   1 H        0.925     0.090     1.882     2.145
    29   1 H        0.925     0.068     2.111     2.272
    30   1 H        0.925     0.119     1.618     1.989
    31   1 H        0.924     0.072     2.068     2.249
    32   1 H        0.924     0.064     2.151     2.293
    33   1 H        0.924     0.053     2.283     2.363
    34   1 H        0.925     0.061     2.192     2.316
    35   1 H        0.925     0.074     2.040     2.234
    36   1 H        0.925     0.082     1.961     2.190
    37   1 H        0.924     0.093     1.850     2.127
    38   1 H        0.924     0.066     2.132     2.283
    39   1 H        0.925     0.083     1.944     2.180
    40   1 H        0.925     0.050     2.317     2.381
    41   1 H        0.925     0.067     2.124     2.279

 Mol. C6AA /au·bohr⁶  :      26411.516633
 Mol. C8AA /au·bohr⁸  :     862662.922234
 Mol. α(0) /au        :        257.645055


Wiberg/Mayer (AO) data.
largest (>0.10) Wiberg bond orders for each atom

 ---------------------------------------------------------------------------
     #   Z sym  total        # sym  WBO       # sym  WBO       # sym  WBO
 ---------------------------------------------------------------------------
     1   6 C    3.981 --     2 C    1.018    20 H    0.983    21 H    0.981
                            22 H    0.975
     2   6 C    3.888 --     1 C    1.018    23 H    0.970    24 H    0.968
                             3 O    0.881
     3   8 O    2.411 --     4 P    1.336     2 C    0.881
     4  15 P    5.309 --     5 S    1.521     6 O    1.356     3 O    1.336
                             9 S    0.961
     5  16 S    1.838 --     4 P    1.521     9 S    0.134
     6   8 O    2.407 --     4 P    1.356     7 C    0.854
     7   6 C    3.876 --     8 C    1.024    25 H    0.970    26 H    0.965
                             6 O    0.854
     8   6 C    3.984 --     7 C    1.024    29 H    0.980    27 H    0.975
                            28 H    0.973
     9  16 S    2.276 --    10 C    0.995     4 P    0.961     5 S    0.134
    10   6 C    3.951 --     9 S    0.995    11 S    0.978    30 H    0.960
                            31 H    0.946
    11  16 S    2.297 --    12 P    1.011    10 C    0.978    13 S    0.135
    12  15 P    5.294 --    13 S    1.513    14 O    1.315    17 O    1.306
                            11 S    1.011
    13  16 S    1.863 --    12 P    1.513    11 S    0.135
    14   8 O    2.412 --    12 P    1.315    15 C    0.887
    15   6 C    3.892 --    16 C    1.017    32 H    0.969    33 H    0.962
                            14 O    0.887
    16   6 C    3.982 --    15 C    1.017    35 H    0.982    34 H    0.982
                            36 H    0.976
    17   8 O    2.381 --    12 P    1.306    18 C    0.879
    18   6 C    3.887 --    19 C    1.022    38 H    0.967    37 H    0.965
                            17 O    0.879
    19   6 C    3.988 --    18 C    1.022    41 H    0.983    40 H    0.977
                            39 H    0.976
    20   1 H    0.995 --     1 C    0.983
    21   1 H    0.993 --     1 C    0.981
    22   1 H    0.991 --     1 C    0.975
    23   1 H    0.995 --     2 C    0.970
    24   1 H    0.997 --     2 C    0.968
    25   1 H    0.994 --     7 C    0.970
    26   1 H    0.992 --     7 C    0.965
    27   1 H    0.995 --     8 C    0.975
    28   1 H    0.991 --     8 C    0.973
    29   1 H    0.995 --     8 C    0.980
    30   1 H    0.985 --    10 C    0.960
    31   1 H    0.995 --    10 C    0.946
    32   1 H    0.996 --    15 C    0.969
    33   1 H    0.997 --    15 C    0.962
    34   1 H    0.996 --    16 C    0.982
    35   1 H    0.994 --    16 C    0.982
    36   1 H    0.992 --    16 C    0.976
    37   1 H    0.991 --    18 C    0.965
    38   1 H    0.996 --    18 C    0.967
    39   1 H    0.992 --    19 C    0.976
    40   1 H    0.997 --    19 C    0.977
    41   1 H    0.996 --    19 C    0.983
 ---------------------------------------------------------------------------

Topologies differ in total number of bonds
Writing topology from bond orders to xtbtopo.mol

molecular dipole:
                 x           y           z       tot (Debye)
 q only:        1.410      -0.546       3.104
   full:        0.978      -0.189       3.237       8.609
molecular quadrupole (traceless):
                xx          xy          yy          xz          yz          zz
 q only:       34.402      -4.730     -16.216     -11.770       9.612     -18.186
  q+dip:       30.863      -0.047     -16.167     -10.584      12.246     -14.696
   full:       32.287      -0.553     -16.597     -11.525      12.178     -15.689


           -------------------------------------------------
          | TOTAL ENERGY              -65.023819651605 Eh   |
          | GRADIENT NORM               0.000188402007 Eh/α |
          | HOMO-LUMO GAP               3.240188799943 eV   |
           -------------------------------------------------

------------------------------------------------------------------------
 * finished run on 2025/04/09 at 05:21:16.217     
------------------------------------------------------------------------
 total:
 * wall-time:     0 d,  0 h,  0 min,  0.127 sec
 *  cpu-time:     0 d,  0 h,  0 min,  0.071 sec
 * ratio c/w:     0.559 speedup
 SCF:
 * wall-time:     0 d,  0 h,  0 min,  0.063 sec
 *  cpu-time:     0 d,  0 h,  0 min,  0.058 sec
 * ratio c/w:     0.920 speedup

