
                                 *****************
                                 * O   R   C   A *
                                 *****************

                                            #,                                       
                                            ###                                      
                                            ####                                     
                                            #####                                    
                                            ######                                   
                                           ########,                                 
                                     ,,################,,,,,                         
                               ,,#################################,,                 
                          ,,##########################################,,             
                       ,#########################################, ''#####,          
                    ,#############################################,,   '####,        
                  ,##################################################,,,,####,       
                ,###########''''           ''''###############################       
              ,#####''   ,,,,##########,,,,          '''####'''          '####       
            ,##' ,,,,###########################,,,                        '##       
           ' ,,###''''                  '''############,,,                           
         ,,##''                                '''############,,,,        ,,,,,,###''
      ,#''                                            '''#######################'''  
     '                                                          ''''####''''         
             ,#######,   #######,   ,#######,      ##                                
            ,#'     '#,  ##    ##  ,#'     '#,    #''#        ,####,   ,####,        
            ##       ##  ##   ,#'  ##            #'  '#       #'       #'  '#        
            ##       ##  #######   ##           ,######,      #####,   #    #        
            '#,     ,#'  ##    ##  '#,     ,#' ,#      #,     #,   #   #,  ,#        
             '#######'   ##     ##  '#######'  #'      '#     '####' # '####'        



                #########################################################
                #                        -***-                          #
                #          Department of theory and spectroscopy        #
                #                                                       #
                #                      Frank Neese                      #
                #                                                       #
                #     Directorship, Architecture, Infrastructure        #
                #                    SHARK, DRIVERS                     #
                #        Core code/Algorithms in most modules           #
                #                                                       #
                #        Max Planck Institute fuer Kohlenforschung      #
                #                Kaiser Wilhelm Platz 1                 #
                #                 D-45470 Muelheim/Ruhr                 #
                #                      Germany                          #
                #                                                       #
                #                  All rights reserved                  #
                #                        -***-                          #
                #########################################################


                         Program Version 6.0.0  -   RELEASE  -


 With contributions from (in alphabetic order):
   Daniel Aravena         : Magnetic Suceptibility
   Michael Atanasov       : Ab Initio Ligand Field Theory (pilot matlab implementation)
   Alexander A. Auer      : GIAO ZORA, VPT2 properties, NMR spectrum
   Ute Becker             : All parallelization in ORCA, NUMFREQ, NUMCALC
   Giovanni Bistoni       : ED, misc. LED, open-shell LED, HFLD
   Martin Brehm           : Molecular dynamics
   Dmytro Bykov           : pre 5.0 version of the SCF Hessian
   Marcos Casanova-Páez   : Triplet and SCS-CIS(D). UHF-(DLPNO)-IP/EA/STEOM-CCSD. UHF-CVS-IP/STEOM-CCSD
   Vijay G. Chilkuri      : MRCI spin determinant printing, contributions to CSF-ICE
   Pauline Colinet        : FMM embedding
   Dipayan Datta          : RHF DLPNO-CCSD density
   Achintya Kumar Dutta   : EOM-CC, STEOM-CC
   Nicolas Foglia         : Exact transition moments, OPA infrastructure, MCD improvements
   Dmitry Ganyushin       : Spin-Orbit,Spin-Spin,Magnetic field MRCI
   Miquel Garcia          : C-PCM and meta-GGA Hessian, CCSD/C-PCM, Gaussian charge scheme
   Tiago L. C. Gouveia    : GS-ROHF, GS-ROCIS
   Yang Guo               : DLPNO-NEVPT2, F12-NEVPT2, CIM, IAO-localization
   Andreas Hansen         : Spin unrestricted coupled pair/coupled cluster methods
   Ingolf Harden          : AUTO-CI MPn and infrastructure 
   Benjamin Helmich-Paris : MC-RPA, TRAH-(SCF,CASSCF), AVAS, COSX integrals, SCF dyn. polar.
   Lee Huntington         : MR-EOM, pCC
   Robert Izsak           : Overlap fitted RIJCOSX, COSX-SCS-MP3, EOM
   Riya Kayal             : Wick's Theorem for AUTO-CI, AUTO-CI UHF-CCSDT
   Emily Kempfer          : AUTO-CI, RHF CISDT and CCSDT
   Christian Kollmar      : KDIIS, OOCD, Brueckner-CCSD(T), CCSD density, CASPT2, CASPT2-K, improved NEVPT2
   Axel Koslowski         : Symmetry handling
   Simone Kossmann        : Meta GGA functionals, TD-DFT gradient, OOMP2, (MP2 Hessian; deprecated post 5.0)
   Lucas Lang             : DCDCAS
   Marvin Lechner         : AUTO-CI (C++ implementation), FIC-MRCC
   Spencer Leger          : CASSCF response
   Dagmar Lenk            : GEPOL surface, SMD, ORCA-2-JSON
   Dimitrios Liakos       : Extrapolation schemes; Compound Job, initial MDCI parallelization
   Dimitrios Manganas     : Further ROCIS development; embedding schemes. LFT, Crystal Embedding
   Dimitrios Pantazis     : SARC Basis sets
   Anastasios Papadopoulos: AUTO-CI, single reference methods and gradients
   Taras Petrenko         : pre 6.0 DFT Hessian and TD-DFT gradient, (ASA, deprecated), ECA, 1-Electron XAS/XES, NRVS
   Peter Pinski           : DLPNO-MP2, DLPNO-MP2 Gradient
   Christoph Reimann      : Effective Core Potentials
   Marius Retegan         : Local ZFS, SOC
   Christoph Riplinger    : Optimizer, TS searches, QM/MM, DLPNO-CCSD(T), (RO)-DLPNO pert. Triples
   Michael Roemelt        : Original ROCIS implementation
   Masaaki Saitow         : Open-shell DLPNO-CCSD energy and density
   Barbara Sandhoefer     : DKH picture change effects
   Kantharuban Sivalingam : CASSCF convergence/infrastructure, NEVPT2 and variants, FIC-MRCI
   Bernardo de Souza      : ESD, SOC TD-DFT
   Georgi Stoychev        : AutoAux, RI-MP2 NMR, DLPNO-MP2 response, X2C
   Van Anh Tran           : RI-MP2 g-tensors
   Willem Van den Heuvel  : Paramagnetic NMR
   Zikuan Wang            : NOTCH, Electric field optimization 
   Frank Wennmohs         : Technical directorship and infrastructure
   Hang Xu                : AUTO-CI-Response properties 


 We gratefully acknowledge several colleagues who have allowed us to
 interface, adapt or use parts of their codes:
   Stefan Grimme, W. Hujo, H. Kruse, P. Pracht,  : VdW corrections, initial TS optimization,
                  C. Bannwarth, S. Ehlert,         DFT functionals, gCP, sTDA/sTD-DF
                  L. Wittmann, M. Mueller
   Ed Valeev, F. Pavosevic, A. Kumar             : LibInt (2-el integral package), F12 methods
   Garnet Chan, S. Sharma, J. Yang, R. Olivares  : DMRG
   Ulf Ekstrom                                   : XCFun DFT Library
   Mihaly Kallay                                 : mrcc  (arbitrary order and MRCC methods)
   Frank Weinhold                                : gennbo (NPA and NBO analysis)
   Simon Mueller                                 : openCOSMO-RS
   Christopher J. Cramer and Donald G. Truhlar   : smd solvation model
   Lars Goerigk                                  : TD-DFT with DH, B97 family of functionals
   V. Asgeirsson, H. Jonsson                     : NEB implementation
   FAccTs GmbH                                   : IRC, NEB, NEB-TS, DLPNO-Multilevel, CI-OPT
                                                   MM, QMMM, 2- and 3-layer-ONIOM, Crystal-QMMM,
                                                   LR-CPCM, SF, NACMEs, symmetry and pop. for TD-DFT,
                                                   nearIR, NL-DFT gradient (VV10), updates on ESD,
                                                   ML-optimized integration grids, MBIS, APM,
                                                   GOAT, DOCKER, SOLVATOR, interface openCOSMO-RS
   S Lehtola, MJT Oliveira, MAL Marques          : LibXC Library
   Liviu Ungur et al                             : ANISO software


 Your calculation uses the libint2 library for the computation of 2-el integrals
 For citations please refer to: http://libint.valeyev.net

 Your ORCA version has been built with support for libXC version: 6.2.2
 For citations please refer to: https://libxc.gitlab.io

 This ORCA versions uses:
   CBLAS   interface :  Fast vector & matrix operations
   LAPACKE interface :  Fast linear algebra routines
   SCALAPACK package :  Parallel linear algebra routines
   Shared memory     :  Shared parallel matrices
   BLAS/LAPACK       :  OpenBLAS 0.3.27  USE64BITINT DYNAMIC_ARCH NO_AFFINITY SapphireRapids SINGLE_THREADED
        Core in use  :  SapphireRapids
   Copyright (c) 2011-2014, The OpenBLAS Project


Your calculation utilizes the geometrical counterpoise correction gCP
Please cite in your paper:
H.Kruse, S. Grimme J.Chem.Phys., 136, (2012), 154101 
   

Your calculation utilizes the atom-pairwise dispersion correction
based on EEQ partial charges (D4)


================================================================================

----- Orbital basis set information -----
Your calculation utilizes the basis: def2-mTZVPP
   Stefan Grimme, Andreas Hansen, Sebastian Ehlert, and Jan-Michael Mewes 
   J. Chem. Phys. 154, 064103 (2021). DOI: 10.1063/5.0040021

----- AuxJ basis set information -----
Your calculation utilizes the auxiliary basis: def2/J
   F. Weigend, Phys. Chem. Chem. Phys. 8, 1057 (2006).

================================================================================
                                        WARNINGS
                       Please study these warnings very carefully!
================================================================================

Using LibXC functional ID 497 : Re-regularized SCAN exchange by Furness et al
[ 1]  J. W. Furness, A. D. Kaplan, J. Ning, J. P. Perdew, and J. Sun.,  J. Phys. Chem. Lett. 11, 8208-8215 (2020)
[ 2]  J. W. Furness, A. D. Kaplan, J. Ning, J. P. Perdew, and J. Sun.,  J. Phys. Chem. Lett. 11, 9248-9248 (2020)
Using LibXC functional ID 498 : Re-regularized SCAN correlation by Furness et al
[ 1]  J. W. Furness, A. D. Kaplan, J. Ning, J. P. Perdew, and J. Sun.,  J. Phys. Chem. Lett. 11, 8208-8215 (2020)
[ 2]  J. W. Furness, A. D. Kaplan, J. Ning, J. P. Perdew, and J. Sun.,  J. Phys. Chem. Lett. 11, 9248-9248 (2020)
Using LibXC functional ID 497 : Re-regularized SCAN exchange by Furness et al
[ 1]  J. W. Furness, A. D. Kaplan, J. Ning, J. P. Perdew, and J. Sun.,  J. Phys. Chem. Lett. 11, 8208-8215 (2020)
[ 2]  J. W. Furness, A. D. Kaplan, J. Ning, J. P. Perdew, and J. Sun.,  J. Phys. Chem. Lett. 11, 9248-9248 (2020)
Using LibXC functional ID 498 : Re-regularized SCAN correlation by Furness et al
[ 1]  J. W. Furness, A. D. Kaplan, J. Ning, J. P. Perdew, and J. Sun.,  J. Phys. Chem. Lett. 11, 8208-8215 (2020)
[ 2]  J. W. Furness, A. D. Kaplan, J. Ning, J. P. Perdew, and J. Sun.,  J. Phys. Chem. Lett. 11, 9248-9248 (2020)

================================================================================
                                       INPUT FILE
================================================================================
NAME = sp_gas.inp
|  1> ! r2scan-3c def2/J RI DEFGRID2 scfconv6 printgap
|  2> %output
|  3>     printlevel normal
|  4> end
|  5> * xyz 0 1
|  6> C 3.3366413021 -1.6198745274 -2.5688781242
|  7> C 2.0736867289 -1.0500240795 -1.9568914117
|  8> O 2.3823893987 0.0483815499 -1.066108722
|  9> P 2.5332560992 -0.0948220696 0.497570451
| 10> S 3.0097137498 1.6053321249 1.3339189847
| 11> O 3.5905661305 -1.2719349928 0.6457069645
| 12> C 4.3183397404 -1.5104395341 1.8650961451
| 13> C 3.4173773502 -1.9595066444 2.9969449023
| 14> S 0.7011007214 -0.9709656571 1.1550736545
| 15> C -0.2187105882 0.581046368 1.2493297618
| 16> S -0.6140861361 1.2722970185 -0.3884445723
| 17> P -2.5713384188 0.4338998448 -0.5649604656
| 18> S -3.4520799218 0.8080968276 -2.2714129413
| 19> O -3.3424303862 0.8746461525 0.7479689683
| 20> C -4.1735761639 2.0483656411 0.7665699769
| 21> C -3.3537268255 3.3232003977 0.7315975865
| 22> O -2.381989386 -1.081080154 -0.1385772944
| 23> C -1.8426345331 -2.0509264893 -1.0592178014
| 24> C -2.9608362595 -2.8426547444 -1.7074500608
| 25> H 3.8944969891 -0.8327089987 -3.0686678193
| 26> H 3.9634385019 -2.0599876537 -1.7980973839
| 27> H 3.0666214628 -2.3826469303 -3.2925372218
| 28> H 1.5250709913 -1.8156841192 -1.4004002181
| 29> H 1.4264680568 -0.6076976348 -2.7176721988
| 30> H 5.0363321776 -2.2847461991 1.5910962096
| 31> H 4.8470065508 -0.5913187517 2.1351448763
| 32> H 4.0287553247 -2.2564485058 3.8430292469
| 33> H 2.7669900365 -1.141946398 3.303612284
| 34> H 2.8029010917 -2.7994855384 2.6826969427
| 35> H 0.3972199195 1.3217802932 1.7605451442
| 36> H -1.1403103773 0.3799449508 1.7904323551
| 37> H -4.8546798115 2.007450911 -0.0894710638
| 38> H -4.7388578464 1.9569244984 1.6951076589
| 39> H -4.0154916679 4.1785104075 0.8231412496
| 40> H -2.633964274 3.3384408794 1.5463645145
| 41> H -2.8163557884 3.3937530011 -0.2140487148
| 42> H -1.2401779809 -1.5387646598 -1.8172023268
| 43> H -1.2005932466 -2.689366106 -0.4483059202
| 44> H -2.5346032291 -3.6083353317 -2.3474058715
| 45> H -3.5751533475 -3.3098012903 -0.9433870373
| 46> H -3.5859148791 -2.1841451087 -2.3068937082
| 47> *
| 48> 
| 49>                          ****END OF INPUT****
================================================================================

                       ****************************
                       * Single Point Calculation *
                       ****************************

---------------------------------
CARTESIAN COORDINATES (ANGSTROEM)
---------------------------------
  C      3.336641   -1.619875   -2.568878
  C      2.073687   -1.050024   -1.956891
  O      2.382389    0.048382   -1.066109
  P      2.533256   -0.094822    0.497570
  S      3.009714    1.605332    1.333919
  O      3.590566   -1.271935    0.645707
  C      4.318340   -1.510440    1.865096
  C      3.417377   -1.959507    2.996945
  S      0.701101   -0.970966    1.155074
  C     -0.218711    0.581046    1.249330
  S     -0.614086    1.272297   -0.388445
  P     -2.571338    0.433900   -0.564960
  S     -3.452080    0.808097   -2.271413
  O     -3.342430    0.874646    0.747969
  C     -4.173576    2.048366    0.766570
  C     -3.353727    3.323200    0.731598
  O     -2.381989   -1.081080   -0.138577
  C     -1.842635   -2.050926   -1.059218
  C     -2.960836   -2.842655   -1.707450
  H      3.894497   -0.832709   -3.068668
  H      3.963439   -2.059988   -1.798097
  H      3.066621   -2.382647   -3.292537
  H      1.525071   -1.815684   -1.400400
  H      1.426468   -0.607698   -2.717672
  H      5.036332   -2.284746    1.591096
  H      4.847007   -0.591319    2.135145
  H      4.028755   -2.256449    3.843029
  H      2.766990   -1.141946    3.303612
  H      2.802901   -2.799486    2.682697
  H      0.397220    1.321780    1.760545
  H     -1.140310    0.379945    1.790432
  H     -4.854680    2.007451   -0.089471
  H     -4.738858    1.956924    1.695108
  H     -4.015492    4.178510    0.823141
  H     -2.633964    3.338441    1.546365
  H     -2.816356    3.393753   -0.214049
  H     -1.240178   -1.538765   -1.817202
  H     -1.200593   -2.689366   -0.448306
  H     -2.534603   -3.608335   -2.347406
  H     -3.575153   -3.309801   -0.943387
  H     -3.585915   -2.184145   -2.306894

----------------------------
CARTESIAN COORDINATES (A.U.)
----------------------------
  NO LB      ZA    FRAG     MASS         X           Y           Z
   0 C     6.0000    0    12.011    6.305338   -3.061119   -4.854476
   1 C     6.0000    0    12.011    3.918700   -1.984258   -3.697989
   2 O     8.0000    0    15.999    4.502064    0.091428   -2.014654
   3 P    15.0000    0    30.974    4.787160   -0.179188    0.940272
   4 S    16.0000    0    32.060    5.687535    3.033638    2.520742
   5 O     8.0000    0    15.999    6.785187   -2.403609    1.220209
   6 C     6.0000    0    12.011    8.160479   -2.854317    3.524521
   7 C     6.0000    0    12.011    6.457907   -3.702931    5.663405
   8 S    16.0000    0    32.060    1.324888   -1.834859    2.182773
   9 C     6.0000    0    12.011   -0.413303    1.098019    2.360891
  10 S    16.0000    0    32.060   -1.160455    2.404293   -0.734054
  11 P    15.0000    0    30.974   -4.859125    0.819952   -1.067621
  12 S    16.0000    0    32.060   -6.523486    1.527082   -4.292348
  13 O     8.0000    0    15.999   -6.316278    1.652842    1.413457
  14 C     6.0000    0    12.011   -7.886916    3.870850    1.448607
  15 C     6.0000    0    12.011   -6.337625    6.279939    1.382519
  16 O     8.0000    0    15.999   -4.501308   -2.042945   -0.261873
  17 C     6.0000    0    12.011   -3.482075   -3.875689   -2.001632
  18 C     6.0000    0    12.011   -5.595170   -5.371839   -3.226613
  19 H     1.0000    0     1.008    7.359533   -1.573592   -5.798942
  20 H     1.0000    0     1.008    7.489813   -3.892813   -3.397912
  21 H     1.0000    0     1.008    5.795075   -4.502550   -6.221994
  22 H     1.0000    0     1.008    2.881967   -3.431146   -2.646373
  23 H     1.0000    0     1.008    2.695634   -1.148382   -5.135656
  24 H     1.0000    0     1.008    9.517289   -4.317545    3.006736
  25 H     1.0000    0     1.008    9.159515   -1.117430    4.034839
  26 H     1.0000    0     1.008    7.613244   -4.264070    7.262273
  27 H     1.0000    0     1.008    5.228853   -2.157966    6.242922
  28 H     1.0000    0     1.008    5.296715   -5.290261    5.069563
  29 H     1.0000    0     1.008    0.750637    2.497803    3.326948
  30 H     1.0000    0     1.008   -2.154874    0.717992    3.383427
  31 H     1.0000    0     1.008   -9.174015    3.793532   -0.169076
  32 H     1.0000    0     1.008   -8.955144    3.698051    3.203289
  33 H     1.0000    0     1.008   -7.588180    7.896240    1.555512
  34 H     1.0000    0     1.008   -4.977471    6.308739    2.922205
  35 H     1.0000    0     1.008   -5.322141    6.413264   -0.404493
  36 H     1.0000    0     1.008   -2.343597   -2.907844   -3.434015
  37 H     1.0000    0     1.008   -2.268792   -5.082165   -0.847175
  38 H     1.0000    0     1.008   -4.789706   -6.818766   -4.435954
  39 H     1.0000    0     1.008   -6.756061   -6.254618   -1.782743
  40 H     1.0000    0     1.008   -6.776397   -4.127436   -4.359397

--------------------------------
INTERNAL COORDINATES (ANGSTROEM)
--------------------------------
 C      0   0   0     0.000000000000     0.00000000     0.00000000
 C      1   0   0     1.514698492511     0.00000000     0.00000000
 O      2   1   0     1.447510298861   110.87297344     0.00000000
 P      3   2   1     1.577453832615   124.16133652   263.57360710
 S      4   3   2     1.953718262113   111.63341484   178.14035014
 O      4   3   2     1.589164485786   102.90156616    52.75191892
 C      6   4   3     1.439947505033   122.54024383   162.27187643
 C      7   6   4     1.514752820523   112.41121843    66.43638198
 S      4   3   2     2.134650176711   105.09964360   304.38913075
 C      9   4   3     1.806565355886    95.76585561   276.04364407
 S     10   9   4     1.821113410837   112.93644693    71.83798038
 P     11  10   9     2.136563638086    97.13674744    94.80715153
 S     12  11  10     1.956453175741   114.16709082   183.19594796
 O     12  11  10     1.585125808364   105.55067385    53.61633770
 C     14  12  11     1.438320805394   121.24597127    94.80656316
 C     15  14  12     1.516106745055   111.92488101   287.76892160
 O     12  11  10     1.585187705500   104.08603131   313.36479557
 C     17  12  11     1.441903087787   121.04863516   280.50502685
 C     18  17  12     1.515722201782   110.39226187   261.67022426
 H      1   2   3     1.086564437307   109.96079681   304.52799121
 H      1   2   3     1.086589730872   110.28891772    64.61255435
 H      1   2   3     1.085548221767   109.04380673   184.73131015
 H      2   1   3     1.094027866414   111.12118121   238.65690811
 H      2   1   3     1.092397409012   111.40504366   115.73339583
 H      7   6   4     1.090935339969   103.73951436   187.19465715
 H      7   6   4     1.094165401702   108.30466793   303.92434308
 H      8   7   6     1.085272415080   109.18256279   172.15141758
 H      8   7   6     1.088785239298   110.06888000   291.52454586
 H      8   7   6     1.087151045043   110.44193191    51.80575751
 H     10   9   4     1.090595390353   108.68745459   313.71380375
 H     10   9   4     1.087464927133   107.37248967   192.63806547
 H     15  14  12     1.094706562178   108.59757483    49.99954594
 H     15  14  12     1.090911128389   104.00685390   166.98282251
 H     16  15  14     1.085296347434   109.32927036   184.26431715
 H     16  15  14     1.087260571246   110.63917036   304.60469859
 H     16  15  14     1.089950562421   109.94081921    64.84811461
 H     18  17  12     1.095355731090   109.45526269    23.80471099
 H     18  17  12     1.092261637308   104.82768133   141.40364893
 H     19  18  17     1.085119715801   109.33049754   183.59036112
 H     19  18  17     1.086003537672   109.94447906   303.81390316
 H     19  18  17     1.087975600553   110.08015369    63.71438226

---------------------------
INTERNAL COORDINATES (A.U.)
---------------------------
 C      0   0   0     0.000000000000     0.00000000     0.00000000
 C      1   0   0     2.862365326309     0.00000000     0.00000000
 O      2   1   0     2.735398040878   110.87297344     0.00000000
 P      3   2   1     2.980955732547   124.16133652   263.57360710
 S      4   3   2     3.691992458234   111.63341484   178.14035014
 O      4   3   2     3.003085659890   102.90156616    52.75191892
 C      6   4   3     2.721106431736   122.54024383   162.27187643
 C      7   6   4     2.862467991374   112.41121843    66.43638198
 S      4   3   2     4.033904225710   105.09964360   304.38913075
 C      9   4   3     3.413913765654    95.76585561   276.04364407
 S     10   9   4     3.441405605293   112.93644693    71.83798038
 P     11  10   9     4.037520143676    97.13674744    94.80715153
 S     12  11  10     3.697160695990   114.16709082   183.19594796
 O     12  11  10     2.995453665618   105.55067385    53.61633770
 C     14  12  11     2.718032414915   121.24597127    94.80656316
 C     15  14  12     2.865026537944   111.92488101   287.76892160
 O     12  11  10     2.995570634254   104.08603131   313.36479557
 C     17  12  11     2.724801947574   121.04863516   280.50502685
 C     18  17  12     2.864299856472   110.39226187   261.67022426
 H      1   2   3     2.053309213368   109.96079681   304.52799121
 H      1   2   3     2.053357011279   110.28891772    64.61255435
 H      1   2   3     2.051388844304   109.04380673   184.73131015
 H      2   1   3     2.067413050400   111.12118121   238.65690811
 H      2   1   3     2.064331932438   111.40504366   115.73339583
 H      7   6   4     2.061569022358   103.73951436   187.19465715
 H      7   6   4     2.067672954428   108.30466793   303.92434308
 H      8   7   6     2.050867645200   109.18256279   172.15141758
 H      8   7   6     2.057505920930   110.06888000   291.52454586
 H      8   7   6     2.054417741338   110.44193191    51.80575751
 H     10   9   4     2.060926610685   108.68745459   313.71380375
 H     10   9   4     2.055010892527   107.37248967   192.63806547
 H     15  14  12     2.068695599523   108.59757483    49.99954594
 H     15  14  12     2.061523269102   104.00685390   166.98282251
 H     16  15  14     2.050912870796   109.32927036   184.26431715
 H     16  15  14     2.054624715866   110.63917036   304.60469859
 H     16  15  14     2.059708062490   109.94081921    64.84811461
 H     18  17  12     2.069922350981   109.45526269    23.80471099
 H     18  17  12     2.064075361100   104.82768133   141.40364893
 H     19  18  17     2.050579085383   109.33049754   183.59036112
 H     19  18  17     2.052249266669   109.94447906   303.81390316
 H     19  18  17     2.055975925434   110.08015369    63.71438226

---------------------
BASIS SET INFORMATION
---------------------
There are 5 groups of distinct atoms

 Group   1 Type C   : 11s6p1d contracted to 5s3p1d pattern {62111/411/1}
 Group   2 Type O   : 11s6p2d contracted to 5s3p2d pattern {62111/411/11}
 Group   3 Type P   : 14s9p2d contracted to 5s4p2d pattern {73211/6111/11}
 Group   4 Type S   : 14s9p2d contracted to 5s4p2d pattern {73211/6111/11}
 Group   5 Type H   : 4s1p contracted to 2s1p pattern {31/1}

Atom   0C    basis set group =>   1
Atom   1C    basis set group =>   1
Atom   2O    basis set group =>   2
Atom   3P    basis set group =>   3
Atom   4S    basis set group =>   4
Atom   5O    basis set group =>   2
Atom   6C    basis set group =>   1
Atom   7C    basis set group =>   1
Atom   8S    basis set group =>   4
Atom   9C    basis set group =>   1
Atom  10S    basis set group =>   4
Atom  11P    basis set group =>   3
Atom  12S    basis set group =>   4
Atom  13O    basis set group =>   2
Atom  14C    basis set group =>   1
Atom  15C    basis set group =>   1
Atom  16O    basis set group =>   2
Atom  17C    basis set group =>   1
Atom  18C    basis set group =>   1
Atom  19H    basis set group =>   5
Atom  20H    basis set group =>   5
Atom  21H    basis set group =>   5
Atom  22H    basis set group =>   5
Atom  23H    basis set group =>   5
Atom  24H    basis set group =>   5
Atom  25H    basis set group =>   5
Atom  26H    basis set group =>   5
Atom  27H    basis set group =>   5
Atom  28H    basis set group =>   5
Atom  29H    basis set group =>   5
Atom  30H    basis set group =>   5
Atom  31H    basis set group =>   5
Atom  32H    basis set group =>   5
Atom  33H    basis set group =>   5
Atom  34H    basis set group =>   5
Atom  35H    basis set group =>   5
Atom  36H    basis set group =>   5
Atom  37H    basis set group =>   5
Atom  38H    basis set group =>   5
Atom  39H    basis set group =>   5
Atom  40H    basis set group =>   5
---------------------------------
AUXILIARY/J BASIS SET INFORMATION
---------------------------------
There are 5 groups of distinct atoms

 Group   1 Type C   : 12s5p4d2f1g contracted to 6s4p3d1f1g pattern {711111/2111/211/2/1}
 Group   2 Type O   : 12s5p4d2f1g contracted to 6s4p3d1f1g pattern {711111/2111/211/2/1}
 Group   3 Type P   : 14s5p5d2f1g contracted to 8s4p3d1f1g pattern {71111111/2111/311/2/1}
 Group   4 Type S   : 14s5p5d2f1g contracted to 8s4p3d1f1g pattern {71111111/2111/311/2/1}
 Group   5 Type H   : 5s2p1d contracted to 3s1p1d pattern {311/2/1}

Atom   0C    basis set group =>   1
Atom   1C    basis set group =>   1
Atom   2O    basis set group =>   2
Atom   3P    basis set group =>   3
Atom   4S    basis set group =>   4
Atom   5O    basis set group =>   2
Atom   6C    basis set group =>   1
Atom   7C    basis set group =>   1
Atom   8S    basis set group =>   4
Atom   9C    basis set group =>   1
Atom  10S    basis set group =>   4
Atom  11P    basis set group =>   3
Atom  12S    basis set group =>   4
Atom  13O    basis set group =>   2
Atom  14C    basis set group =>   1
Atom  15C    basis set group =>   1
Atom  16O    basis set group =>   2
Atom  17C    basis set group =>   1
Atom  18C    basis set group =>   1
Atom  19H    basis set group =>   5
Atom  20H    basis set group =>   5
Atom  21H    basis set group =>   5
Atom  22H    basis set group =>   5
Atom  23H    basis set group =>   5
Atom  24H    basis set group =>   5
Atom  25H    basis set group =>   5
Atom  26H    basis set group =>   5
Atom  27H    basis set group =>   5
Atom  28H    basis set group =>   5
Atom  29H    basis set group =>   5
Atom  30H    basis set group =>   5
Atom  31H    basis set group =>   5
Atom  32H    basis set group =>   5
Atom  33H    basis set group =>   5
Atom  34H    basis set group =>   5
Atom  35H    basis set group =>   5
Atom  36H    basis set group =>   5
Atom  37H    basis set group =>   5
Atom  38H    basis set group =>   5
Atom  39H    basis set group =>   5
Atom  40H    basis set group =>   5

Checking for AutoStart:
The File: sp_gas.gbw exists
Trying to determine its content:
     ... Fine, the file contains calculation information
     ... Fine, the calculation information was read
     ... Fine, the file contains a basis set
     ... Fine, the basis set was read
     ... Fine, the file contains a geometry
     ... Fine, the geometry was read
     ... Fine, the file contains a set of orbitals
     ... Fine, the orbitals can be read
     => possible old guess file was deleted
     => GBW file was renamed to GES file
     => GES file is set as startup file
     => Guess is set to MORead
     ... now leaving AutoStart

------------------------------------------------------------------------------
                             ORCA STARTUP CALCULATIONS
                           -- RI-GTO INTEGRALS CHOSEN --
------------------------------------------------------------------------------
------------------------------------------------------------------------------
                   ___                                                        
                  /   \      - P O W E R E D   B Y -                         
                 /     \                                                     
                 |  |  |   _    _      __       _____    __    __             
                 |  |  |  | |  | |    /  \     |  _  \  |  |  /  |          
                  \  \/   | |  | |   /    \    | | | |  |  | /  /          
                 / \  \   | |__| |  /  /\  \   | |_| |  |  |/  /          
                |  |  |   |  __  | /  /__\  \  |    /   |      \           
                |  |  |   | |  | | |   __   |  |    \   |  |\   \          
                \     /   | |  | | |  |  |  |  | |\  \  |  | \   \       
                 \___/    |_|  |_| |__|  |__|  |_| \__\ |__|  \__/        
                                                                              
                      - O R C A' S   B I G   F R I E N D -                    
                                      &                                       
                       - I N T E G R A L  F E E D E R -                       
                                                                              
 v1 FN, 2020, v2 2021, v3 2022-2024                                           
------------------------------------------------------------------------------


----------------------
SHARK INTEGRAL PACKAGE
----------------------

Number of atoms                             ...     41
Number of basis functions                   ...    539
Number of shells                            ...    253
Maximum angular momentum                    ...      2
Integral batch strategy                     ... SHARK/LIBINT Hybrid
RI-J (if used) integral strategy            ... SPLIT-RIJ (Revised 2003 algorithm where possible)
Printlevel                                  ...      1
Contraction scheme used                     ... SEGMENTED contraction
Prescreening option                         ... SCHWARTZ
   Thresh                                   ... 1.000e-10
   Tcut                                     ... 1.000e-11
   Tpresel                                  ... 1.000e-11 
Coulomb Range Separation                    ... NOT USED
Exchange Range Separation                   ... NOT USED
Multipole approximations                    ... NOT USED
Finite Nucleus Model                        ... NOT USED
CABS basis                                  ... NOT available
Auxiliary Coulomb fitting basis             ... AVAILABLE
   # of basis functions in Aux-J            ...   1185
   # of shells in Aux-J                     ...    407
   Maximum angular momentum in Aux-J        ...      4
Auxiliary J/K fitting basis                 ... NOT available
Auxiliary Correlation fitting basis         ... NOT available
Auxiliary 'external' fitting basis          ... NOT available

Checking pre-screening integrals            ... done (  0.0 sec) Dimension = 253
Check shell pair data                       ... done (  0.0 sec)
Shell pair information
Shell pair cut-off parameter TPreSel        ...   1.0e-11
Total number of shell pairs                 ...     32131
Shell pairs after pre-screening             ...     20836
Total number of primitive shell pairs       ...    124843
Primitive shell pairs kept                  ...     48564
          la=0 lb=0:   5849 shell pairs
          la=1 lb=0:   7573 shell pairs
          la=1 lb=1:   2502 shell pairs
          la=2 lb=0:   2778 shell pairs
          la=2 lb=1:   1793 shell pairs
          la=2 lb=2:    341 shell pairs

Calculating one electron integrals          ... done (  0.1 sec)
Calculating RI/J V-Matrix + Cholesky decomp.... done (  0.1 sec)
Calculating Nuclear repulsion               ... done (  0.0 sec) ENN=   2720.766987146293 Eh

Diagonalization of the overlap matrix:
Smallest eigenvalue                        ... 2.616e-04
Time for diagonalization                   ...    0.031 sec
Threshold for overlap eigenvalues          ... 1.000e-07
Number of eigenvalues below threshold      ... 0
Time for construction of square roots      ...    0.067 sec
Total time needed                          ...    0.109 sec

-------------------
DFT GRID GENERATION
-------------------

General Integration Accuracy     IntAcc      ... 4.388
Radial Grid Type                 RadialGrid  ... OptM3 with GC (2021)
Angular Grid (max. ang.)         AngularGrid ... 4 (Lebedev-302)
Angular grid pruning method      GridPruning ... 4 (adaptive)
Weight generation scheme         WeightScheme... mBecke (2022)
Basis function cutoff            BFCut       ... 1.0000e-10
Integration weight cutoff        WCut        ... 1.0000e-14
Partially contracted basis set               ... off
Rotationally invariant grid construction     ... off
Angular grids for H and He will be reduced by one unit
Diffuse basis detected: some atoms will have their outermost
                        angular grid increased by 1.

Total number of grid points                  ...   192696
Total number of batches                      ...     3034
Average number of points per batch           ...       63
Average number of grid points per atom       ...     4700
Initializing property integral containers    ... done (  0.0 sec)

SHARK setup successfully completed in   3.0 seconds

Maximum memory used throughout the entire STARTUP-calculation: 100.9 MB
-------------------------------------------------------------------------------
                                 ORCA GUESS
                   Start orbitals & Density for SCF / CASSCF
-------------------------------------------------------------------------------

------------
SCF SETTINGS
------------
Hamiltonian:
 Density Functional     Method          .... DFT(GTOs)
  Functional kind                       .... Exchange
  Functional name                       .... Re-regularized SCAN exchange by Furness et al
  Functional family                     .... MGGA
  Functional refs                              
    [ 0] J. W. Furness, A. D. Kaplan, J. Ning, J. P. Perdew, and J. Sun.,  J. Phys. Chem. Lett. 11, 8208-8215 (2020), doi: 10.1021/acs.jpclett.0c02405
    [ 1] J. W. Furness, A. D. Kaplan, J. Ning, J. P. Perdew, and J. Sun.,  J. Phys. Chem. Lett. 11, 9248-9248 (2020), doi: 10.1021/acs.jpclett.0c03077
  Functional external parameters        .... 6
    Parameter  0 _c1        =  6.670000e-01 : c1 parameter        
    Parameter  1 _c2        =  8.000000e-01 : c2 parameter        
    Parameter  2 _d         =  1.240000e+00 : d parameter         
    Parameter  3 _k1        =  6.500000e-02 : k1 parameter        
    Parameter  4 _eta       =  1.000000e-03 : eta parameter       
    Parameter  5 _dp2       =  3.610000e-01 : dp2 parameter       
  Functional kind                       .... Correlation
  Functional name                       .... Re-regularized SCAN correlation by Furness et al
  Functional family                     .... MGGA
  Functional refs                              
    [ 0] J. W. Furness, A. D. Kaplan, J. Ning, J. P. Perdew, and J. Sun.,  J. Phys. Chem. Lett. 11, 8208-8215 (2020), doi: 10.1021/acs.jpclett.0c02405
    [ 1] J. W. Furness, A. D. Kaplan, J. Ning, J. P. Perdew, and J. Sun.,  J. Phys. Chem. Lett. 11, 9248-9248 (2020), doi: 10.1021/acs.jpclett.0c03077
  Functional external parameters        .... 1
    Parameter  0 _eta       =  1.000000e-03 : Regularization parameter
 Gradients option       PostSCFGGA      .... off
 RI-approximation to the Coulomb term is turned on
   Number of AuxJ basis functions       .... 1185


General Settings:
 Integral files         IntName         .... sp_gas
 Hartree-Fock type      HFTyp           .... RHF
 Total Charge           Charge          ....    0
 Multiplicity           Mult            ....    1
 Number of Electrons    NEL             ....  202
 Basis Dimension        Dim             ....  539
 Nuclear Repulsion      ENuc            ....   2720.7669871463 Eh

Convergence Acceleration:
 AO-DIIS                CNVDIIS         .... on
   Start iteration      DIISMaxIt       ....    12
   Startup error        DIISStart       ....  0.200000
   # of expansion vecs  DIISMaxEq       ....     5
   Bias factor          DIISBfac        ....   1.050
   Max. coefficient     DIISMaxC        ....  10.000
 MO-DIIS                CNVKDIIS        .... off
 Trust-Rad. Augm. Hess. CNVTRAH         .... auto
   Auto Start mean grad. ratio tolernc. ....  1.125000
   Auto Start start iteration           ....     1
   Auto Start num. interpolation iter.  ....    10
   Max. Number of Micro iterations      ....    24
   Max. Number of Macro iterations      .... Maxiter - #DIIS iter
   Number of Davidson start vectors     ....     2
   Converg. threshold    (grad. norm)   ....   3.330e-04
   Grad. Scal. Fac. for Micro threshold ....   0.100
   Minimum threshold for Micro iter.    ....   1.000e-02
   NR start threshold (gradient norm)   ....   1.000e-04
   Initial trust radius                 ....   0.400
   Minimum AH scaling param. (alpha)    ....   1.000
   Maximum AH scaling param. (alpha)    .... 1000.000
   Quad. conv. algorithm                .... NR
   White noise on init. David. guess    .... on
   Maximum white noise                  ....   0.010
   Pseudo random numbers                .... off
   Inactive MOs                         .... canonical
   Orbital update algorithm             .... Taylor
   Preconditioner                       .... Diag
   Full preconditioner red. dimension   ....   250
   COSX micro iterations for RIJONX calc.... off
 SOSCF                  CNVSOSCF        .... on
   Start iteration      SOSCFMaxIt      ....   150
   Startup grad/error   SOSCFStart      ....  0.003300
   Hessian update       SOSCFHessUp     .... L-BFGS
 Level Shifting         CNVShift        .... on
   Level shift para.    LevelShift      ....    0.2500
   Turn off err/grad.   ShiftErr        ....    0.0010
 Zerner damping         CNVZerner       .... off
 Static damping         CNVDamp         .... on
   Fraction old density DampFac         ....    0.7000
   Max. Damping (<1)    DampMax         ....    0.9800
   Min. Damping (>=0)   DampMin         ....    0.0000
   Turn off err/grad.   DampErr         ....    0.1000

SCF Procedure:
 Maximum # iterations   MaxIter         ....   125
 SCF integral mode      SCFMode         .... Direct
   Integral package                     .... SHARK and LIBINT hybrid scheme
 Reset frequency        DirectResetFreq ....    20
 Integral Threshold     Thresh          ....  1.000e-10 Eh
 Primitive CutOff       TCut            ....  1.000e-11 Eh

Convergence Tolerance:
 Convergence Check Mode ConvCheckMode   .... Total+1el-Energy
 Convergence forced     ConvForced      .... 0
 Energy Change          TolE            ....  1.000e-06 Eh
 1-El. energy change                    ....  1.000e-03 Eh
 Orbital Gradient       TolG            ....  3.330e-04
 Orbital Rotation angle TolX            ....  3.330e-04
 DIIS Error             TolErr          ....  1.000e-06

---------------------
INITIAL GUESS: MOREAD
---------------------
Guess MOs are being read from file: sp_gas.ges
Input Geometry matches current geometry (good)
Atom 0: N(Shells)= 9 and 6 - projection required
Input basis set needs projection
NBasis(read)= 334
NBasis(calc)= 539
Basis set overlap was calculated
Using GuessMode=FMatrix for the initial guess
C*T matrix was formed
Effective Fockian was calculated
Effective Fockian was diagonalized
Initial density was built
                      ------------------
                      INITIAL GUESS DONE (   0.2 sec)
                      ------------------
             **** ENERGY FILE WAS UPDATED (sp_gas.en.tmp) ****
Finished Guess after   0.6 sec
Maximum memory used throughout the entire GUESS-calculation: 57.9 MB

-------------------------------------------------------------------------------------------
                                      ORCA LEAN-SCF
                              memory conserving SCF solver
-------------------------------------------------------------------------------------------

----------------------------------------D-I-I-S--------------------------------------------
Iteration    Energy (Eh)           Delta-E    RMSDP     MaxDP     DIISErr   Damp  Time(sec)
-------------------------------------------------------------------------------------------
               ***  Starting incremental Fock matrix formation  ***
    1    -2932.0101385375037353     0.00e+00  2.10e-03  8.96e-02  6.31e-01  0.700   9.1
    2    -2932.1524221357358329    -1.42e-01  1.73e-03  7.31e-02  4.44e-01  0.700   7.7
    3    -2932.2529322193531698    -1.01e-01  1.27e-03  5.38e-02  3.11e-01  0.700   7.5
    4    -2932.3234476702973552    -7.05e-02  9.09e-04  3.85e-02  2.18e-01  0.700   7.3
                               ***Turning on AO-DIIS***
    5    -2932.3728843960143422    -4.94e-02  6.57e-04  2.77e-02  1.53e-01  0.700   7.2
    6    -2932.4075244981468131    -3.46e-02  4.66e-04  1.96e-02  1.07e-01  0.700   7.0
    7    -2932.4318023463056306    -2.43e-02  3.28e-04  1.38e-02  7.47e-02  0.700   6.9
    8    -2932.4488096560417034    -1.70e-02  7.69e-04  3.23e-02  5.23e-02  0.000   6.5
                              *** Initializing SOSCF ***
---------------------------------------S-O-S-C-F--------------------------------------
Iteration    Energy (Eh)           Delta-E    RMSDP     MaxDP     MaxGrad    Time(sec)
--------------------------------------------------------------------------------------
    9    -2932.4885359548779888    -3.97e-02  4.78e-06  1.99e-04  1.28e-04     6.8
               *** Restarting incremental Fock matrix formation ***
   10    -2932.4885362781496951    -3.23e-07  4.16e-06  1.50e-04  2.82e-05     8.4
                  *** Gradient check signals convergence ***

               *****************************************************
               *                     SUCCESS                       *
               *           SCF CONVERGED AFTER  10 CYCLES          *
               *****************************************************

             **** ENERGY FILE WAS UPDATED (sp_gas.en.tmp) ****

----------------
TOTAL SCF ENERGY
----------------

Total Energy       :      -2932.48853627814970 Eh          -79797.06988 eV

Components:
Nuclear Repulsion  :       2720.76698714629310 Eh           74035.83363 eV
Electronic Energy  :      -5653.25552342444280 Eh         -153832.90351 eV
One Electron Energy:      -9461.89364666010988 Eh         -257471.21571 eV
Two Electron Energy:       3808.63812323566663 Eh          103638.31220 eV

Virial components:
Potential Energy   :      -5856.13630788118644 Eh         -159353.57032 eV
Kinetic Energy     :       2923.64777160303720 Eh           79556.50044 eV
Virial Ratio       :          2.00302388159100

DFT components:
N(Alpha)           :      101.000021356493 electrons
N(Beta)            :      101.000021356493 electrons
N(Total)           :      202.000042712987 electrons
E(X)               :     -233.533912605128 Eh       
E(C)               :       -7.117776924665 Eh       
E(XC)              :     -240.651689529793 Eh       

---------------
SCF CONVERGENCE
---------------

  Last Energy change         ...    3.2327e-07  Tolerance :   1.0000e-06
  Last MAX-Density change    ...    1.5001e-04  Tolerance :   1.0000e-05
  Last RMS-Density change    ...    4.1601e-06  Tolerance :   1.0000e-06
  Last DIIS Error            ...    1.2798e-04  Tolerance :   1.0000e-06
  Last Orbital Gradient      ...    2.8201e-05  Tolerance :   3.3300e-04
  Last Orbital Rotation      ...    8.3825e-05  Tolerance :   3.3300e-04


----------------
ORBITAL ENERGIES
----------------

  NO   OCC          E(Eh)            E(eV) 
   0   2.0000     -88.578649     -2410.3476 
   1   2.0000     -88.574198     -2410.2265 
   2   2.0000     -88.524521     -2408.8747 
   3   2.0000     -88.523823     -2408.8557 
   4   2.0000     -76.918734     -2093.0652 
   5   2.0000     -76.915666     -2092.9817 
   6   2.0000     -19.001233      -517.0498 
   7   2.0000     -18.994267      -516.8603 
   8   2.0000     -18.994196      -516.8583 
   9   2.0000     -18.993442      -516.8378 
  10   2.0000     -10.107074      -275.0275 
  11   2.0000     -10.105912      -274.9958 
  12   2.0000     -10.104909      -274.9685 
  13   2.0000     -10.101949      -274.8880 
  14   2.0000     -10.099717      -274.8273 
  15   2.0000     -10.034377      -273.0493 
  16   2.0000     -10.033841      -273.0347 
  17   2.0000     -10.028414      -272.8870 
  18   2.0000     -10.027498      -272.8621 
  19   2.0000      -7.873131      -214.2388 
  20   2.0000      -7.867868      -214.0956 
  21   2.0000      -7.819255      -212.7728 
  22   2.0000      -7.818449      -212.7508 
  23   2.0000      -6.597223      -179.5196 
  24   2.0000      -6.594099      -179.4346 
  25   2.0000      -5.819848      -158.3661 
  26   2.0000      -5.817015      -158.2890 
  27   2.0000      -5.815046      -158.2355 
  28   2.0000      -5.811502      -158.1390 
  29   2.0000      -5.810359      -158.1079 
  30   2.0000      -5.805034      -157.9630 
  31   2.0000      -5.766947      -156.9266 
  32   2.0000      -5.766084      -156.9031 
  33   2.0000      -5.759470      -156.7231 
  34   2.0000      -5.759278      -156.7179 
  35   2.0000      -5.758810      -156.7052 
  36   2.0000      -5.758417      -156.6945 
  37   2.0000      -4.743102      -129.0664 
  38   2.0000      -4.742106      -129.0393 
  39   2.0000      -4.740653      -128.9997 
  40   2.0000      -4.739448      -128.9669 
  41   2.0000      -4.739374      -128.9649 
  42   2.0000      -4.737641      -128.9178 
  43   2.0000      -1.056687       -28.7539 
  44   2.0000      -1.055677       -28.7264 
  45   2.0000      -1.016226       -27.6529 
  46   2.0000      -1.013804       -27.5870 
  47   2.0000      -0.801758       -21.8170 
  48   2.0000      -0.761468       -20.7206 
  49   2.0000      -0.753565       -20.5056 
  50   2.0000      -0.739780       -20.1305 
  51   2.0000      -0.729014       -19.8375 
  52   2.0000      -0.714799       -19.4507 
  53   2.0000      -0.692334       -18.8394 
  54   2.0000      -0.671244       -18.2655 
  55   2.0000      -0.632284       -17.2053 
  56   2.0000      -0.628622       -17.1057 
  57   2.0000      -0.612623       -16.6703 
  58   2.0000      -0.602097       -16.3839 
  59   2.0000      -0.593611       -16.1530 
  60   2.0000      -0.531410       -14.4604 
  61   2.0000      -0.526900       -14.3377 
  62   2.0000      -0.500213       -13.6115 
  63   2.0000      -0.494062       -13.4441 
  64   2.0000      -0.478811       -13.0291 
  65   2.0000      -0.470280       -12.7970 
  66   2.0000      -0.466426       -12.6921 
  67   2.0000      -0.453202       -12.3323 
  68   2.0000      -0.447628       -12.1806 
  69   2.0000      -0.442677       -12.0458 
  70   2.0000      -0.428414       -11.6577 
  71   2.0000      -0.416471       -11.3328 
  72   2.0000      -0.412132       -11.2147 
  73   2.0000      -0.407246       -11.0817 
  74   2.0000      -0.399805       -10.8793 
  75   2.0000      -0.391917       -10.6646 
  76   2.0000      -0.384834       -10.4719 
  77   2.0000      -0.378319       -10.2946 
  78   2.0000      -0.374168       -10.1816 
  79   2.0000      -0.371434       -10.1072 
  80   2.0000      -0.366169        -9.9640 
  81   2.0000      -0.363562        -9.8930 
  82   2.0000      -0.359413        -9.7801 
  83   2.0000      -0.352195        -9.5837 
  84   2.0000      -0.345022        -9.3885 
  85   2.0000      -0.341763        -9.2998 
  86   2.0000      -0.332210        -9.0399 
  87   2.0000      -0.316874        -8.6226 
  88   2.0000      -0.315649        -8.5892 
  89   2.0000      -0.311892        -8.4870 
  90   2.0000      -0.307865        -8.3774 
  91   2.0000      -0.290929        -7.9166 
  92   2.0000      -0.287717        -7.8292 
  93   2.0000      -0.282695        -7.6925 
  94   2.0000      -0.272430        -7.4132 
  95   2.0000      -0.250172        -6.8075 
  96   2.0000      -0.234941        -6.3931 
  97   2.0000      -0.225635        -6.1398 
  98   2.0000      -0.221767        -6.0346 
  99   2.0000      -0.220440        -5.9985 
 100   2.0000      -0.214537        -5.8378 
 101   0.0000      -0.044205        -1.2029 
 102   0.0000      -0.028258        -0.7689 
 103   0.0000      -0.014590        -0.3970 
 104   0.0000       0.002971         0.0809 
 105   0.0000       0.007490         0.2038 
 106   0.0000       0.018175         0.4946 
 107   0.0000       0.036369         0.9896 
 108   0.0000       0.036849         1.0027 
 109   0.0000       0.048997         1.3333 
 110   0.0000       0.059003         1.6056 
 111   0.0000       0.068986         1.8772 
*Only the first 10 virtual orbitals were printed.

                    ********************************
                    * MULLIKEN POPULATION ANALYSIS *
                    ********************************

-----------------------
MULLIKEN ATOMIC CHARGES
-----------------------
   0 C :   -0.465035
   1 C :   -0.109008
   2 O :   -0.261346
   3 P :    0.645414
   4 S :   -0.435848
   5 O :   -0.294812
   6 C :   -0.163199
   7 C :   -0.448352
   8 S :   -0.159178
   9 C :   -0.220223
  10 S :   -0.134902
  11 P :    0.670037
  12 S :   -0.448636
  13 O :   -0.307664
  14 C :   -0.149886
  15 C :   -0.430392
  16 O :   -0.313129
  17 C :   -0.118103
  18 C :   -0.463620
  19 H :    0.160054
  20 H :    0.163796
  21 H :    0.146170
  22 H :    0.154072
  23 H :    0.166040
  24 H :    0.148796
  25 H :    0.175950
  26 H :    0.149370
  27 H :    0.180915
  28 H :    0.153111
  29 H :    0.221295
  30 H :    0.203478
  31 H :    0.172382
  32 H :    0.149222
  33 H :    0.147630
  34 H :    0.150868
  35 H :    0.174974
  36 H :    0.154127
  37 H :    0.160145
  38 H :    0.143045
  39 H :    0.153311
  40 H :    0.179130
Sum of atomic charges:    0.0000000

--------------------------------
MULLIKEN REDUCED ORBITAL CHARGES
--------------------------------
  0 C s       :     3.331471  s :     3.331471
      pz      :     1.063391  p :     3.107828
      px      :     0.969978
      py      :     1.074460
      dz2     :     0.001762  d :     0.025737
      dxz     :     0.007338
      dyz     :     0.006659
      dx2y2   :     0.003330
      dxy     :     0.006648

  1 C s       :     3.271021  s :     3.271021
      pz      :     0.927073  p :     2.784027
      px      :     0.981515
      py      :     0.875439
      dz2     :     0.006176  d :     0.053960
      dxz     :     0.012257
      dyz     :     0.014906
      dx2y2   :     0.008577
      dxy     :     0.012044

  2 O s       :     3.734908  s :     3.734908
      pz      :     1.201809  p :     4.522005
      px      :     1.773658
      py      :     1.546538
      dz2     :    -0.000374  d :     0.004432
      dxz     :     0.002837
      dyz     :    -0.008352
      dx2y2   :     0.005991
      dxy     :     0.004330

  3 P s       :     5.176217  s :     5.176217
      pz      :     2.805462  p :     8.452952
      px      :     2.841741
      py      :     2.805749
      dz2     :     0.168156  d :     0.725417
      dxz     :     0.133627
      dyz     :     0.126186
      dx2y2   :     0.128469
      dxy     :     0.168979

  4 S s       :     5.903634  s :     5.903634
      pz      :     3.593949  p :    10.467002
      px      :     3.629410
      py      :     3.243643
      dz2     :     0.007017  d :     0.065213
      dxz     :     0.005029
      dyz     :     0.018714
      dx2y2   :     0.018612
      dxy     :     0.015840

  5 O s       :     3.734331  s :     3.734331
      pz      :     1.475101  p :     4.537226
      px      :     1.479395
      py      :     1.582730
      dz2     :     0.011523  d :     0.023255
      dxz     :     0.003623
      dyz     :     0.000196
      dx2y2   :    -0.002683
      dxy     :     0.010595

  6 C s       :     3.294807  s :     3.294807
      pz      :     0.779734  p :     2.813571
      px      :     0.925920
      py      :     1.107917
      dz2     :     0.014562  d :     0.054822
      dxz     :     0.015602
      dyz     :     0.009292
      dx2y2   :     0.004000
      dxy     :     0.011367

  7 C s       :     3.309527  s :     3.309527
      pz      :     1.001436  p :     3.113094
      px      :     1.035042
      py      :     1.076616
      dz2     :     0.004058  d :     0.025732
      dxz     :     0.008014
      dyz     :     0.003985
      dx2y2   :     0.001807
      dxy     :     0.007868

  8 S s       :     5.908497  s :     5.908497
      pz      :     3.778663  p :    10.146485
      px      :     3.106218
      py      :     3.261603
      dz2     :     0.014398  d :     0.104197
      dxz     :     0.014998
      dyz     :     0.016362
      dx2y2   :     0.024503
      dxy     :     0.033936

  9 C s       :     3.164904  s :     3.164904
      pz      :     0.932669  p :     3.019702
      px      :     1.101298
      py      :     0.985734
      dz2     :     0.006909  d :     0.035617
      dxz     :     0.006924
      dyz     :     0.008359
      dx2y2   :     0.005533
      dxy     :     0.007893

 10 S s       :     5.930018  s :     5.930018
      pz      :     3.228536  p :    10.105778
      px      :     3.235706
      py      :     3.641536
      dz2     :     0.025122  d :     0.099106
      dxz     :     0.018649
      dyz     :     0.018308
      dx2y2   :     0.017659
      dxy     :     0.019369

 11 P s       :     5.156249  s :     5.156249
      pz      :     2.803324  p :     8.452328
      px      :     2.840773
      py      :     2.808231
      dz2     :     0.163917  d :     0.721386
      dxz     :     0.149593
      dyz     :     0.155571
      dx2y2   :     0.130996
      dxy     :     0.121309

 12 S s       :     5.907774  s :     5.907774
      pz      :     3.264142  p :    10.476260
      px      :     3.552496
      py      :     3.659622
      dz2     :     0.020506  d :     0.064602
      dxz     :     0.021489
      dyz     :     0.013013
      dx2y2   :     0.005032
      dxy     :     0.004561

 13 O s       :     3.734918  s :     3.734918
      pz      :     1.539037  p :     4.546380
      px      :     1.536535
      py      :     1.470808
      dz2     :     0.005514  d :     0.026366
      dxz     :     0.008905
      dyz     :     0.003159
      dx2y2   :     0.004874
      dxy     :     0.003914

 14 C s       :     3.282654  s :     3.282654
      pz      :     1.131422  p :     2.812253
      px      :     0.908922
      py      :     0.771910
      dz2     :     0.008224  d :     0.054979
      dxz     :     0.011656
      dyz     :     0.006011
      dx2y2   :     0.013047
      dxy     :     0.016039

 15 C s       :     3.304981  s :     3.304981
      pz      :     1.097753  p :     3.099706
      px      :     1.040087
      py      :     0.961866
      dz2     :     0.005266  d :     0.025705
      dxz     :     0.007515
      dyz     :     0.001960
      dx2y2   :     0.003083
      dxy     :     0.007881

 16 O s       :     3.739028  s :     3.739028
      pz      :     1.613261  p :     4.548083
      px      :     1.739272
      py      :     1.195550
      dz2     :     0.000022  d :     0.026019
      dxz     :     0.009857
      dyz     :     0.004873
      dx2y2   :    -0.000008
      dxy     :     0.011275

 17 C s       :     3.277681  s :     3.277681
      pz      :     0.934612  p :     2.785862
      px      :     0.975469
      py      :     0.875781
      dz2     :     0.006170  d :     0.054559
      dxz     :     0.013058
      dyz     :     0.015090
      dx2y2   :     0.006972
      dxy     :     0.013269

 18 C s       :     3.335411  s :     3.335411
      pz      :     1.066940  p :     3.102591
      px      :     0.995008
      py      :     1.040643
      dz2     :     0.001485  d :     0.025618
      dxz     :     0.007799
      dyz     :     0.006651
      dx2y2   :     0.002066
      dxy     :     0.007617

 19 H s       :     0.821745  s :     0.821745
      pz      :     0.005128  p :     0.018201
      px      :     0.005635
      py      :     0.007438

 20 H s       :     0.817861  s :     0.817861
      pz      :     0.007476  p :     0.018343
      px      :     0.006132
      py      :     0.004736

 21 H s       :     0.835384  s :     0.835384
      pz      :     0.007100  p :     0.018446
      px      :     0.003897
      py      :     0.007449

 22 H s       :     0.827769  s :     0.827769
      pz      :     0.005142  p :     0.018159
      px      :     0.005894
      py      :     0.007123

 23 H s       :     0.816568  s :     0.816568
      pz      :     0.006974  p :     0.017392
      px      :     0.006465
      py      :     0.003954

 24 H s       :     0.833807  s :     0.833807
      pz      :     0.002915  p :     0.017397
      px      :     0.006914
      py      :     0.007569

 25 H s       :     0.806358  s :     0.806358
      pz      :     0.003032  p :     0.017692
      px      :     0.004945
      py      :     0.009716

 26 H s       :     0.832116  s :     0.832116
      pz      :     0.008429  p :     0.018515
      px      :     0.005743
      py      :     0.004342

 27 H s       :     0.800589  s :     0.800589
      pz      :     0.004108  p :     0.018496
      px      :     0.006532
      py      :     0.007857

 28 H s       :     0.828717  s :     0.828717
      pz      :     0.004016  p :     0.018172
      px      :     0.006191
      py      :     0.007965

 29 H s       :     0.759059  s :     0.759059
      pz      :     0.005077  p :     0.019646
      px      :     0.007091
      py      :     0.007478

 30 H s       :     0.777375  s :     0.777375
      pz      :     0.005680  p :     0.019147
      px      :     0.009961
      py      :     0.003505

 31 H s       :     0.809725  s :     0.809725
      pz      :     0.009163  p :     0.017894
      px      :     0.006221
      py      :     0.002510

 32 H s       :     0.833386  s :     0.833386
      pz      :     0.009346  p :     0.017392
      px      :     0.005454
      py      :     0.002592

 33 H s       :     0.833863  s :     0.833863
      pz      :     0.003825  p :     0.018507
      px      :     0.006145
      py      :     0.008537

 34 H s       :     0.830970  s :     0.830970
      pz      :     0.007629  p :     0.018162
      px      :     0.007078
      py      :     0.003454

 35 H s       :     0.806600  s :     0.806600
      pz      :     0.009323  p :     0.018427
      px      :     0.005560
      py      :     0.003544

 36 H s       :     0.827944  s :     0.827944
      pz      :     0.007342  p :     0.017929
      px      :     0.006058
      py      :     0.004529

 37 H s       :     0.822226  s :     0.822226
      pz      :     0.005446  p :     0.017629
      px      :     0.006513
      py      :     0.005670

 38 H s       :     0.838472  s :     0.838472
      pz      :     0.006432  p :     0.018482
      px      :     0.004523
      py      :     0.007528

 39 H s       :     0.828425  s :     0.828425
      pz      :     0.007140  p :     0.018264
      px      :     0.006165
      py      :     0.004959

 40 H s       :     0.802357  s :     0.802357
      pz      :     0.005829  p :     0.018513
      px      :     0.006074
      py      :     0.006611


------------------------
MULLIKEN OVERLAP CHARGES
------------------------
B(  0-C ,  1-C ) :   0.5092 B(  0-C ,  2-O ) :  -0.0915 B(  0-C , 19-H ) :   0.8245 
B(  0-C , 20-H ) :   0.8356 B(  0-C , 21-H ) :   0.8126 B(  0-C , 22-H ) :  -0.0874 
B(  0-C , 23-H ) :  -0.0521 B(  1-C ,  2-O ) :   0.2539 B(  1-C ,  3-P ) :  -0.2358 
B(  1-C , 19-H ) :  -0.0617 B(  1-C , 20-H ) :  -0.0767 B(  1-C , 21-H ) :  -0.0815 
B(  1-C , 22-H ) :   0.8580 B(  1-C , 23-H ) :   0.8149 B(  2-O ,  3-P ) :   0.6337 
B(  2-O ,  4-S ) :  -0.1330 B(  2-O ,  5-O ) :  -0.2042 B(  2-O ,  8-S ) :  -0.1304 
B(  2-O , 22-H ) :  -0.0855 B(  2-O , 23-H ) :  -0.0917 B(  3-P ,  4-S ) :   1.3442 
B(  3-P ,  5-O ) :   0.4315 B(  3-P ,  6-C ) :  -0.1475 B(  3-P ,  8-S ) :   0.6075 
B(  3-P ,  9-C ) :  -0.1060 B(  4-S ,  5-O ) :  -0.0913 B(  4-S ,  6-C ) :   0.0516 
B(  4-S ,  8-S ) :  -0.1064 B(  5-O ,  6-C ) :   0.3384 B(  5-O ,  7-C ) :  -0.1655 
B(  5-O ,  8-S ) :  -0.0691 B(  5-O , 24-H ) :  -0.1098 B(  5-O , 25-H ) :  -0.0833 
B(  6-C ,  7-C ) :   0.3782 B(  6-C , 24-H ) :   0.8038 B(  6-C , 25-H ) :   0.8841 
B(  6-C , 27-H ) :  -0.0808 B(  6-C , 28-H ) :  -0.0634 B(  7-C , 25-H ) :  -0.1176 
B(  7-C , 26-H ) :   0.7669 B(  7-C , 27-H ) :   0.8397 B(  7-C , 28-H ) :   0.7995 
B(  8-S ,  9-C ) :   0.3792 B(  8-S , 10-S ) :  -0.1494 B(  8-S , 29-H ) :  -0.0727 
B(  8-S , 30-H ) :  -0.0645 B(  9-C , 10-S ) :   0.3693 B(  9-C , 11-P ) :  -0.0640 
B(  9-C , 29-H ) :   0.8082 B(  9-C , 30-H ) :   0.7908 B( 10-S , 11-P ) :   0.7005 
B( 10-S , 12-S ) :  -0.0719 B( 10-S , 13-O ) :  -0.1136 B( 10-S , 16-O ) :  -0.1386 
B( 10-S , 29-H ) :  -0.0749 B( 10-S , 30-H ) :  -0.0586 B( 11-P , 12-S ) :   1.2831 
B( 11-P , 13-O ) :   0.6019 B( 11-P , 14-C ) :  -0.1609 B( 11-P , 16-O ) :   0.6420 
B( 11-P , 17-C ) :  -0.1638 B( 12-S , 13-O ) :  -0.1015 B( 12-S , 16-O ) :  -0.0982 
B( 13-O , 14-C ) :   0.3386 B( 13-O , 15-C ) :  -0.1440 B( 13-O , 16-O ) :  -0.2458 
B( 13-O , 31-H ) :  -0.0826 B( 13-O , 32-H ) :  -0.1052 B( 14-C , 15-C ) :   0.4472 
B( 14-C , 31-H ) :   0.8782 B( 14-C , 32-H ) :   0.7980 B( 14-C , 33-H ) :  -0.0595 
B( 14-C , 34-H ) :  -0.0624 B( 14-C , 35-H ) :  -0.0798 B( 15-C , 31-H ) :  -0.1105 
B( 15-C , 33-H ) :   0.7853 B( 15-C , 34-H ) :   0.8059 B( 15-C , 35-H ) :   0.8346 
B( 16-O , 17-C ) :   0.2036 B( 16-O , 18-C ) :  -0.0842 B( 16-O , 36-H ) :  -0.0757 
B( 16-O , 37-H ) :  -0.0924 B( 17-C , 18-C ) :   0.5497 B( 17-C , 36-H ) :   0.8334 
B( 17-C , 37-H ) :   0.8217 B( 17-C , 38-H ) :  -0.0809 B( 17-C , 39-H ) :  -0.0796 
B( 17-C , 40-H ) :  -0.0602 B( 18-C , 36-H ) :  -0.0620 B( 18-C , 37-H ) :  -0.0621 
B( 18-C , 38-H ) :   0.8109 B( 18-C , 39-H ) :   0.8434 B( 18-C , 40-H ) :   0.8244 
B( 24-H , 25-H ) :  -0.0509 B( 36-H , 37-H ) :  -0.0557 


                     *******************************
                     * LOEWDIN POPULATION ANALYSIS *
                     *******************************

----------------------
LOEWDIN ATOMIC CHARGES
----------------------
   0 C :   -0.392394
   1 C :    0.015780
   2 O :   -0.654393
   3 P :    0.378729
   4 S :   -0.098651
   5 O :   -0.670070
   6 C :    0.023141
   7 C :   -0.408323
   8 S :    0.135219
   9 C :   -0.416154
  10 S :    0.162091
  11 P :    0.366794
  12 S :   -0.108521
  13 O :   -0.667813
  14 C :    0.022424
  15 C :   -0.402387
  16 O :   -0.666998
  17 C :    0.009319
  18 C :   -0.397577
  19 H :    0.163099
  20 H :    0.165171
  21 H :    0.158775
  22 H :    0.173856
  23 H :    0.184055
  24 H :    0.179645
  25 H :    0.181381
  26 H :    0.160278
  27 H :    0.166837
  28 H :    0.159661
  29 H :    0.193800
  30 H :    0.195200
  31 H :    0.180783
  32 H :    0.179702
  33 H :    0.159640
  34 H :    0.158535
  35 H :    0.166794
  36 H :    0.176372
  37 H :    0.179936
  38 H :    0.157570
  39 H :    0.159738
  40 H :    0.168957

-------------------------------
LOEWDIN REDUCED ORBITAL CHARGES
-------------------------------
  0 C s       :     2.974034  s :     2.974034
      pz      :     1.132854  p :     3.357589
      px      :     1.091652
      py      :     1.133083
      dz2     :     0.003557  d :     0.060771
      dxz     :     0.017172
      dyz     :     0.016827
      dx2y2   :     0.007735
      dxy     :     0.015480

  1 C s       :     2.877450  s :     2.877450
      pz      :     0.983265  p :     2.985795
      px      :     1.063078
      py      :     0.939453
      dz2     :     0.012775  d :     0.120976
      dxz     :     0.028120
      dyz     :     0.034957
      dx2y2   :     0.018158
      dxy     :     0.026965

  2 O s       :     3.467717  s :     3.467717
      pz      :     1.443487  p :     4.720718
      px      :     1.710900
      py      :     1.566331
      dz2     :     0.131205  d :     0.465958
      dxz     :     0.097437
      dyz     :     0.123983
      dx2y2   :     0.050790
      dxy     :     0.062541

  3 P s       :     4.651259  s :     4.651259
      pz      :     2.758086  p :     8.387872
      px      :     2.784366
      py      :     2.845420
      dz2     :     0.376781  d :     1.582140
      dxz     :     0.262189
      dyz     :     0.287767
      dx2y2   :     0.290913
      dxy     :     0.364489

  4 S s       :     5.562304  s :     5.562304
      pz      :     3.546353  p :    10.401269
      px      :     3.569880
      py      :     3.285037
      dz2     :     0.015241  d :     0.135078
      dxz     :     0.008953
      dyz     :     0.039739
      dx2y2   :     0.040943
      dxy     :     0.030202

  5 O s       :     3.464994  s :     3.464994
      pz      :     1.522210  p :     4.738442
      px      :     1.572590
      py      :     1.643642
      dz2     :     0.109159  d :     0.466634
      dxz     :     0.095416
      dyz     :     0.084029
      dx2y2   :     0.075276
      dxy     :     0.102754

  6 C s       :     2.875562  s :     2.875562
      pz      :     0.882716  p :     2.978526
      px      :     0.993692
      py      :     1.102117
      dz2     :     0.033144  d :     0.122771
      dxz     :     0.035624
      dyz     :     0.019932
      dx2y2   :     0.006937
      dxy     :     0.027134

  7 C s       :     2.976526  s :     2.976526
      pz      :     1.086602  p :     3.371029
      px      :     1.133770
      py      :     1.150658
      dz2     :     0.009214  d :     0.060768
      dxz     :     0.019352
      dyz     :     0.008898
      dx2y2   :     0.003749
      dxy     :     0.019554

  8 S s       :     5.440410  s :     5.440410
      pz      :     3.687383  p :    10.119371
      px      :     3.131333
      py      :     3.300655
      dz2     :     0.038769  d :     0.305000
      dxz     :     0.039775
      dyz     :     0.044038
      dx2y2   :     0.080962
      dxy     :     0.101456

  9 C s       :     3.009327  s :     3.009327
      pz      :     1.087504  p :     3.323623
      px      :     1.131926
      py      :     1.104192
      dz2     :     0.016074  d :     0.083204
      dxz     :     0.015945
      dyz     :     0.019342
      dx2y2   :     0.012529
      dxy     :     0.019314

 10 S s       :     5.457433  s :     5.457433
      pz      :     3.255908  p :    10.087609
      px      :     3.243701
      py      :     3.588000
      dz2     :     0.081336  d :     0.292867
      dxz     :     0.060048
      dyz     :     0.053509
      dx2y2   :     0.048214
      dxy     :     0.049761

 11 P s       :     4.656971  s :     4.656971
      pz      :     2.839450  p :     8.396784
      px      :     2.822046
      py      :     2.735288
      dz2     :     0.378582  d :     1.579452
      dxz     :     0.311634
      dyz     :     0.307051
      dx2y2   :     0.309517
      dxy     :     0.272668

 12 S s       :     5.564448  s :     5.564448
      pz      :     3.295642  p :    10.410060
      px      :     3.516917
      py      :     3.597501
      dz2     :     0.044386  d :     0.134013
      dxz     :     0.049414
      dyz     :     0.022500
      dx2y2   :     0.009802
      dxy     :     0.007911

 13 O s       :     3.460932  s :     3.460932
      pz      :     1.622619  p :     4.732381
      px      :     1.589584
      py      :     1.520178
      dz2     :     0.095348  d :     0.474500
      dxz     :     0.107725
      dyz     :     0.076860
      dx2y2   :     0.101387
      dxy     :     0.093180

 14 C s       :     2.874548  s :     2.874548
      pz      :     1.116367  p :     2.980011
      px      :     0.976591
      py      :     0.887053
      dz2     :     0.019432  d :     0.123017
      dxz     :     0.028649
      dyz     :     0.011007
      dx2y2   :     0.027664
      dxy     :     0.036266

 15 C s       :     2.975613  s :     2.975613
      pz      :     1.161801  p :     3.366096
      px      :     1.136165
      py      :     1.068130
      dz2     :     0.012740  d :     0.060679
      dxz     :     0.018686
      dyz     :     0.003351
      dx2y2   :     0.006703
      dxy     :     0.019199

 16 O s       :     3.463100  s :     3.463100
      pz      :     1.610247  p :     4.727082
      px      :     1.691306
      py      :     1.425529
      dz2     :     0.076477  d :     0.476816
      dxz     :     0.064702
      dyz     :     0.128254
      dx2y2   :     0.093397
      dxy     :     0.113985

 17 C s       :     2.875362  s :     2.875362
      pz      :     0.991427  p :     2.992758
      px      :     1.044998
      py      :     0.956334
      dz2     :     0.012546  d :     0.122561
      dxz     :     0.030888
      dyz     :     0.035612
      dx2y2   :     0.012424
      dxy     :     0.031092

 18 C s       :     2.975633  s :     2.975633
      pz      :     1.131200  p :     3.361450
      px      :     1.108009
      py      :     1.122240
      dz2     :     0.002796  d :     0.060495
      dxz     :     0.018766
      dyz     :     0.016475
      dx2y2   :     0.004364
      dxy     :     0.018093

 19 H s       :     0.793323  s :     0.793323
      pz      :     0.011852  p :     0.043578
      px      :     0.013266
      py      :     0.018460

 20 H s       :     0.790396  s :     0.790396
      pz      :     0.018709  p :     0.044433
      px      :     0.014790
      py      :     0.010934

 21 H s       :     0.797229  s :     0.797229
      pz      :     0.017042  p :     0.043996
      px      :     0.009059
      py      :     0.017895

 22 H s       :     0.783622  s :     0.783622
      pz      :     0.012807  p :     0.042523
      px      :     0.013470
      py      :     0.016245

 23 H s       :     0.775742  s :     0.775742
      pz      :     0.015607  p :     0.040203
      px      :     0.014733
      py      :     0.009863

 24 H s       :     0.780483  s :     0.780483
      pz      :     0.007102  p :     0.039872
      px      :     0.015070
      py      :     0.017701

 25 H s       :     0.776322  s :     0.776322
      pz      :     0.007004  p :     0.042297
      px      :     0.011439
      py      :     0.023854

 26 H s       :     0.795559  s :     0.795559
      pz      :     0.020349  p :     0.044164
      px      :     0.014090
      py      :     0.009724

 27 H s       :     0.788183  s :     0.788183
      pz      :     0.009438  p :     0.044981
      px      :     0.015600
      py      :     0.019943

 28 H s       :     0.796792  s :     0.796792
      pz      :     0.009153  p :     0.043547
      px      :     0.014595
      py      :     0.019799

 29 H s       :     0.756341  s :     0.756341
      pz      :     0.012743  p :     0.049859
      px      :     0.017623
      py      :     0.019494

 30 H s       :     0.757484  s :     0.757484
      pz      :     0.013594  p :     0.047316
      px      :     0.025494
      py      :     0.008229

 31 H s       :     0.776492  s :     0.776492
      pz      :     0.022161  p :     0.042726
      px      :     0.014501
      py      :     0.006064

 32 H s       :     0.780409  s :     0.780409
      pz      :     0.022427  p :     0.039889
      px      :     0.011595
      py      :     0.005868

 33 H s       :     0.796280  s :     0.796280
      pz      :     0.008458  p :     0.044080
      px      :     0.015054
      py      :     0.020568

 34 H s       :     0.798010  s :     0.798010
      pz      :     0.019046  p :     0.043454
      px      :     0.016941
      py      :     0.007467

 35 H s       :     0.788619  s :     0.788619
      pz      :     0.023788  p :     0.044587
      px      :     0.013024
      py      :     0.007775

 36 H s       :     0.781826  s :     0.781826
      pz      :     0.016736  p :     0.041802
      px      :     0.013697
      py      :     0.011369

 37 H s       :     0.779572  s :     0.779572
      pz      :     0.013672  p :     0.040492
      px      :     0.014431
      py      :     0.012389

 38 H s       :     0.798439  s :     0.798439
      pz      :     0.015186  p :     0.043991
      px      :     0.010783
      py      :     0.018022

 39 H s       :     0.796681  s :     0.796681
      pz      :     0.017707  p :     0.043580
      px      :     0.014597
      py      :     0.011277

 40 H s       :     0.785962  s :     0.785962
      pz      :     0.013956  p :     0.045081
      px      :     0.014843
      py      :     0.016282


---------------------------------
LOEWDIN BOND ORDERS (THRESH 0.050000)
---------------------------------
B(  0-C ,  1-C ) :   1.0966 B(  0-C ,  2-O ) :   0.1576 B(  0-C , 19-H ) :   0.9200 
B(  0-C , 20-H ) :   0.9163 B(  0-C , 21-H ) :   0.9161 B(  1-C ,  2-O ) :   1.2765 
B(  1-C ,  3-P ) :   0.0948 B(  1-C , 21-H ) :   0.0512 B(  1-C , 22-H ) :   0.8258 
B(  1-C , 23-H ) :   0.8297 B(  2-O ,  3-P ) :   1.5845 B(  2-O ,  4-S ) :   0.1794 
B(  2-O ,  5-O ) :   0.2129 B(  2-O ,  8-S ) :   0.1642 B(  2-O , 22-H ) :   0.0945 
B(  2-O , 23-H ) :   0.0978 B(  3-P ,  4-S ) :   2.0565 B(  3-P ,  5-O ) :   1.5629 
B(  3-P ,  6-C ) :   0.0938 B(  3-P ,  8-S ) :   1.1916 B(  3-P ,  9-C ) :   0.0931 
B(  4-S ,  5-O ) :   0.1821 B(  4-S ,  8-S ) :   0.1509 B(  4-S ,  9-C ) :   0.0537 
B(  5-O ,  6-C ) :   1.2981 B(  5-O ,  7-C ) :   0.1542 B(  5-O ,  8-S ) :   0.1398 
B(  5-O , 24-H ) :   0.1006 B(  5-O , 25-H ) :   0.0969 B(  6-C ,  7-C ) :   1.0953 
B(  6-C , 24-H ) :   0.8283 B(  6-C , 25-H ) :   0.8280 B(  6-C , 26-H ) :   0.0517 
B(  7-C , 26-H ) :   0.9140 B(  7-C , 27-H ) :   0.9142 B(  7-C , 28-H ) :   0.9205 
B(  8-S ,  9-C ) :   1.3101 B(  8-S , 10-S ) :   0.2098 B(  8-S , 29-H ) :   0.0625 
B(  8-S , 30-H ) :   0.0566 B(  9-C , 10-S ) :   1.2828 B(  9-C , 11-P ) :   0.0856 
B(  9-C , 29-H ) :   0.8328 B(  9-C , 30-H ) :   0.8370 B( 10-S , 11-P ) :   1.2215 
B( 10-S , 12-S ) :   0.1401 B( 10-S , 13-O ) :   0.1535 B( 10-S , 16-O ) :   0.1642 
B( 10-S , 29-H ) :   0.0554 B( 10-S , 30-H ) :   0.0557 B( 11-P , 12-S ) :   2.0873 
B( 11-P , 13-O ) :   1.5456 B( 11-P , 14-C ) :   0.0984 B( 11-P , 16-O ) :   1.5439 
B( 11-P , 17-C ) :   0.1014 B( 12-S , 13-O ) :   0.1802 B( 12-S , 14-C ) :   0.0504 
B( 12-S , 16-O ) :   0.1733 B( 13-O , 14-C ) :   1.2971 B( 13-O , 15-C ) :   0.1552 
B( 13-O , 16-O ) :   0.2526 B( 13-O , 31-H ) :   0.0965 B( 13-O , 32-H ) :   0.0995 
B( 14-C , 15-C ) :   1.0940 B( 14-C , 31-H ) :   0.8262 B( 14-C , 32-H ) :   0.8287 
B( 14-C , 33-H ) :   0.0512 B( 15-C , 33-H ) :   0.9157 B( 15-C , 34-H ) :   0.9227 
B( 15-C , 35-H ) :   0.9141 B( 16-O , 17-C ) :   1.2850 B( 16-O , 18-C ) :   0.1620 
B( 16-O , 36-H ) :   0.0953 B( 16-O , 37-H ) :   0.0975 B( 17-C , 18-C ) :   1.0946 
B( 17-C , 36-H ) :   0.8265 B( 17-C , 37-H ) :   0.8284 B( 17-C , 38-H ) :   0.0512 
B( 18-C , 38-H ) :   0.9172 B( 18-C , 39-H ) :   0.9216 B( 18-C , 40-H ) :   0.9151 


------------------------------------------
LOEWDIN REDUCED ORBITAL POPULATIONS PER MO
-------------------------------------------
THRESHOLD FOR PRINTING IS 0.1%%
                      0         1         2         3         4         5   
                 -88.57865 -88.57420 -88.52452 -88.52382 -76.91873 -76.91567
                   2.00000   2.00000   2.00000   2.00000   2.00000   2.00000
                  --------  --------  --------  --------  --------  --------
 3 P  s               0.0       0.0       0.0       0.0     100.0       0.0
 4 S  s               0.0       0.0     100.0       0.0       0.0       0.0
 8 S  s             100.0       0.0       0.0       0.0       0.0       0.0
10 S  s               0.0     100.0       0.0       0.0       0.0       0.0
11 P  s               0.0       0.0       0.0       0.0       0.0     100.0
12 S  s               0.0       0.0       0.0     100.0       0.0       0.0

                      6         7         8         9        10        11   
                 -19.00123 -18.99427 -18.99420 -18.99344 -10.10707 -10.10591
                   2.00000   2.00000   2.00000   2.00000   2.00000   2.00000
                  --------  --------  --------  --------  --------  --------
 2 O  s               0.0      99.9       0.0       0.0       0.0       0.0
 5 O  s              99.9       0.0       0.0       0.0       0.0       0.0
 5 O  dxz             0.0       0.0       0.0       0.0       0.0       0.2
 6 C  s               0.0       0.0       0.0       0.0       0.0      99.4
 9 C  s               0.0       0.0       0.0       0.0      99.6       0.0
13 O  s               0.0       0.0      99.9       0.0       0.0       0.0
16 O  s               0.0       0.0       0.0      99.9       0.0       0.0

                     12        13        14        15        16        17   
                 -10.10491 -10.10195 -10.09972 -10.03438 -10.03384 -10.02841
                   2.00000   2.00000   2.00000   2.00000   2.00000   2.00000
                  --------  --------  --------  --------  --------  --------
 0 C  s               0.0       0.0       0.0       0.0      99.7       0.0
 1 C  s              99.4       0.0       0.0       0.0       0.0       0.0
 2 O  dyz             0.2       0.0       0.0       0.0       0.0       0.0
 7 C  s               0.0       0.0       0.0      99.7       0.0       0.0
13 O  dxy             0.0       0.0       0.2       0.0       0.0       0.0
14 C  s               0.0       0.0      99.4       0.0       0.0       0.0
15 C  s               0.0       0.0       0.0       0.0       0.0      99.7
16 O  dyz             0.0       0.2       0.0       0.0       0.0       0.0
17 C  s               0.0      99.4       0.0       0.0       0.0       0.0

[...]
36 H  px              0.0       0.1       0.0       0.2       0.0       0.0
36 H  py              0.0       0.2       0.0       0.6       0.0       0.0
37 H  s               0.0       0.1       0.0       0.2       0.0       0.0
37 H  pz              0.0       0.2       0.0       0.8       0.0       0.0

                    522       523       524       525       526       527   
                  18.88085  18.90815  19.02551  19.21190  21.94486  21.95867
                   0.00000   0.00000   0.00000   0.00000   0.00000   0.00000
                  --------  --------  --------  --------  --------  --------
 0 C  s               0.0       0.0       0.0       0.0      77.4      17.0
 1 C  s               0.0       0.1       0.0       0.0       1.3       0.0
 3 P  s               0.0       0.2       0.0       0.0       0.0       0.0
 3 P  py              0.0       0.2       0.0       0.0       0.0       0.0
 4 S  s               0.1      97.5       0.2       1.1       0.0       0.0
 4 S  py              0.0       0.1       0.0       0.0       0.0       0.0
 6 C  s               0.0       0.0       0.0       0.0       0.5       0.1
 7 C  s               0.0       0.0       0.0       0.0       0.3       0.9
 8 S  s               4.5       1.0      67.1      26.4       0.0       0.0
 9 C  s               0.0       0.0       0.0       0.8       2.9       1.2
10 S  s               0.0       0.5      28.5      69.8       0.0       0.0
11 P  s               0.2       0.0       0.1       0.1       0.0       0.0
11 P  pz              0.3       0.0       0.0       0.0       0.0       0.0
12 S  s              94.4       0.0       3.4       1.0       0.0       0.0
12 S  pz              0.1       0.0       0.0       0.0       0.0       0.0
14 C  s               0.0       0.0       0.0       0.0       0.1       0.7
15 C  s               0.0       0.0       0.0       0.0       2.0       0.1
17 C  s               0.1       0.0       0.0       0.0       0.2       2.1
18 C  s               0.0       0.0       0.0       0.0      14.8      77.3

                    528       529       530       531       532       533   
                  21.97626  21.97936  22.03664  22.04823  22.05014  22.06785
                   0.00000   0.00000   0.00000   0.00000   0.00000   0.00000
                  --------  --------  --------  --------  --------  --------
 0 C  s               2.6       0.5       0.9       0.7       0.0       0.2
 1 C  s               0.2       0.0      23.3       0.3       0.1      64.1
 6 C  s               0.0       1.0      10.2      38.4      42.8       5.7
 7 C  s               3.3      93.4       0.0       0.3       1.3       0.0
 9 C  s               8.6       1.4      27.1       3.8      32.3      17.8
14 C  s               0.6       0.0       2.6      35.5      19.9       9.5
15 C  s              80.8       2.4      10.0       0.1       2.1       1.9
17 C  s               1.1       0.0      22.2      19.9       0.9       0.0
18 C  s               2.4       1.0       3.0       0.7       0.0       0.3

                    534       535       536       537       538   
                  22.08659  43.79247  43.84726  43.87323  43.90738
                   0.00000   0.00000   0.00000   0.00000   0.00000
                  --------  --------  --------  --------  --------
 0 C  s               0.4       0.0       0.0       0.0       0.0
 1 C  s              10.2       0.0       0.0       0.0       0.0
 2 O  s               0.0       1.1      58.9      38.5       1.4
 5 O  s               0.0      98.3       0.9       0.1       0.6
 6 C  s               0.8       0.0       0.0       0.0       0.0
 9 C  s               4.3       0.0       0.0       0.0       0.0
13 O  s               0.0       0.5      11.1      32.0      56.4
14 C  s              30.5       0.0       0.0       0.0       0.0
15 C  s               0.3       0.0       0.0       0.0       0.0
16 O  s               0.0       0.0      29.0      29.3      41.6
17 C  s              53.0       0.0       0.0       0.0       0.0


                      *****************************
                      * MAYER POPULATION ANALYSIS *
                      *****************************

  NA   - Mulliken gross atomic population
  ZA   - Total nuclear charge
  QA   - Mulliken gross atomic charge
  VA   - Mayer's total valence
  BVA  - Mayer's bonded valence
  FA   - Mayer's free valence

  ATOM       NA         ZA         QA         VA         BVA        FA
  0 C      6.4650     6.0000    -0.4650     3.8310     3.8310    -0.0000
  1 C      6.1090     6.0000    -0.1090     3.6207     3.6207    -0.0000
  2 O      8.2613     8.0000    -0.2613     1.7781     1.7781    -0.0000
  3 P     14.3546    15.0000     0.6454     5.1362     5.1362    -0.0000
  4 S     16.4358    16.0000    -0.4358     2.0783     2.0783    -0.0000
  5 O      8.2948     8.0000    -0.2948     1.7994     1.7994     0.0000
  6 C      6.1632     6.0000    -0.1632     3.7270     3.7270    -0.0000
  7 C      6.4484     6.0000    -0.4484     3.7491     3.7491     0.0000
  8 S     16.1592    16.0000    -0.1592     2.1773     2.1773     0.0000
  9 C      6.2202     6.0000    -0.2202     3.7198     3.7198     0.0000
 10 S     16.1349    16.0000    -0.1349     2.1719     2.1719    -0.0000
 11 P     14.3300    15.0000     0.6700     5.1843     5.1843    -0.0000
 12 S     16.4486    16.0000    -0.4486     2.0672     2.0672     0.0000
 13 O      8.3077     8.0000    -0.3077     1.8285     1.8285     0.0000
 14 C      6.1499     6.0000    -0.1499     3.7027     3.7027     0.0000
 15 C      6.4304     6.0000    -0.4304     3.7552     3.7552     0.0000
 16 O      8.3131     8.0000    -0.3131     1.7912     1.7912     0.0000
 17 C      6.1181     6.0000    -0.1181     3.6713     3.6713     0.0000
 18 C      6.4636     6.0000    -0.4636     3.8403     3.8403     0.0000
 19 H      0.8399     1.0000     0.1601     0.9609     0.9609    -0.0000
 20 H      0.8362     1.0000     0.1638     0.9611     0.9611     0.0000
 21 H      0.8538     1.0000     0.1462     0.9632     0.9632    -0.0000
 22 H      0.8459     1.0000     0.1541     0.9625     0.9625     0.0000
 23 H      0.8340     1.0000     0.1660     0.9487     0.9487    -0.0000
 24 H      0.8512     1.0000     0.1488     0.9496     0.9496    -0.0000
 25 H      0.8241     1.0000     0.1759     0.9501     0.9501    -0.0000
 26 H      0.8506     1.0000     0.1494     0.9639     0.9639    -0.0000
 27 H      0.8191     1.0000     0.1809     0.9558     0.9558     0.0000
 28 H      0.8469     1.0000     0.1531     0.9602     0.9602     0.0000
 29 H      0.7787     1.0000     0.2213     0.9479     0.9479    -0.0000
 30 H      0.7965     1.0000     0.2035     0.9524     0.9524    -0.0000
 31 H      0.8276     1.0000     0.1724     0.9541     0.9541     0.0000
 32 H      0.8508     1.0000     0.1492     0.9501     0.9501     0.0000
 33 H      0.8524     1.0000     0.1476     0.9642     0.9642     0.0000
 34 H      0.8491     1.0000     0.1509     0.9619     0.9619    -0.0000
 35 H      0.8250     1.0000     0.1750     0.9593     0.9593     0.0000
 36 H      0.8459     1.0000     0.1541     0.9578     0.9578     0.0000
 37 H      0.8399     1.0000     0.1601     0.9481     0.9481     0.0000
 38 H      0.8570     1.0000     0.1430     0.9642     0.9642    -0.0000
 39 H      0.8467     1.0000     0.1533     0.9621     0.9621     0.0000
 40 H      0.8209     1.0000     0.1791     0.9569     0.9569     0.0000

  Mayer bond orders larger than 0.100000
B(  0-C ,  1-C ) :   0.9427 B(  0-C , 19-H ) :   0.9714 B(  0-C , 20-H ) :   0.9684 
B(  0-C , 21-H ) :   0.9648 B(  1-C ,  2-O ) :   0.7416 B(  1-C , 22-H ) :   0.9663 
B(  1-C , 23-H ) :   0.9585 B(  2-O ,  3-P ) :   1.1396 B(  3-P ,  4-S ) :   1.8513 
B(  3-P ,  5-O ) :   1.0386 B(  3-P ,  8-S ) :   1.0082 B(  5-O ,  6-C ) :   0.8167 
B(  6-C ,  7-C ) :   0.9158 B(  6-C , 24-H ) :   0.9613 B(  6-C , 25-H ) :   0.9678 
B(  7-C , 26-H ) :   0.9556 B(  7-C , 27-H ) :   0.9630 B(  7-C , 28-H ) :   0.9678 
B(  8-S ,  9-C ) :   0.9123 B(  9-C , 10-S ) :   0.8953 B(  9-C , 29-H ) :   0.9060 
B(  9-C , 30-H ) :   0.9166 B( 10-S , 11-P ) :   1.0678 B( 11-P , 12-S ) :   1.8200 
B( 11-P , 13-O ) :   1.0938 B( 11-P , 16-O ) :   1.0888 B( 13-O , 14-C ) :   0.8095 
B( 14-C , 15-C ) :   0.9289 B( 14-C , 31-H ) :   0.9649 B( 14-C , 32-H ) :   0.9594 
B( 15-C , 33-H ) :   0.9608 B( 15-C , 34-H ) :   0.9684 B( 15-C , 35-H ) :   0.9608 
B( 16-O , 17-C ) :   0.7476 B( 17-C , 18-C ) :   0.9583 B( 17-C , 36-H ) :   0.9581 
B( 17-C , 37-H ) :   0.9576 B( 18-C , 38-H ) :   0.9651 B( 18-C , 39-H ) :   0.9774 
B( 18-C , 40-H ) :   0.9586 

-------
TIMINGS
-------

Total SCF time: 0 days 0 hours 1 min 15 sec 

Total time                  ....      75.341 sec
Sum of individual times     ....      74.850 sec  ( 99.3%)

SCF preparation             ....       0.358 sec  (  0.5%)
Fock matrix formation       ....      71.080 sec  ( 94.3%)
  Startup                   ....       0.172 sec  (  0.2% of F)
  Split-RI-J                ....      24.063 sec  ( 33.9% of F)
  XC integration            ....      45.401 sec  ( 63.9% of F)
    XC Preparation          ....       0.000 sec  (  0.0% of XC)
    Basis function eval.    ....       7.271 sec  ( 16.0% of XC)
    Density eval.           ....      16.798 sec  ( 37.0% of XC)
    XC-Functional eval.     ....       3.377 sec  (  7.4% of XC)
    XC-Potential eval.      ....      16.711 sec  ( 36.8% of XC)
Diagonalization             ....       0.000 sec  (  0.0%)
Density matrix formation    ....       0.908 sec  (  1.2%)
Total Energy calculation    ....       0.041 sec  (  0.1%)
Population analysis         ....       0.424 sec  (  0.6%)
Orbital Transformation      ....       0.251 sec  (  0.3%)
Orbital Orthonormalization  ....       0.000 sec  (  0.0%)
DIIS solution               ....       1.552 sec  (  2.1%)
  MO trafo                  ....       0.000 sec  (  0.0 % of DIIS)
  Orb grad                  ....       0.000 sec  (  0.0 % of DIIS)
  Energy W gradient         ....       0.000 sec  (  0.0 % of DIIS)
  DIIS error                ....       0.114 sec  (  7.4 % of DIIS)
  DIIS work                 ....       1.291 sec  ( 83.2 % of DIIS)
  Form Q                    ....       0.000 sec  (  0.0 % of DIIS)
  Form QpQm                 ....       0.000 sec  (  0.0 % of DIIS)
  Exp/Cayley                ....       0.000 sec  (  0.0 % of DIIS)
  Orb update                ....       0.000 sec  (  0.0 % of DIIS)
  Wake-sleep                ....       0.025 sec  (  1.6 % of DIIS)
SOSCF solution              ....       0.236 sec  (  0.3%)
  MO trafo                  ....       0.169 sec  ( 71.8 % of SOSCF)
  Orb grad                  ....       0.001 sec  (  0.4 % of SOSCF)
  Rot update                ....       0.000 sec  (  0.1 % of SOSCF)
  Step                      ....       0.065 sec  ( 27.6 % of SOSCF)
Finished LeanSCF after  75.5 sec

Maximum memory used throughout the entire LEANSCF-calculation: 72.2 MB


-------------------------------------------------------------------------------
                          DFT DISPERSION CORRECTION                            
                                                                               
                                DFTD4 V3.4.0                                   
-------------------------------------------------------------------------------
The R2SCAN3C composite method is recognized
Using three-body term ABC
Active option DFTDOPT                   ...         5   

-------------------------   ----------------
Dispersion correction           -0.021090457
-------------------------   ----------------

------------------   -----------------
gCP correction             0.046469592
------------------   -----------------

-------------------------   --------------------
FINAL SINGLE POINT ENERGY     -2932.463157143427
-------------------------   --------------------


------------------------------------------------------------------------------
                              ORCA PROPERTY CALCULATIONS
------------------------------------------------------------------------------

GBWName                                 ... sp_gas.gbw
Number of atoms                         ...     41
Number of basis functions               ...    539
Max core memory                         ...   1024 MB

Electric properties:
Dipole moment                           ... YES
Quadrupole moment                       ...  NO
Static polarizability (Dipole/Dipole)   ...  NO
Static polarizability (Dipole/Quad.)    ...  NO
Static polarizability (Quad./Quad.)     ...  NO
Static polarizability (Velocity)        ...  NO

Atomic electric properties:
Dipole moment                           ...  NO
Quadrupole moment                       ...  NO
Static polarizability                   ...  NO

Choice of electric origin               ... Center of mass
Position of electric origin             ...     0.000000    -0.000003    -0.000000

General magnetic properties:
Magnetizability                         ...  NO

EPR properties:
g-Tensor (aka g-matrix)                 ...  NO
Zero-Field splitting spin-orbit         ...  NO
Zero-field splitting spin-spin          ...  NO
Hyperfine couplings                     ...  NO (   0 nuclei)
Quadrupole couplings                    ...  NO (   0 nuclei)
Contact density                         ...  NO (   0 nuclei)

NMR properties:
Chemical shifts                         ...  NO (   0 nuclei)
Spin-rotation constants                 ...  NO (   0 nuclei)
Spin-spin couplings                     ...  NO (   0 nuclei,    0 pairs)

Choice of magnetic origin               ... GIAO
Position of magnetic origin             ...     0.000000     0.000000     0.000000

Properties with geometric perturbations:
SCF Hessian                             ...  NO
IR spectrum                             ...  NO
VCD spectrum                            ...  NO
X-ray spectroscopy properties:
SCF XES/XAS/RIXS spectra                ...  NO


-------------
DIPOLE MOMENT
-------------

Method             : SCF
Type of density    : Electron Density
Multiplicity       :   1
Irrep              :   0
Energy             : -2932.4885362781496951 Eh
Relativity type    : 
Basis              : AO
                                X                 Y                 Z
Electronic contribution:     -1.104320263      11.561459337      -0.123669136
Nuclear contribution   :      1.379446231     -13.092703833       0.750085181
                        -----------------------------------------
Total Dipole Moment    :      0.275125968      -1.531244495       0.626416045
                        -----------------------------------------
Magnitude (a.u.)       :      1.677140741
Magnitude (Debye)      :      4.262952981



--------------------
Rotational spectrum 
--------------------
 
Rotational constants in cm-1:             0.012328             0.004601             0.004133 
Rotational constants in MHz :           369.571934           137.943083           123.895526 

Dipole components along the rotational axes: 
x,y,z [a.u.] :    -0.706857     0.746959    -1.324842 
x,y,z [Debye]:    -1.796688     1.898620    -3.367480 

 

Dipole moment calculation done in   0.0 sec 

Maximum memory used throughout the entire PROP-calculation: 50.6 MB

--------------------------------
SUGGESTED CITATIONS FOR THIS RUN
--------------------------------

Below you find a list of papers that are relevant to this ORCA run
We neither can nor want to force you to cite these papers, but we appreciate if you do
You receive ORCA, which is the product of decades of hard work by many enthusiastic individuals, for free
The only thing we kindly ask in return is that you cite our papers,
We deeply appreciate it, if you show your appreciation for ORCA by not just citing the generic ORCA reference.

Please note that relegating all ORCA citations to the supporting information does *not* help us.
SI sections are not indexed - citations you put there will not count into any citation statistics
But we need these citations in order to attract the funding resources that allow us to do what we are doing

Therefore, if you are a happy ORCA user, please consider citing a few of the papers listed below in the main body of your paper

In addition to the list printed below, the program has created the file sp_gas.bibtex that contains the list in bibtex format
You can import this file easily into all common literature databanks and citation aid programs


List of essential papers. We consider these as the minimum necessary citations

  1. Neese,F.
     Software update: the ORCA program system, version 5.0
     WIRES Comput. Molec. Sci., 2022 12(1)e1606
     doi.org/10.1002/wcms.1606
  2. Grimme,S.; Hansen,A.; Ehlert,S.; Mewes,J.
     r2SCAN-3c: A 'Swiss army knife' composite electronic-structure method
     J. Chem. Phys., 2021 154 064103
     doi.org/10.1063/5.0040021

List of papers to cite with high priority. The work reported in these papers was absolutely
necessary for this run to complete.
Our perspective: the developers of density functionals and basis sets usually get cited in chemistry papers
Good! But without the algorithms to do something with them, the functionals or basis sets would not do anything.
Hence, in our opinion, the algorithm design and method developments papers are equally worthy of getting cited

  1. Neese,F.
     An improvement of the resolution of the identity approximation for the formation of the Coulomb matrix
     J. Comp. Chem., 2003 24(14)1740-1747
     doi.org/10.1002/jcc.10318
  2. Neese,F.
     The SHARK Integral Generation and Digestion System
     J. Comp. Chem., 2022  1-16
     doi.org/10.1002/jcc.26942
  3. Lehtola,S.; Steigemann,C.; Oliveira,M.; Marques,M.
     Recent developments in Libxc - A comprehensive library of functionals for density functional theory
     Software X, 2018 7 
     doi.org/10.1016/j.softx.2017.11.002
  4. Caldeweyher,E.; Bannwarth,C.; Grimme,S.
     Extension of the D3 dispersion coefficient model
     J. Chem. Phys., 2017 147 034112-XXXX
     doi.org/10.1063/1.4993215
  5. Caldeweyher,E.; Ehlert,S.; Hansen,A.; Neugebauer,H.; Spicher,S.; Bannwarth,C.; Grimme,S.
     A generally applicable atomic-charge dependent London dispersion correction
     J. Chem. Phys., 2019 150 154122-XXXX
     doi.org/10.1063/1.5090222
  6. Caldeweyher,E.; Mewes,J.; Ehlert,S.; Grimme,S.
     Extension and evaluation of the D4 London-dispersion model for periodic systems
     Phys. Chem. Chem. Phys., 2020 22(16)8499-8512
     doi.org/10.1039/D0CP00502A

List of suggested additional citations. These are papers that are important in the 'surrounding' of 
of this run, or papers that preceded the highly important papers. If you like your results we are grateful for a citation.

  1. Neese,F.
     The ORCA program system
     WIRES Comput. Molec. Sci., 2012 2(1)73-78
     doi.org/10.1002/wcms.81
  2. Neese,F.
     Software update: the ORCA program system, version 4.0
     WIRES Comput. Molec. Sci., 2018 8(1)1-6
     doi.org/10.1002/wcms.1327
  3. Neese,F.; Wennmohs,F.; Becker,U.; Riplinger,C.
     The ORCA quantum chemistry program package
     J. Chem. Phys., 2020 152 Art. No. L224108
     doi.org/10.1063/5.0004608

List of optional additional citations

  1. Neese,F.
     Approximate second-order SCF convergence for spin unrestricted wavefunctions
     Chem. Phys. Lett., 2000 325(1-3)93-98
     doi.org/10.1016/s0009-2614(00)00662-x

Timings for individual modules:

Sum of individual times          ...       79.278 sec (=   1.321 min)
Startup calculation              ...        3.005 sec (=   0.050 min)   3.8 %
SCF iterations                   ...       76.131 sec (=   1.269 min)  96.0 %
Property calculations            ...        0.143 sec (=   0.002 min)   0.2 %
                             ****ORCA TERMINATED NORMALLY****
TOTAL RUN TIME: 0 days 0 hours 1 minutes 20 seconds 73 msec
