      -----------------------------------------------------------      
     |                   =====================                   |     
     |                           x T B                           |     
     |                   =====================                   |     
     |                         S. Grimme                         |     
     |          Mulliken Center for Theoretical Chemistry        |     
     |                    University of Bonn                     |     
      -----------------------------------------------------------      

   * xtb version 6.7.1 (edcfbbe) compiled by 'albert@albert-system' on 2024-07-22

   xtb is free software: you can redistribute it and/or modify it under
   the terms of the GNU Lesser General Public License as published by
   the Free Software Foundation, either version 3 of the License, or
   (at your option) any later version.
   
   xtb is distributed in the hope that it will be useful,
   but WITHOUT ANY WARRANTY; without even the implied warranty of
   MERCHANTABILITY or FITNESS FOR A PARTICULAR PURPOSE.  See the
   GNU Lesser General Public License for more details.
   
   Cite this work as:
   * C. Bannwarth, E. Caldeweyher, S. Ehlert, A. Hansen, P. Pracht,
     J. Seibert, S. Spicher, S. Grimme, WIREs Comput. Mol. Sci., 2020, 11,
     e01493. DOI: 10.1002/wcms.1493
   
   for GFN2-xTB:
   * C. Bannwarth, S. Ehlert and S. Grimme., J. Chem. Theory Comput., 2019,
     15, 1652-1671. DOI: 10.1021/acs.jctc.8b01176
   for GFN1-xTB:
   * S. Grimme, C. Bannwarth, P. Shushkov, J. Chem. Theory Comput., 2017,
     13, 1989-2009. DOI: 10.1021/acs.jctc.7b00118
   for GFN0-xTB:
   * P. Pracht, E. Caldeweyher, S. Ehlert, S. Grimme, ChemRxiv, 2019, preprint.
     DOI: 10.26434/chemrxiv.8326202.v1
   for GFN-FF:
   * S. Spicher and S. Grimme, Angew. Chem. Int. Ed., 2020, 59, 15665-15673.
     DOI: 10.1002/anie.202004239
   
   for ALPB and GBSA implicit solvation:
   * S. Ehlert, M. Stahn, S. Spicher, S. Grimme, J. Chem. Theory Comput.,
     2021, 17, 4250-4261. DOI: 10.1021/acs.jctc.1c00471
   
   for ddCOSMO and CPCM-X implicit solvation:
   * M. Stahn, S. Ehlert, S. Grimme, J. Phys. Chem. A,
     2023, XX, XXXX-XXXX. DOI: 10.1021/acs.jpca.3c04382
   
   for DFT-D4:
   * E. Caldeweyher, C. Bannwarth and S. Grimme, J. Chem. Phys., 2017,
     147, 034112. DOI: 10.1063/1.4993215
   * E. Caldeweyher, S. Ehlert, A. Hansen, H. Neugebauer, S. Spicher,
     C. Bannwarth and S. Grimme, J. Chem. Phys., 2019, 150, 154122.
     DOI: 10.1063/1.5090222
   * E. Caldeweyher, J.-M. Mewes, S. Ehlert and S. Grimme, Phys. Chem. Chem. Phys.
     2020, 22, 8499-8512. DOI: 10.1039/D0CP00502A
   
   for sTDA-xTB:
   * S. Grimme and C. Bannwarth, J. Chem. Phys., 2016, 145, 054103.
     DOI: 10.1063/1.4959605
   
   in the mass-spec context:
   * V. Asgeirsson, C. Bauer and S. Grimme, Chem. Sci., 2017, 8, 4879.
     DOI: 10.1039/c7sc00601b
   * J. Koopman and S. Grimme, ACS Omega 2019, 4, 12, 15120-15133.
     DOI: 10.1021/acsomega.9b02011
   
   for metadynamics refer to:
   * S. Grimme, J. Chem. Theory Comput., 2019, 155, 2847-2862
     DOI: 10.1021/acs.jctc.9b00143
   
   for SPH calculations refer to:
   * S. Spicher and S. Grimme, J. Chem. Theory Comput., 2021, 17, 1701-1714
     DOI: 10.1021/acs.jctc.0c01306
   
   for ONIOM refer to:
   * C. Plett, A. Katbashev, S. Ehlert, S. Grimme, M. Bursch,
     Phys. Chem. Chem. Phys., 2023, 25, 17860-17868. DOI: 10.1039/D3CP02178E
   
   for DIPRO refer to:
   * J. Kohn, N. Gildemeister, S. Grimme, D. Fazzi, A. Hansen,
     J. Chem. Phys., 2023, just accepted.
   
   for PTB refer to:
   * S. Grimme, M. Mueller, A. Hansen, J. Chem. Phys., 2023, 158, 124111.
     DOI: 10.1063/5.0137838
   
   with help from (in alphabetical order)
   P. Atkinson, C. Bannwarth, F. Bohle, G. Brandenburg, E. Caldeweyher
   M. Checinski, S. Dohm, S. Ehlert, S. Ehrlich, I. Gerasimov, C. Hölzer
   A. Katbashev, J. Kohn, J. Koopman, C. Lavigne, S. Lehtola, F. März, M. Müller,
   F. Musil, H. Neugebauer, J. Pisarek, C. Plett, P. Pracht, F. Pultar,
   J. Seibert, P. Shushkov, S. Spicher, M. Stahn, M. Steiner, T. Strunk,
   J. Stückrath, T. Rose, and J. Unsleber
   
 * started run on 2025/04/09 at 05:21:00.174     
   ID    Z sym.   atoms
    1    6 C      1, 2, 7, 8, 10, 15, 16, 18, 19
    2    8 O      3, 6, 14, 17
    3   15 P      4, 12
    4   16 S      5, 9, 11, 13
    5    1 H      20-41

           -------------------------------------------------
          |                Calculation Setup                |
           -------------------------------------------------

          program call               : /srv/scratch/z5358697/.xtb/bin/xtb solv.coord --gfn2 --sp --chrg 0 --norestart --parallel 1 --alpb water reference -I xtb_sp-xcontrol-inp
          hostname                   : k163
          coordinate file            : solv.coord
          omp threads                :                     1


           -------------------------------------------------
          |                 G F N 2 - x T B                 |
           -------------------------------------------------

        Reference                      10.1021/acs.jctc.8b01176
      * Hamiltonian:
        H0-scaling (s, p, d)           1.850000    2.230000    2.230000
        zeta-weighting                 0.500000
      * Dispersion:
        s8                             2.700000
        a1                             0.520000
        a2                             5.000000
        s9                             5.000000
      * Repulsion:
        kExp                           1.500000    1.000000
        rExp                           1.000000
      * Coulomb:
        alpha                          2.000000
        third order                    shell-resolved
        anisotropic                    true
        a3                             3.000000
        a5                             4.000000
        cn-shift                       1.200000
        cn-exp                         4.000000
        max-rad                        5.000000

      * Solvation model:               ALPB
        Solvent                        water
        Parameter file                 internal GFN2-xTB/ALPB
        Dielectric constant                8.0200E+01
        Reference state                gsolv=reference [X=1]
        Free energy shift                  2.8945E-03 Eh       1.8164E+00 kcal/mol
        Temperature                        2.9815E+02 K
        Density                            1.0000E+00 kg/L
        Solvent mass                       1.8000E+01 g/mol
        Interaction kernel             P16
        Born radius scaling (c1)           1.4744E+00
        Born radii integrator          GBOBC
        Born offset                        0.0000E+00 a0       0.0000E+00 AA
        H-bond correction              true
        Ion screening                  false
        Surface tension                    1.0000E-05 Eh       1.5569E+01 dyn/cm
        Grid points                               974 per atom

          ...................................................
          :                      SETUP                      :
          :.................................................:
          :  # basis functions                 134          :
          :  # atomic orbitals                 128          :
          :  # shells                           66          :
          :  # electrons                       116          :
          :  max. iterations                   250          :
          :  Hamiltonian                  GFN2-xTB          :
          :  restarted?                      false          :
          :  GBSA solvation                   true          :
          :  PC potential                    false          :
          :  electronic temp.          300.0000000     K    :
          :  accuracy                    1.0000000          :
          :  -> integral cutoff          0.2500000E+02      :
          :  -> integral neglect         0.1000000E-07      :
          :  -> SCF convergence          0.1000000E-05 Eh   :
          :  -> wf. convergence          0.1000000E-03 e    :
          :  Broyden damping             0.4000000          :
          :  net charge                          0          :
          :  unpaired electrons                  0          :
          ...................................................

 iter      E             dE          RMSdq      gap      omega  full diag
   1    -65.4395057 -0.654395E+02  0.628E+00    4.21       0.0  T
   2    -65.5631859 -0.123680E+00  0.356E+00    3.57       1.0  T
   3    -65.5830304 -0.198445E-01  0.115E+00    3.17       1.0  T
   4    -65.5855772 -0.254685E-02  0.519E-01    3.12       1.0  T
   5    -65.5863090 -0.731704E-03  0.278E-01    3.18       1.0  T
   6    -65.5865107 -0.201699E-03  0.121E-01    3.18       1.0  T
   7    -65.5865636 -0.529802E-04  0.434E-02    3.20       1.0  T
   8    -65.5865680 -0.436976E-05  0.179E-02    3.20       1.0  T
   9    -65.5865689 -0.905321E-06  0.545E-03    3.20       2.9  T
  10    -65.5865689 -0.148751E-07  0.236E-03    3.20       6.6  T
  11    -65.5865690 -0.301153E-07  0.601E-04    3.20      26.0  T
  12    -65.5865690 -0.549790E-09  0.311E-04    3.20      50.3  T

   *** convergence criteria satisfied after 12 iterations ***

         #    Occupation            Energy/Eh            Energy/eV
      -------------------------------------------------------------
         1        2.0000           -0.7674675             -20.8839
       ...           ...                  ...                  ...
        52        2.0000           -0.4455834             -12.1249
        53        2.0000           -0.4211952             -11.4613
        54        2.0000           -0.4118236             -11.2063
        55        2.0000           -0.4016753             -10.9301
        56        2.0000           -0.3993345             -10.8664
        57        2.0000           -0.3944553             -10.7337
        58        2.0000           -0.3903978             -10.6233 (HOMO)
        59                         -0.2727856              -7.4229 (LUMO)
        60                         -0.2642564              -7.1908
        61                         -0.2204694              -5.9993
        62                         -0.1901157              -5.1733
        63                         -0.1860119              -5.0616
       ...                                ...                  ...
       128                          1.3173621              35.8472
      -------------------------------------------------------------
                  HL-Gap            0.1176122 Eh            3.2004 eV
             Fermi-level           -0.3315917 Eh           -9.0231 eV

 SCC (total)                   0 d,  0 h,  0 min,  0.058 sec
 SCC setup                      ...        0 min,  0.003 sec (  4.351%)
 Dispersion                     ...        0 min,  0.000 sec (  0.527%)
 classical contributions        ...        0 min,  0.000 sec (  0.098%)
 integral evaluation            ...        0 min,  0.009 sec ( 14.714%)
 iterations                     ...        0 min,  0.025 sec ( 42.202%)
 molecular gradient             ...        0 min,  0.022 sec ( 37.648%)
 printout                       ...        0 min,  0.000 sec (  0.436%)

         :::::::::::::::::::::::::::::::::::::::::::::::::::::
         ::                     SUMMARY                     ::
         :::::::::::::::::::::::::::::::::::::::::::::::::::::
         :: total energy             -65.025579399155 Eh    ::
         :: total w/o Gsasa/hb       -65.028855977248 Eh    ::
         :: gradient norm              0.000046610557 Eh/a0 ::
         :: HOMO-LUMO gap              3.200390761087 eV    ::
         ::.................................................::
         :: SCC energy               -65.585696538462 Eh    ::
         :: -> isotropic ES            0.128356360484 Eh    ::
         :: -> anisotropic ES         -0.018383093420 Eh    ::
         :: -> anisotropic XC          0.029386563314 Eh    ::
         :: -> dispersion             -0.053264054686 Eh    ::
         :: -> Gsolv                  -0.024575875097 Eh    ::
         ::    -> Gelec               -0.027852453189 Eh    ::
         ::    -> Gsasa                0.004455591152 Eh    ::
         ::    -> Ghb                 -0.004073562221 Eh    ::
         ::    -> Gshift               0.002894549160 Eh    ::
         :: repulsion energy           0.560117139307 Eh    ::
         :: add. restraining           0.000000000000 Eh    ::
         :: total charge               0.000000000000 e     ::
         :::::::::::::::::::::::::::::::::::::::::::::::::::::

           -------------------------------------------------
          |                Property Printout                |
           -------------------------------------------------

    * Orbital Energies and Occupations

         #    Occupation            Energy/Eh            Energy/eV
      -------------------------------------------------------------
         1        2.0000           -0.7674675             -20.8839
       ...           ...                  ...                  ...
        46        2.0000           -0.4685204             -12.7491
        47        2.0000           -0.4612385             -12.5509
        48        2.0000           -0.4578874             -12.4598
        49        2.0000           -0.4566260             -12.4254
        50        2.0000           -0.4535765             -12.3424
        51        2.0000           -0.4498168             -12.2401
        52        2.0000           -0.4455834             -12.1249
        53        2.0000           -0.4211952             -11.4613
        54        2.0000           -0.4118236             -11.2063
        55        2.0000           -0.4016753             -10.9301
        56        2.0000           -0.3993345             -10.8664
        57        2.0000           -0.3944553             -10.7337
        58        2.0000           -0.3903978             -10.6233 (HOMO)
        59                         -0.2727856              -7.4229 (LUMO)
        60                         -0.2642564              -7.1908
        61                         -0.2204694              -5.9993
        62                         -0.1901157              -5.1733
        63                         -0.1860119              -5.0616
        64                         -0.1724697              -4.6931
        65                         -0.1641598              -4.4670
        66                         -0.1573009              -4.2804
        67                         -0.1331561              -3.6234
        68                         -0.1249989              -3.4014
        69                         -0.0503449              -1.3700
       ...                                ...                  ...
       128                          1.3173621              35.8472
      -------------------------------------------------------------
                  HL-Gap            0.1176122 Eh            3.2004 eV
             Fermi-level           -0.3315917 Eh           -9.0231 eV

     #   Z          covCN         q      C6AA      α(0)
     1   6 C        3.752    -0.133    23.112     6.856
     2   6 C        3.882     0.082    19.176     6.226
     3   8 O        1.655    -0.256    18.258     5.768
     4  15 P        3.865     0.354   145.443    21.664
     5  16 S        0.926    -0.440   158.535    21.297
     6   8 O        1.653    -0.252    18.197     5.758
     7   6 C        3.853     0.084    19.152     6.224
     8   6 C        3.751    -0.133    23.124     6.858
     9  16 S        2.012    -0.165   148.011    20.476
    10   6 C        3.805     0.034    19.993     6.365
    11  16 S        2.004    -0.100   145.246    20.284
    12  15 P        3.871     0.372   144.769    21.614
    13  16 S        0.928    -0.495   161.156    21.472
    14   8 O        1.656    -0.257    18.276     5.771
    15   6 C        3.866     0.082    19.185     6.229
    16   6 C        3.751    -0.129    23.031     6.844
    17   8 O        1.655    -0.256    18.253     5.767
    18   6 C        3.862     0.075    19.296     6.247
    19   6 C        3.751    -0.128    23.024     6.843
    20   1 H        0.925     0.069     2.093     2.263
    21   1 H        0.925     0.076     2.022     2.224
    22   1 H        0.925     0.085     1.932     2.174
    23   1 H        0.924     0.067     2.123     2.278
    24   1 H        0.924     0.057     2.230     2.335
    25   1 H        0.924     0.080     1.975     2.198
    26   1 H        0.924     0.067     2.122     2.278
    27   1 H        0.925     0.070     2.088     2.259
    28   1 H        0.925     0.090     1.880     2.144
    29   1 H        0.925     0.071     2.080     2.255
    30   1 H        0.925     0.123     1.587     1.970
    31   1 H        0.924     0.083     1.944     2.181
    32   1 H        0.924     0.091     1.866     2.136
    33   1 H        0.924     0.052     2.301     2.372
    34   1 H        0.925     0.054     2.276     2.359
    35   1 H        0.925     0.075     2.032     2.229
    36   1 H        0.925     0.085     1.926     2.170
    37   1 H        0.924     0.094     1.837     2.119
    38   1 H        0.924     0.062     2.175     2.306
    39   1 H        0.925     0.051     2.305     2.374
    40   1 H        0.925     0.073     2.052     2.240
    41   1 H        0.925     0.085     1.925     2.170

 Mol. C6AA /au·bohr⁶  :      26399.894836
 Mol. C8AA /au·bohr⁸  :     862724.251685
 Mol. α(0) /au        :        257.597941


Wiberg/Mayer (AO) data.
largest (>0.10) Wiberg bond orders for each atom

 ---------------------------------------------------------------------------
     #   Z sym  total        # sym  WBO       # sym  WBO       # sym  WBO
 ---------------------------------------------------------------------------
     1   6 C    3.982 --     2 C    1.018    20 H    0.983    21 H    0.982
                            22 H    0.976
     2   6 C    3.892 --     1 C    1.018    23 H    0.969    24 H    0.968
                             3 O    0.886
     3   8 O    2.400 --     4 P    1.315     2 C    0.886
     4  15 P    5.330 --     5 S    1.554     6 O    1.363     3 O    1.315
                             9 S    0.952
     5  16 S    1.890 --     4 P    1.554     9 S    0.140
     6   8 O    2.412 --     4 P    1.363     7 C    0.861
     7   6 C    3.882 --     8 C    1.020    25 H    0.967    26 H    0.964
                             6 O    0.861
     8   6 C    3.982 --     7 C    1.020    27 H    0.983    29 H    0.979
                            28 H    0.974
     9  16 S    2.270 --    10 C    0.980     4 P    0.952     5 S    0.140
    10   6 C    3.947 --    11 S    0.989     9 S    0.980    30 H    0.958
                            31 H    0.944
    11  16 S    2.299 --    12 P    1.005    10 C    0.989    13 S    0.133
    12  15 P    5.309 --    13 S    1.495    14 O    1.329    17 O    1.325
                            11 S    1.005
    13  16 S    1.828 --    12 P    1.495    11 S    0.133
    14   8 O    2.401 --    12 P    1.329    15 C    0.879
    15   6 C    3.891 --    16 C    1.022    32 H    0.966    33 H    0.964
                            14 O    0.879
    16   6 C    3.986 --    15 C    1.022    35 H    0.982    34 H    0.979
                            36 H    0.976
    17   8 O    2.410 --    12 P    1.325    18 C    0.889
    18   6 C    3.891 --    19 C    1.022    38 H    0.968    37 H    0.964
                            17 O    0.889
    19   6 C    3.987 --    18 C    1.022    40 H    0.981    41 H    0.976
                            39 H    0.975
    20   1 H    0.995 --     1 C    0.983
    21   1 H    0.994 --     1 C    0.982
    22   1 H    0.991 --     1 C    0.976
    23   1 H    0.995 --     2 C    0.969
    24   1 H    0.997 --     2 C    0.968
    25   1 H    0.993 --     7 C    0.967
    26   1 H    0.996 --     7 C    0.964
    27   1 H    0.995 --     8 C    0.983
    28   1 H    0.990 --     8 C    0.974
    29   1 H    0.995 --     8 C    0.979
    30   1 H    0.984 --    10 C    0.958
    31   1 H    0.993 --    10 C    0.944
    32   1 H    0.991 --    15 C    0.966
    33   1 H    0.997 --    15 C    0.964
    34   1 H    0.997 --    16 C    0.979
    35   1 H    0.994 --    16 C    0.982
    36   1 H    0.991 --    16 C    0.976
    37   1 H    0.991 --    18 C    0.964
    38   1 H    0.996 --    18 C    0.968
    39   1 H    0.997 --    19 C    0.975
    40   1 H    0.995 --    19 C    0.981
    41   1 H    0.992 --    19 C    0.976
 ---------------------------------------------------------------------------

Topologies differ in total number of bonds
Writing topology from bond orders to xtbtopo.mol

molecular dipole:
                 x           y           z       tot (Debye)
 q only:        0.266      -1.385       2.532
   full:        0.199      -0.854       2.639       7.069
molecular quadrupole (traceless):
                xx          xy          yy          xz          yz          zz
 q only:       32.383      -6.639     -23.201      10.503      22.504      -9.182
  q+dip:       30.870      -6.927     -20.234       7.904      19.006     -10.636
   full:       31.603      -6.884     -21.121       8.251      20.562     -10.481


           -------------------------------------------------
          | TOTAL ENERGY              -65.025579399155 Eh   |
          | GRADIENT NORM               0.000046610557 Eh/α |
          | HOMO-LUMO GAP               3.200390761087 eV   |
           -------------------------------------------------

------------------------------------------------------------------------
 * finished run on 2025/04/09 at 05:21:00.270     
------------------------------------------------------------------------
 total:
 * wall-time:     0 d,  0 h,  0 min,  0.096 sec
 *  cpu-time:     0 d,  0 h,  0 min,  0.071 sec
 * ratio c/w:     0.745 speedup
 SCF:
 * wall-time:     0 d,  0 h,  0 min,  0.058 sec
 *  cpu-time:     0 d,  0 h,  0 min,  0.058 sec
 * ratio c/w:     0.990 speedup

