
                                 *****************
                                 * O   R   C   A *
                                 *****************

                                            #,                                       
                                            ###                                      
                                            ####                                     
                                            #####                                    
                                            ######                                   
                                           ########,                                 
                                     ,,################,,,,,                         
                               ,,#################################,,                 
                          ,,##########################################,,             
                       ,#########################################, ''#####,          
                    ,#############################################,,   '####,        
                  ,##################################################,,,,####,       
                ,###########''''           ''''###############################       
              ,#####''   ,,,,##########,,,,          '''####'''          '####       
            ,##' ,,,,###########################,,,                        '##       
           ' ,,###''''                  '''############,,,                           
         ,,##''                                '''############,,,,        ,,,,,,###''
      ,#''                                            '''#######################'''  
     '                                                          ''''####''''         
             ,#######,   #######,   ,#######,      ##                                
            ,#'     '#,  ##    ##  ,#'     '#,    #''#        ,####,   ,####,        
            ##       ##  ##   ,#'  ##            #'  '#       #'       #'  '#        
            ##       ##  #######   ##           ,######,      #####,   #    #        
            '#,     ,#'  ##    ##  '#,     ,#' ,#      #,     #,   #   #,  ,#        
             '#######'   ##     ##  '#######'  #'      '#     '####' # '####'        



                #########################################################
                #                        -***-                          #
                #          Department of theory and spectroscopy        #
                #                                                       #
                #                      Frank Neese                      #
                #                                                       #
                #     Directorship, Architecture, Infrastructure        #
                #                    SHARK, DRIVERS                     #
                #        Core code/Algorithms in most modules           #
                #                                                       #
                #        Max Planck Institute fuer Kohlenforschung      #
                #                Kaiser Wilhelm Platz 1                 #
                #                 D-45470 Muelheim/Ruhr                 #
                #                      Germany                          #
                #                                                       #
                #                  All rights reserved                  #
                #                        -***-                          #
                #########################################################


                         Program Version 6.0.1  -  RELEASE   -


 With contributions from (in alphabetic order):
[Max-Planck-Institut fuer Kohlenforschung]                               
  Daniel Aravena         : Magnetic Suceptibility                        
  Michael Atanasov       : Ab Initio Ligand Field Theory (pilot matlab implementation)
  Alexander A. Auer      : GIAO ZORA, VPT2 properties, NMR spectrum      
  Ute Becker             : All parallelization in ORCA, NUMFREQ, NUMCALC 
  Giovanni Bistoni       : ED, misc. LED, open-shell LED, HFLD           
  Martin Brehm           : Molecular dynamics                            
  Dmytro Bykov           : pre 5.0 version of the SCF Hessian            
  Marcos Casanova-Páez   : Triplet and SCS-CIS(D). UHF-(DLPNO)-IP/EA/STEOM-CCSD. UHF-CVS-IP/STEOM-CCSD   
  Vijay G. Chilkuri      : MRCI spin determinant printing, contributions to CSF-ICE 
  Pauline Colinet        : FMM embedding                                 
  Dipayan Datta          : RHF DLPNO-CCSD density                        
  Achintya Kumar Dutta   : EOM-CC, STEOM-CC                              
  Nicolas Foglia         : Exact transition moments, OPA infrastructure, MCD improvements    
  Dmitry Ganyushin       : Spin-Orbit,Spin-Spin,Magnetic field MRCI      
  Miquel Garcia-Rates    : C-PCM and meta-GGA Hessian, CCSD/C-PCM, Gaussian charge scheme 
  Tiago L. C. Gouveia    : GS-ROHF, GS-ROCIS                             
  Yang Guo               : DLPNO-NEVPT2, F12-NEVPT2, CIM, IAO-localization        
  Andreas Hansen         : Spin unrestricted coupled pair/coupled cluster methods 
  Ingolf Harden          : AUTO-CI MPn and infrastructure                
  Benjamin Helmich-Paris : MC-RPA, TRAH-(SCF,CASSCF), AVAS, COSX integrals, SCF dyn. polar. 
  Lee Huntington         : MR-EOM, pCC                                   
  Robert Izsak           : Overlap fitted RIJCOSX, COSX-SCS-MP3, EOM     
  Riya Kayal             : Wick's Theorem for AUTO-CI, AUTO-CI UHF-CCSDT 
  Emily Kempfer          : AUTO-CI, RHF CISDT and CCSDT                  
  Christian Kollmar      : KDIIS, OOCD, Brueckner-CCSD(T), CCSD density, CASPT2, CASPT2-K, improved NEVPT2 
  Axel Koslowski         : Symmetry handling                             
  Simone Kossmann        : meta-GGA functionals, TD-DFT gradient, OOMP2, (MP2 Hessian; deprecated post 5.0) 
  Lucas Lang             : DCDCAS                                        
  Marvin Lechner         : AUTO-CI (C++ implementation), FIC-MRCC        
  Spencer Leger          : CASSCF response                               
  Dagmar Lenk            : GEPOL surface, SMD, ORCA-2-JSON               
  Dimitrios Liakos       : Extrapolation schemes; Compound Job, initial MDCI parallelization 
  Dimitrios Manganas     : Further ROCIS development; embedding schemes. LFT, Crystal Embedding 
  Dimitrios Pantazis     : SARC Basis sets                               
  Anastasios Papadopoulos: AUTO-CI, single reference methods and gradients 
  Taras Petrenko         : pre 6.0 DFT Hessian and TD-DFT gradient, (ASA, deprecated), ECA, 1-Electron XAS/XES, NRVS 
  Peter Pinski           : DLPNO-MP2, DLPNO-MP2 Gradient                 
  Christoph Reimann      : Effective Core Potentials                     
  Marius Retegan         : Local ZFS, SOC                                
  Christoph Riplinger    : Optimizer, TS searches, QM/MM, DLPNO-CCSD(T), (RO)-DLPNO pert. Triples 
  Michael Roemelt        : Original ROCIS implementation                 
  Masaaki Saitow         : Open-shell DLPNO-CCSD energy and density      
  Barbara Sandhoefer     : DKH picture change effects                    
  Kantharuban Sivalingam : CASSCF convergence/infrastructure, NEVPT2 and variants, FIC-MRCI 
  Bernardo de Souza      : ESD, SOC TD-DFT                               
  Georgi L. Stoychev     : AutoAux, RI-MP2 NMR, DLPNO-MP2 response, X2C  
  Van Anh Tran           : RI-MP2 g-tensors                              
  Willem Van den Heuvel  : Paramagnetic NMR                              
  Zikuan Wang            : NOTCH, Electric field optimization            
  Frank Wennmohs         : Technical directorship and infrastructure     
  Hang Xu                : AUTO-CI-Response properties                   
                                                                         
[FACCTs GmbH]                                                            
  Markus Bursch, Miquel Garcia-Rates, Christoph Riplinger, Bernardo de Souza, Georgi L. Stoychev 
                                                                 
  APM, Basis sets (HGBS, AHGBS, def-TZVP (Ac-Lr), def2-XVPD (La-Lu)), CI-OPT, improved COSX, DLPNO-Multilevel,           
  DOCKER, DRACO, updates on ESD, GOAT, IRC, LR-CPCM, MBIS, meta-GGA TD-DFT gradient, ML-optimized integration grids, 
  MM, NACMEs, nearIR, NEB, NEB-TS, NL-DFT gradient (VV10), 2- and 3-layer-ONIOM, interface openCOSMO-RS, QMMM,   
  Crystal-QMMM, SF, symmetry and pop. for TD-DFT, r2SCAN hybrids, SOLVATOR                                   
                                                                         
[Other institutions]                                                     
  V. Asgeirsson          : NEB                                           
  Christoph Bannwarth    : sTDA-DFT, sTD-DFT, PBEh-3c, B97-3c, D3        
  Sebastian Ehlert       : rSCAN, r2SCAN, r2SCAN-3c, D4, dhf basis sets  
  Marvin Friede          : D4 for Fr, Ra, Ac-Lr                          
  Lars Goerigk           : TD-DFT with DH, B97 family of functionals     
  Stefan Grimme          : VdW corrections, initial TS optimization, DFT functionals, gCP, sTDA/sTD-DF 
  Waldemar Hujo          : DFT-NL                                        
  H. Jonsson             : NEB                                           
  Holger Kruse           : gCP                                           
  Marcel Mueller         : wB97X-3c, vDZP basis set                      
  Hagen Neugebauer       : wr2SCAN                                       
  Tobias Risthaus        : range-separated hybrid DFT                    
  Lukas Wittmann         : regularized MP2, r2SCAN double-hybrids, wr2SCAN        
                                                                         
We gratefully acknowledge several colleagues who have allowed us to      
interface, adapt or use parts of their codes:                            
  Ed Valeev, F. Pavosevic, A. Kumar             : LibInt (2-el integral package), F12 methods 
  Garnet Chan, S. Sharma, J. Yang, R. Olivares  : DMRG                   
  Ulf Ekstrom                                   : XCFun DFT Library      
  Mihaly Kallay                                 : mrcc  (arbitrary order and MRCC methods)
  Frank Weinhold                                : gennbo (NPA and NBO analysis)           
  Simon Mueller                                 : openCOSMO-RS                            
  Christopher J. Cramer and Donald G. Truhlar   : smd solvation model                     
  S Lehtola, MJT Oliveira, MAL Marques          : LibXC Library                           
  Liviu Ungur et al                             : ANISO software                          


 Your calculation uses the libint2 library for the computation of 2-el integrals
 For citations please refer to: http://libint.valeyev.net

 Your ORCA version has been built with support for libXC version: 6.2.2
 For citations please refer to: https://libxc.gitlab.io

 This ORCA versions uses:
   CBLAS   interface :  Fast vector & matrix operations
   LAPACKE interface :  Fast linear algebra routines
   SCALAPACK package :  Parallel linear algebra routines
   Shared memory     :  Shared parallel matrices
   BLAS/LAPACK       :  OpenBLAS 0.3.27  USE64BITINT DYNAMIC_ARCH NO_AFFINITY Zen SINGLE_THREADED
        Core in use  :  Zen
   Copyright (c) 2011-2014, The OpenBLAS Project


Your calculation utilizes the geometrical counterpoise correction gCP
Please cite in your paper:
H.Kruse, S. Grimme J.Chem.Phys., 136, (2012), 154101 
   

Your calculation utilizes the atom-pairwise dispersion correction
based on EEQ partial charges (D4)


Your calculation utilizes the SMD solvation module
Please cite in your paper:
A.V. Marenich, C.J. Cramer, D.G. Truhlar J. Phys. Chem. B, 113, (2009), 6378 

================================================================================

----- Orbital basis set information -----
Your calculation utilizes the basis: def2-mTZVPP
   Stefan Grimme, Andreas Hansen, Sebastian Ehlert, and Jan-Michael Mewes 
   J. Chem. Phys. 154, 064103 (2021). DOI: 10.1063/5.0040021

----- AuxJ basis set information -----
Your calculation utilizes the auxiliary basis: def2/J
   F. Weigend, Phys. Chem. Chem. Phys. 8, 1057 (2006).

================================================================================
                                        WARNINGS
                       Please study these warnings very carefully!
================================================================================

WARNING: Old DensityContainer found on disk!
         Will remove this file - 
         If you want to keep old densities, please start your calculation with a different basename. 



WARNING: SCAN, rSCAN, or r2SCAN functional requested.
  ===> : libXC variant has now been activated.



================================================================================
                                       INPUT FILE
================================================================================
NAME = sp_solv.inp
|  1> ! r2scan-3c def2/J RI DEFGRID2 scfconv6 printgap
|  2> %output
|  3>     printlevel normal
|  4> end
|  5> %cpcm
|  6>     smd true
|  7>     smdsolvent "water"
|  8> end
|  9> * xyz 0 1
| 10> C 5.1047805937 -3.0299934359 -0.7948945268
| 11> C 4.4507779015 -2.0322522685 0.1482516603
| 12> O 3.0197958744 -2.0248181747 -0.0141918894
| 13> C 2.5031738718 -1.2689915146 -0.959301569
| 14> O 3.1425891956 -0.5853477169 -1.7301874608
| 15> C 0.9888393544 -1.3813194128 -0.9957091182
| 16> C 0.4107604171 0.0122519611 -1.2059138833
| 17> H 0.840705169 0.4390063616 -2.120720671
| 18> C 0.8156246685 0.9348364018 -0.0716745329
| 19> O 1.8417849787 0.7789238593 0.5486356279
| 20> O -0.0324589596 1.9304345407 0.0970110853
| 21> C 0.2818544335 2.9279361253 1.0900350188
| 22> C 1.1315368993 4.0331897947 0.4877332395
| 23> S -1.3815704421 0.0077682342 -1.4949790794
| 24> P -2.1261416493 0.0566253075 0.497855898
| 25> S -0.9626766169 -0.6024508441 1.931556107
| 26> O -2.6894790074 1.5027727728 0.7873369367
| 27> C -3.6170298041 2.1561951213 -0.1046520108
| 28> O -3.4958963143 -0.7542104931 0.3388268913
| 29> C -3.5045077143 -2.1683853996 0.1118285518
| 30> H 4.9460722589 -2.726489536 -1.8270217747
| 31> H 6.1708788954 -3.0629796606 -0.5964790749
| 32> H 4.6801347926 -4.018671715 -0.6446431004
| 33> H 4.822579164 -1.0196924351 -0.0331723792
| 34> H 4.6020322047 -2.3086169174 1.1918170452
| 35> H 0.6467252943 -1.8201280982 -0.0575455715
| 36> H 0.7059795626 -2.0241871143 -1.8305259336
| 37> H -0.6891469918 3.2958303253 1.4227738276
| 38> H 0.7993254162 2.4345099065 1.9179660034
| 39> H 0.6244148372 4.4728941444 -0.3665741293
| 40> H 1.3024747936 4.7979915172 1.2378952785
| 41> H 2.0906910696 3.6330819207 0.1659365383
| 42> H -4.5469535303 1.5932867899 -0.1485892848
| 43> H -3.1792518269 2.2367824661 -1.0993968911
| 44> H -3.7807772743 3.1402148343 0.3265641574
| 45> H -3.1833171838 -2.3811336381 -0.9074431731
| 46> H -4.5341469142 -2.4822019084 0.2631383284
| 47> H -2.8463391365 -2.6671714025 0.8248342883
| 48> *
| 49> 
| 50>                          ****END OF INPUT****
================================================================================

                       ****************************
                       * Single Point Calculation *
                       ****************************

---------------------------------
CARTESIAN COORDINATES (ANGSTROEM)
---------------------------------
  C      5.104781   -3.029993   -0.794895
  C      4.450778   -2.032252    0.148252
  O      3.019796   -2.024818   -0.014192
  C      2.503174   -1.268992   -0.959302
  O      3.142589   -0.585348   -1.730187
  C      0.988839   -1.381319   -0.995709
  C      0.410760    0.012252   -1.205914
  H      0.840705    0.439006   -2.120721
  C      0.815625    0.934836   -0.071675
  O      1.841785    0.778924    0.548636
  O     -0.032459    1.930435    0.097011
  C      0.281854    2.927936    1.090035
  C      1.131537    4.033190    0.487733
  S     -1.381570    0.007768   -1.494979
  P     -2.126142    0.056625    0.497856
  S     -0.962677   -0.602451    1.931556
  O     -2.689479    1.502773    0.787337
  C     -3.617030    2.156195   -0.104652
  O     -3.495896   -0.754210    0.338827
  C     -3.504508   -2.168385    0.111829
  H      4.946072   -2.726490   -1.827022
  H      6.170879   -3.062980   -0.596479
  H      4.680135   -4.018672   -0.644643
  H      4.822579   -1.019692   -0.033172
  H      4.602032   -2.308617    1.191817
  H      0.646725   -1.820128   -0.057546
  H      0.705980   -2.024187   -1.830526
  H     -0.689147    3.295830    1.422774
  H      0.799325    2.434510    1.917966
  H      0.624415    4.472894   -0.366574
  H      1.302475    4.797992    1.237895
  H      2.090691    3.633082    0.165937
  H     -4.546954    1.593287   -0.148589
  H     -3.179252    2.236782   -1.099397
  H     -3.780777    3.140215    0.326564
  H     -3.183317   -2.381134   -0.907443
  H     -4.534147   -2.482202    0.263138
  H     -2.846339   -2.667171    0.824834

----------------------------
CARTESIAN COORDINATES (A.U.)
----------------------------
  NO LB      ZA    FRAG     MASS         X           Y           Z
   0 C     6.0000    0    12.011    9.646637   -5.725858   -1.502133
   1 C     6.0000    0    12.011    8.410751   -3.840400    0.280155
   2 O     8.0000    0    15.999    5.706587   -3.826352   -0.026819
   3 C     6.0000    0    12.011    4.730313   -2.398046   -1.812817
   4 O     8.0000    0    15.999    5.938633   -1.106147   -3.269580
   5 C     6.0000    0    12.011    1.868636   -2.610315   -1.881618
   6 C     6.0000    0    12.011    0.776225    0.023153   -2.278847
   7 H     1.0000    0     1.008    1.588703    0.829602   -4.007581
   8 C     6.0000    0    12.011    1.541307    1.766585   -0.135445
   9 O     8.0000    0    15.999    3.480469    1.471953    1.036771
  10 O     8.0000    0    15.999   -0.061339    3.647993    0.183324
  11 C     6.0000    0    12.011    0.532628    5.532997    2.059868
  12 C     6.0000    0    12.011    2.138295    7.621624    0.921682
  13 S    16.0000    0    32.060   -2.610790    0.014680   -2.825101
  14 P    15.0000    0    30.974   -4.017825    0.107006    0.940811
  15 S    16.0000    0    32.060   -1.819195   -1.138467    3.650112
  16 O     8.0000    0    15.999   -5.082379    2.839829    1.487851
  17 C     6.0000    0    12.011   -6.835196    4.074618   -0.197764
  18 O     8.0000    0    15.999   -6.606287   -1.425251    0.640290
  19 C     6.0000    0    12.011   -6.622560   -4.097655    0.211325
  20 H     1.0000    0     1.008    9.346722   -5.152319   -3.452571
  21 H     1.0000    0     1.008   11.661271   -5.788193   -1.127182
  22 H     1.0000    0     1.008    8.844173   -7.594189   -1.218199
  23 H     1.0000    0     1.008    9.113354   -1.926939   -0.062687
  24 H     1.0000    0     1.008    8.696581   -4.362654    2.252208
  25 H     1.0000    0     1.008    1.222134   -3.439544   -0.108745
  26 H     1.0000    0     1.008    1.334108   -3.825159   -3.459193
  27 H     1.0000    0     1.008   -1.302299    6.228217    2.688653
  28 H     1.0000    0     1.008    1.510506    4.600557    3.624430
  29 H     1.0000    0     1.008    1.179973    8.452545   -0.692725
  30 H     1.0000    0     1.008    2.461321    9.066890    2.339283
  31 H     1.0000    0     1.008    3.950834    6.865530    0.313575
  32 H     1.0000    0     1.008   -8.592497    3.010876   -0.280793
  33 H     1.0000    0     1.008   -6.007915    4.226906   -2.077559
  34 H     1.0000    0     1.008   -7.144634    5.934146    0.617117
  35 H     1.0000    0     1.008   -6.015598   -4.499690   -1.714819
  36 H     1.0000    0     1.008   -8.568296   -4.690682    0.497259
  37 H     1.0000    0     1.008   -5.378801   -5.040224    1.558711

--------------------------------
INTERNAL COORDINATES (ANGSTROEM)
--------------------------------
 C      0   0   0     0.000000000000     0.00000000     0.00000000
 C      1   0   0     1.520766809465     0.00000000     0.00000000
 O      2   1   0     1.440191908904   111.14520182     0.00000000
 C      3   2   1     1.315828461526   118.30013492   274.94356938
 O      4   3   2     1.212635912638   124.98866408     1.30018562
 C      4   3   2     1.518931235093   111.47961926   179.84358951
 C      6   4   3     1.523286734392   108.30040039   138.20172685
 H      7   6   4     1.097197915991   108.79455522    56.15284914
 C      7   6   4     1.517094597011   110.60333029   299.63583263
 O      9   7   6     1.209172609155   122.11402082    28.32712501
 O      9   7   6     1.318679768640   112.52829185   205.20486603
 C     11   9   7     1.442185443300   118.04175723   183.81331107
 C     12  11   9     1.518655128644   110.62407637    88.14914669
 S      7   6   4     1.815496819122   113.22633234   172.20823222
 P     14   7   6     2.127948435313   101.31881685    86.63798975
 S     15  14   7     1.960491913911   118.00142010   336.44701465
 O     15  14   7     1.578762408405   108.51788293   106.14073740
 C     17  15  14     1.443244791586   122.05376283    50.41769004
 O     15  14   7     1.599678956165   101.23716520   211.02387485
 C     19  15  14     1.432303413569   121.42367059    71.13803393
 H      1   2   3     1.087469359866   110.04440690    64.50430668
 H      1   2   3     1.084906618774   109.21523599   184.11259554
 H      1   2   3     1.086454917192   110.07070505   304.15685266
 H      2   1   3     1.093813639118   110.99565574   239.38045955
 H      2   1   3     1.090084398549   111.57434994   115.96976950
 H      6   4   3     1.090754753763   108.77390099    16.77058992
 H      6   4   3     1.090966387532   108.68763455   257.17865651
 H     12  11   9     1.090369215087   104.44233941   208.76409931
 H     12  11   9     1.093944864514   108.19419128   325.95217709
 H     13  12  11     1.086440878005   110.19724167    56.49637284
 H     13  12  11     1.084843086904   109.08625811   176.60149850
 H     13  12  11     1.087941243884   110.05485788   296.09277750
 H     18  17  15     1.087912868825   109.88012634    63.40419280
 H     18  17  15     1.089798721942   109.84317551   302.05524993
 H     18  17  15     1.086763733885   105.16175850   182.73860753
 H     20  19  15     1.089651329118   109.83114737   287.19546867
 H     20  19  15     1.086983133108   105.58595919   167.83921370
 H     20  19  15     1.091031866526   110.13196636    48.65815862

---------------------------
INTERNAL COORDINATES (A.U.)
---------------------------
 C      0   0   0     0.000000000000     0.00000000     0.00000000
 C      1   0   0     2.873832783446     0.00000000     0.00000000
 O      2   1   0     2.721568288118   111.14520182     0.00000000
 C      3   2   1     2.486555431503   118.30013492   274.94356938
 O      4   3   2     2.291549775044   124.98866408     1.30018562
 C      4   3   2     2.870364050585   111.47961926   179.84358951
 C      6   4   3     2.878594751436   108.30040039   138.20172685
 H      7   6   4     2.073403575932   108.79455522    56.15284914
 C      7   6   4     2.866893307602   110.60333029   299.63583263
 O      9   7   6     2.285005079942   122.11402082    28.32712501
 O      9   7   6     2.491943621072   112.52829185   205.20486603
 C     11   9   7     2.725335522164   118.04175723   183.81331107
 C     12  11   9     2.869842285013   110.62407637    88.14914669
 S      7   6   4     3.430791785147   113.22633234   172.20823222
 P     14   7   6     4.021239769848   101.31881685    86.63798975
 S     15  14   7     3.704792805060   118.00142010   336.44701465
 O     15  14   7     2.983428582415   108.51788293   106.14073740
 C     17  15  14     2.727337400306   122.05376283    50.41769004
 O     15  14   7     3.022955129348   101.23716520   211.02387485
 C     19  15  14     2.706661192325   121.42367059    71.13803393
 H      1   2   3     2.055019269177   110.04440690    64.50430668
 H      1   2   3     2.050176390362   109.21523599   184.11259554
 H      1   2   3     2.053102250345   110.07070505   304.15685266
 H      2   1   3     2.067008219480   110.99565574   239.38045955
 H      2   1   3     2.059960976118   111.57434994   115.96976950
 H      6   4   3     2.061227763885   108.77390099    16.77058992
 H      6   4   3     2.061627693748   108.68763455   257.17865651
 H     12  11   9     2.060499201374   104.44233941   208.76409931
 H     12  11   9     2.067256199541   108.19419128   325.95217709
 H     13  12  11     2.053075720126   110.19724167    56.49637284
 H     13  12  11     2.050056332526   109.08625811   176.60149850
 H     13  12  11     2.055911000738   110.05485788   296.09277750
 H     18  17  15     2.055857379648   109.88012634    63.40419280
 H     18  17  15     2.059421125568   109.84317551   302.05524993
 H     18  17  15     2.053685829319   105.16175850   182.73860753
 H     20  19  15     2.059142593496   109.83114737   287.19546867
 H     20  19  15     2.054100433765   105.58595919   167.83921370
 H     20  19  15     2.061751431114   110.13196636    48.65815862

---------------------
BASIS SET INFORMATION
---------------------
There are 5 groups of distinct atoms

 Group   1 Type C   : 11s6p1d contracted to 5s3p1d pattern {62111/411/1}
 Group   2 Type O   : 11s6p2d contracted to 5s3p2d pattern {62111/411/11}
 Group   3 Type H   : 4s1p contracted to 2s1p pattern {31/1}
 Group   4 Type S   : 14s9p2d contracted to 5s4p2d pattern {73211/6111/11}
 Group   5 Type P   : 14s9p2d contracted to 5s4p2d pattern {73211/6111/11}

Atom   0C    basis set group =>   1
Atom   1C    basis set group =>   1
Atom   2O    basis set group =>   2
Atom   3C    basis set group =>   1
Atom   4O    basis set group =>   2
Atom   5C    basis set group =>   1
Atom   6C    basis set group =>   1
Atom   7H    basis set group =>   3
Atom   8C    basis set group =>   1
Atom   9O    basis set group =>   2
Atom  10O    basis set group =>   2
Atom  11C    basis set group =>   1
Atom  12C    basis set group =>   1
Atom  13S    basis set group =>   4
Atom  14P    basis set group =>   5
Atom  15S    basis set group =>   4
Atom  16O    basis set group =>   2
Atom  17C    basis set group =>   1
Atom  18O    basis set group =>   2
Atom  19C    basis set group =>   1
Atom  20H    basis set group =>   3
Atom  21H    basis set group =>   3
Atom  22H    basis set group =>   3
Atom  23H    basis set group =>   3
Atom  24H    basis set group =>   3
Atom  25H    basis set group =>   3
Atom  26H    basis set group =>   3
Atom  27H    basis set group =>   3
Atom  28H    basis set group =>   3
Atom  29H    basis set group =>   3
Atom  30H    basis set group =>   3
Atom  31H    basis set group =>   3
Atom  32H    basis set group =>   3
Atom  33H    basis set group =>   3
Atom  34H    basis set group =>   3
Atom  35H    basis set group =>   3
Atom  36H    basis set group =>   3
Atom  37H    basis set group =>   3
---------------------------------
AUXILIARY/J BASIS SET INFORMATION
---------------------------------
There are 5 groups of distinct atoms

 Group   1 Type C   : 12s5p4d2f1g contracted to 6s4p3d1f1g pattern {711111/2111/211/2/1}
 Group   2 Type O   : 12s5p4d2f1g contracted to 6s4p3d1f1g pattern {711111/2111/211/2/1}
 Group   3 Type H   : 5s2p1d contracted to 3s1p1d pattern {311/2/1}
 Group   4 Type S   : 14s5p5d2f1g contracted to 8s4p3d1f1g pattern {71111111/2111/311/2/1}
 Group   5 Type P   : 14s5p5d2f1g contracted to 8s4p3d1f1g pattern {71111111/2111/311/2/1}

Atom   0C    basis set group =>   1
Atom   1C    basis set group =>   1
Atom   2O    basis set group =>   2
Atom   3C    basis set group =>   1
Atom   4O    basis set group =>   2
Atom   5C    basis set group =>   1
Atom   6C    basis set group =>   1
Atom   7H    basis set group =>   3
Atom   8C    basis set group =>   1
Atom   9O    basis set group =>   2
Atom  10O    basis set group =>   2
Atom  11C    basis set group =>   1
Atom  12C    basis set group =>   1
Atom  13S    basis set group =>   4
Atom  14P    basis set group =>   5
Atom  15S    basis set group =>   4
Atom  16O    basis set group =>   2
Atom  17C    basis set group =>   1
Atom  18O    basis set group =>   2
Atom  19C    basis set group =>   1
Atom  20H    basis set group =>   3
Atom  21H    basis set group =>   3
Atom  22H    basis set group =>   3
Atom  23H    basis set group =>   3
Atom  24H    basis set group =>   3
Atom  25H    basis set group =>   3
Atom  26H    basis set group =>   3
Atom  27H    basis set group =>   3
Atom  28H    basis set group =>   3
Atom  29H    basis set group =>   3
Atom  30H    basis set group =>   3
Atom  31H    basis set group =>   3
Atom  32H    basis set group =>   3
Atom  33H    basis set group =>   3
Atom  34H    basis set group =>   3
Atom  35H    basis set group =>   3
Atom  36H    basis set group =>   3
Atom  37H    basis set group =>   3

Checking for AutoStart:
The File: sp_solv.gbw exists
Trying to determine its content:
     ... Fine, the file contains calculation information
     ... Fine, the calculation information was read
     ... Fine, the file contains a basis set
     ... Fine, the basis set was read
     ... Fine, the file contains a geometry
     ... Fine, the geometry was read
     ... Fine, the file contains a set of orbitals
     ... Fine, the orbitals can be read
     => possible old guess file was deleted
     => GBW file was renamed to GES file
     => GES file is set as startup file
     => Guess is set to MORead
     ... now leaving AutoStart

------------------------------------------------------------------------------
                             ORCA STARTUP CALCULATIONS
                           -- RI-GTO INTEGRALS CHOSEN --
------------------------------------------------------------------------------
------------------------------------------------------------------------------
                   ___                                                        
                  /   \      - P O W E R E D   B Y -                         
                 /     \                                                     
                 |  |  |   _    _      __       _____    __    __             
                 |  |  |  | |  | |    /  \     |  _  \  |  |  /  |          
                  \  \/   | |  | |   /    \    | | | |  |  | /  /          
                 / \  \   | |__| |  /  /\  \   | |_| |  |  |/  /          
                |  |  |   |  __  | /  /__\  \  |    /   |      \           
                |  |  |   | |  | | |   __   |  |    \   |  |\   \          
                \     /   | |  | | |  |  |  |  | |\  \  |  | \   \       
                 \___/    |_|  |_| |__|  |__|  |_| \__\ |__|  \__/        
                                                                              
                      - O R C A' S   B I G   F R I E N D -                    
                                      &                                       
                       - I N T E G R A L  F E E D E R -                       
                                                                              
 v1 FN, 2020, v2 2021, v3 2022-2024                                           
------------------------------------------------------------------------------


----------------------
SHARK INTEGRAL PACKAGE
----------------------

Number of atoms                             ...     38
Number of basis functions                   ...    510
Number of shells                            ...    240
Maximum angular momentum                    ...      2
Integral batch strategy                     ... SHARK/LIBINT Hybrid
RI-J (if used) integral strategy            ... SPLIT-RIJ (Revised 2003 algorithm where possible)
Printlevel                                  ...      1
Contraction scheme used                     ... SEGMENTED contraction
Prescreening option                         ... SCHWARTZ
   Thresh                                   ... 1.000e-10
   Tcut                                     ... 1.000e-11
   Tpresel                                  ... 1.000e-11 
Coulomb Range Separation                    ... NOT USED
Exchange Range Separation                   ... NOT USED
Multipole approximations                    ... NOT USED
Finite Nucleus Model                        ... NOT USED
CABS basis                                  ... NOT available
Auxiliary Coulomb fitting basis             ... AVAILABLE
   # of basis functions in Aux-J            ...   1146
   # of shells in Aux-J                     ...    386
   Maximum angular momentum in Aux-J        ...      4
Auxiliary J/K fitting basis                 ... NOT available
Auxiliary Correlation fitting basis         ... NOT available
Auxiliary 'external' fitting basis          ... NOT available

Checking pre-screening integrals            ... done (  0.0 sec) Dimension = 240
Check shell pair data                       ... done (  0.0 sec)
Shell pair information
Shell pair cut-off parameter TPreSel        ...   1.0e-11
Total number of shell pairs                 ...     28920
Shell pairs after pre-screening             ...     19759
Total number of primitive shell pairs       ...    108409
Primitive shell pairs kept                  ...     45743
          la=0 lb=0:   5654 shell pairs
          la=1 lb=0:   7143 shell pairs
          la=1 lb=1:   2303 shell pairs
          la=2 lb=0:   2660 shell pairs
          la=2 lb=1:   1670 shell pairs
          la=2 lb=2:    329 shell pairs

Calculating one electron integrals          ... done (  0.1 sec)
Calculating RI/J V-Matrix + Cholesky decomp.... done (  0.1 sec)
Calculating Nuclear repulsion               ... done (  0.0 sec) ENN=   2166.525653521892 Eh

Diagonalization of the overlap matrix:
Smallest eigenvalue                        ... 4.912e-05
Time for diagonalization                   ...    0.035 sec
Threshold for overlap eigenvalues          ... 1.000e-07
Number of eigenvalues below threshold      ... 0
Time for construction of square roots      ...    0.018 sec
Total time needed                          ...    0.054 sec

-------------------
DFT GRID GENERATION
-------------------

General Integration Accuracy     IntAcc      ... 4.388
Radial Grid Type                 RadialGrid  ... OptM3 with GC (2021)
Angular Grid (max. ang.)         AngularGrid ... 4 (Lebedev-302)
Angular grid pruning method      GridPruning ... 4 (adaptive)
Weight generation scheme         WeightScheme... mBecke (2022)
Basis function cutoff            BFCut       ... 1.0000e-10
Integration weight cutoff        WCut        ... 1.0000e-14
Partially contracted basis set               ... off
Rotationally invariant grid construction     ... off
Angular grids for H and He will be reduced by one unit
Diffuse basis detected: some atoms will have their outermost
                        angular grid increased by 1.

Total number of grid points                  ...   180208
Total number of batches                      ...     2834
Average number of points per batch           ...       63
Average number of grid points per atom       ...     4742
Initializing property integral containers    ... done (  0.0 sec)

SHARK setup successfully completed in   2.6 seconds

Maximum memory used throughout the entire STARTUP-calculation: 97.7 MB
-------------------------------------------------------------------------------
                                 ORCA GUESS
                   Start orbitals & Density for SCF / CASSCF
-------------------------------------------------------------------------------

------------
SCF SETTINGS
------------
Hamiltonian:
 Density Functional     Method          .... DFT(GTOs)
  Functional kind                       .... Exchange
  Functional name                       .... Re-regularized SCAN exchange by Furness et al
  Functional family                     .... MGGA
  Functional refs                              
    [ 0] J. W. Furness, A. D. Kaplan, J. Ning, J. P. Perdew, and J. Sun.,  J. Phys. Chem. Lett. 11, 8208-8215 (2020), doi: 10.1021/acs.jpclett.0c02405
    [ 1] J. W. Furness, A. D. Kaplan, J. Ning, J. P. Perdew, and J. Sun.,  J. Phys. Chem. Lett. 11, 9248-9248 (2020), doi: 10.1021/acs.jpclett.0c03077
  Functional external parameters        .... 6
    Parameter  0 _c1        =  6.670000e-01 : c1 parameter        
    Parameter  1 _c2        =  8.000000e-01 : c2 parameter        
    Parameter  2 _d         =  1.240000e+00 : d parameter         
    Parameter  3 _k1        =  6.500000e-02 : k1 parameter        
    Parameter  4 _eta       =  1.000000e-03 : eta parameter       
    Parameter  5 _dp2       =  3.610000e-01 : dp2 parameter       
  Functional kind                       .... Correlation
  Functional name                       .... Re-regularized SCAN correlation by Furness et al
  Functional family                     .... MGGA
  Functional refs                              
    [ 0] J. W. Furness, A. D. Kaplan, J. Ning, J. P. Perdew, and J. Sun.,  J. Phys. Chem. Lett. 11, 8208-8215 (2020), doi: 10.1021/acs.jpclett.0c02405
    [ 1] J. W. Furness, A. D. Kaplan, J. Ning, J. P. Perdew, and J. Sun.,  J. Phys. Chem. Lett. 11, 9248-9248 (2020), doi: 10.1021/acs.jpclett.0c03077
  Functional external parameters        .... 1
    Parameter  0 _eta       =  1.000000e-03 : Regularization parameter
 Gradients option       PostSCFGGA      .... off
 RI-approximation to the Coulomb term is turned on
   Number of AuxJ basis functions       .... 1146


General Settings:
 Integral files         IntName         .... sp_solv
 Hartree-Fock type      HFTyp           .... RHF
 Total Charge           Charge          ....    0
 Multiplicity           Mult            ....    1
 Number of Electrons    NEL             ....  174
 Basis Dimension        Dim             ....  510
 Nuclear Repulsion      ENuc            ....   2166.5256535219 Eh

Convergence Acceleration:
 AO-DIIS                CNVDIIS         .... on
   Start iteration      DIISMaxIt       ....    12
   Startup error        DIISStart       ....  0.200000
   # of expansion vecs  DIISMaxEq       ....     5
   Bias factor          DIISBfac        ....   1.050
   Max. coefficient     DIISMaxC        ....  10.000
 MO-DIIS                CNVKDIIS        .... off
 Trust-Rad. Augm. Hess. CNVTRAH         .... auto
   Auto Start mean grad. ratio tolernc. ....  1.125000
   Auto Start start iteration           ....     1
   Auto Start num. interpolation iter.  ....    10
   Max. Number of Micro iterations      ....    24
   Max. Number of Macro iterations      .... Maxiter - #DIIS iter
   Number of Davidson start vectors     ....     2
   Converg. threshold    (grad. norm)   ....   3.330e-04
   Grad. Scal. Fac. for Micro threshold ....   0.100
   Minimum threshold for Micro iter.    ....   1.000e-02
   NR start threshold (gradient norm)   ....   1.000e-04
   Initial trust radius                 ....   0.400
   Minimum AH scaling param. (alpha)    ....   1.000
   Maximum AH scaling param. (alpha)    .... 1000.000
   Quad. conv. algorithm                .... NR
   White noise on init. David. guess    .... on
   Maximum white noise                  ....   0.010
   Pseudo random numbers                .... off
   Inactive MOs                         .... canonical
   Orbital update algorithm             .... Taylor
   Preconditioner                       .... Diag
   Full preconditioner red. dimension   ....   250
   COSX micro iterations for RIJONX calc.... off
 SOSCF                  CNVSOSCF        .... on
   Start iteration      SOSCFMaxIt      ....   150
   Startup grad/error   SOSCFStart      ....  0.003300
   Hessian update       SOSCFHessUp     .... L-BFGS
 Level Shifting         CNVShift        .... on
   Level shift para.    LevelShift      ....    0.2500
   Turn off err/grad.   ShiftErr        ....    0.0010
 Zerner damping         CNVZerner       .... off
 Static damping         CNVDamp         .... on
   Fraction old density DampFac         ....    0.7000
   Max. Damping (<1)    DampMax         ....    0.9800
   Min. Damping (>=0)   DampMin         ....    0.0000
   Turn off err/grad.   DampErr         ....    0.1000

SCF Procedure:
 Maximum # iterations   MaxIter         ....   125
 SCF integral mode      SCFMode         .... Direct
   Integral package                     .... SHARK and LIBINT hybrid scheme
 Reset frequency        DirectResetFreq ....    20
 Integral Threshold     Thresh          ....  1.000e-10 Eh
 Primitive CutOff       TCut            ....  1.000e-11 Eh

Convergence Tolerance:
 Convergence Check Mode ConvCheckMode   .... Total+1el-Energy
 Convergence forced     ConvForced      .... 0
 Energy Change          TolE            ....  1.000e-06 Eh
 1-El. energy change                    ....  1.000e-03 Eh
 Orbital Gradient       TolG            ....  3.330e-04
 Orbital Rotation angle TolX            ....  3.330e-04
 DIIS Error             TolErr          ....  1.000e-06

---------------------
INITIAL GUESS: MOREAD
---------------------
Guess MOs are being read from file: sp_solv.ges
Input Geometry matches current geometry (good)
Atom 0: N(Shells)= 9 and 6 - projection required
Input basis set needs projection
NBasis(read)= 316
NBasis(calc)= 510
Basis set overlap was calculated
Using GuessMode=FMatrix for the initial guess
C*T matrix was formed
Effective Fockian was calculated
Effective Fockian was diagonalized
Initial density was built
                      ------------------
                      INITIAL GUESS DONE (   0.1 sec)
                      ------------------
             **** ENERGY FILE WAS UPDATED (sp_solv.en.tmp) ****
Finished Guess after   0.4 sec
Maximum memory used throughout the entire GUESS-calculation: 57.0 MB

-------------------------------------------------------------------------------------------
                                      ORCA LEAN-SCF
                              memory conserving SCF solver
-------------------------------------------------------------------------------------------

--------------------
CPCM SOLVATION MODEL
--------------------
CPCM parameters:
  Epsilon                                         ...      78.3550
  Refrac                                          ...       1.3328
  Rsolv                                           ...       1.3000
  Surface type                                    ... GAUSSIAN VDW
  Discretization scheme                           ... Constant charge density
    Threshold for H atoms                         ...       5.0000 (charges/Ang^2)
    Threshold for non-H atoms                     ...       5.0000 (charges/Ang^2)
  Epsilon function type                           ...         CPCM
Solvent:                                          ... WATER
SMD-CDS solvent descriptors:
  Soln                                            ...       1.3328
  Soln25                                          ...       1.3323
  Sola                                            ...       0.0000
  Solb                                            ...       0.0000
  Solg                                            ...       0.0000
  Solc                                            ...       0.0000
  Solh                                            ...       0.0000
Radii:
  Scheme                                          ... Element-dependent radii
  Radius for C  used is    3.4960 Bohr (=   1.8500 Ang.)
  Radius for O  used is    2.8724 Bohr (=   1.5200 Ang.)
  Radius for H  used is    2.2677 Bohr (=   1.2000 Ang.)
  Radius for S  used is    4.7054 Bohr (=   2.4900 Ang.)
  Radius for P  used is    4.0062 Bohr (=   2.1200 Ang.)
Calculating surface                               ...        done! (  0.0s)
Cavity surface points                             ...         2942
Cavity Volume                                     ...    2228.4667
Cavity Surface-area                               ...    1213.7735
Calculating surface distance matrix               ...        done! (  0.1s)
Performing Cholesky decomposition & store         ...        done! (  0.3s)
Overall time for CPCM initialization              ...                 0.4s

----------------------------------------D-I-I-S--------------------------------------------
Iteration    Energy (Eh)           Delta-E    RMSDP     MaxDP     DIISErr   Damp  Time(sec)
-------------------------------------------------------------------------------------------
               ***  Starting incremental Fock matrix formation  ***
    1    -1981.0021677099221051     0.00e+00  3.70e-03  4.91e-01  6.34e-01  0.700  11.5
    2    -1981.1515335912072260    -1.49e-01  2.82e-03  3.26e-01  4.46e-01  0.700   9.9
    3    -1981.2571151083830046    -1.06e-01  2.02e-03  2.19e-01  3.13e-01  0.700   9.7
    4    -1981.3312456349431159    -7.41e-02  1.43e-03  1.49e-01  2.19e-01  0.700   9.6
                               ***Turning on AO-DIIS***
    5    -1981.3832567108547664    -5.20e-02  1.02e-03  1.01e-01  1.53e-01  0.700   9.4
    6    -1981.4197081169686498    -3.65e-02  7.23e-04  7.03e-02  1.07e-01  0.700   9.3
    7    -1981.4452797389367333    -2.56e-02  5.08e-04  4.91e-02  7.50e-02  0.700   9.1
    8    -1981.4631985940059167    -1.79e-02  1.19e-03  1.13e-01  5.26e-02  0.000   9.0
                              *** Initializing SOSCF ***
---------------------------------------S-O-S-C-F--------------------------------------
Iteration    Energy (Eh)           Delta-E    RMSDP     MaxDP     MaxGrad    Time(sec)
--------------------------------------------------------------------------------------
    9    -1981.5050725923947539    -4.19e-02  1.11e-05  6.91e-04  2.89e-04     9.4
               *** Restarting incremental Fock matrix formation ***
   10    -1981.5050736098683046    -1.02e-06  1.00e-05  7.39e-04  5.91e-05    11.4
                  *** Gradient check signals convergence ***

               *****************************************************
               *                     SUCCESS                       *
               *           SCF CONVERGED AFTER  10 CYCLES          *
               *****************************************************


SMD CDS free energy correction energy :                 9.65797     Kcal/mol
Total Energy after SMD CDS correction =             -1981.489682658 Eh
             **** ENERGY FILE WAS UPDATED (sp_solv.en.tmp) ****

----------------
TOTAL SCF ENERGY
----------------

Total Energy       :      -1981.48968265760436 Eh          -53919.07546 eV

Components:
Nuclear Repulsion  :       2166.52565352189231 Eh           58954.16020 eV
Electronic Energy  :      -4147.99289007090738 Eh         -112872.62487 eV
One Electron Energy:      -7040.21401528994829 Eh         -191573.96279 eV
Two Electron Energy:       2892.22112521904137 Eh           78701.33792 eV
CPCM Dielectric    :         -0.03783706085282 Eh              -1.02960 eV
SMD CDS (Gcds)     :          0.01539095226387 Eh               0.41881 eV

Virial components:
Potential Energy   :      -3956.64065334340648 Eh         -107665.66579 eV
Kinetic Energy     :       1975.15097068580235 Eh           53746.59034 eV
Virial Ratio       :          2.00320922909989

DFT components:
N(Alpha)           :       87.000113571823 electrons
N(Beta)            :       87.000113571823 electrons
N(Total)           :      174.000227143646 electrons
E(X)               :     -181.427012972180 Eh       
E(C)               :       -5.973508879959 Eh       
E(XC)              :     -187.400521852139 Eh       

CPCM Solvation Model Properties:
Surface-charge          :         -0.04934453008674
Corrected charge        :          0.00000000000000
Outlying charge corr.   :          0.00013163938145 Eh               0.00358 eV
Free-energy (cav+disp)  :          0.01539095226387 Eh               0.41881 eV

---------------
SCF CONVERGENCE
---------------

  Last Energy change         ...    1.0175e-06  Tolerance :   1.0000e-06
  Last MAX-Density change    ...    7.3898e-04  Tolerance :   1.0000e-05
  Last RMS-Density change    ...    1.0046e-05  Tolerance :   1.0000e-06
  Last DIIS Error            ...    2.8868e-04  Tolerance :   1.0000e-06
  Last Orbital Gradient      ...    5.9094e-05  Tolerance :   3.3300e-04
  Last Orbital Rotation      ...    2.4229e-04  Tolerance :   3.3300e-04


----------------
ORBITAL ENERGIES
----------------

  NO   OCC          E(Eh)            E(eV) 
   0   2.0000     -88.582105     -2410.4416 
   1   2.0000     -88.531825     -2409.0734 
   2   2.0000     -76.923053     -2093.1827 
   3   2.0000     -19.011281      -517.3233 
   4   2.0000     -19.005675      -517.1707 
   5   2.0000     -18.998677      -516.9803 
   6   2.0000     -18.996216      -516.9133 
   7   2.0000     -18.954262      -515.7717 
   8   2.0000     -18.943632      -515.4824 
   9   2.0000     -10.178928      -276.9827 
  10   2.0000     -10.168436      -276.6972 
  11   2.0000     -10.100585      -274.8509 
  12   2.0000     -10.087095      -274.4838 
  13   2.0000     -10.085290      -274.4347 
  14   2.0000     -10.084929      -274.4249 
  15   2.0000     -10.082625      -274.3622 
  16   2.0000     -10.051879      -273.5255 
  17   2.0000     -10.020081      -272.6603 
  18   2.0000     -10.018708      -272.6229 
  19   2.0000      -7.876334      -214.3259 
  20   2.0000      -7.826832      -212.9789 
  21   2.0000      -6.601309      -179.6308 
  22   2.0000      -5.823383      -158.4623 
  23   2.0000      -5.820108      -158.3732 
  24   2.0000      -5.813353      -158.1894 
  25   2.0000      -5.774608      -157.1351 
  26   2.0000      -5.767022      -156.9287 
  27   2.0000      -5.766752      -156.9213 
  28   2.0000      -4.746989      -129.1721 
  29   2.0000      -4.746330      -129.1542 
  30   2.0000      -4.744914      -129.1157 
  31   2.0000      -1.092298       -29.7229 
  32   2.0000      -1.083356       -29.4796 
  33   2.0000      -1.055438       -28.7199 
  34   2.0000      -1.012640       -27.5553 
  35   2.0000      -1.003361       -27.3029 
  36   2.0000      -0.992224       -26.9998 
  37   2.0000      -0.814276       -22.1576 
  38   2.0000      -0.751956       -20.4618 
  39   2.0000      -0.739491       -20.1226 
  40   2.0000      -0.731698       -19.9105 
  41   2.0000      -0.697093       -18.9689 
  42   2.0000      -0.671925       -18.2840 
  43   2.0000      -0.662635       -18.0312 
  44   2.0000      -0.652660       -17.7598 
  45   2.0000      -0.628212       -17.0945 
  46   2.0000      -0.594952       -16.1895 
  47   2.0000      -0.543143       -14.7797 
  48   2.0000      -0.527982       -14.3671 
  49   2.0000      -0.524932       -14.2841 
  50   2.0000      -0.505103       -13.7445 
  51   2.0000      -0.494051       -13.4438 
  52   2.0000      -0.486426       -13.2363 
  53   2.0000      -0.467473       -12.7206 
  54   2.0000      -0.462978       -12.5983 
  55   2.0000      -0.451968       -12.2987 
  56   2.0000      -0.451004       -12.2724 
  57   2.0000      -0.449075       -12.2199 
  58   2.0000      -0.437319       -11.9001 
  59   2.0000      -0.428727       -11.6663 
  60   2.0000      -0.421840       -11.4789 
  61   2.0000      -0.414603       -11.2819 
  62   2.0000      -0.411044       -11.1851 
  63   2.0000      -0.403210       -10.9719 
  64   2.0000      -0.387213       -10.5366 
  65   2.0000      -0.383135       -10.4256 
  66   2.0000      -0.369575       -10.0567 
  67   2.0000      -0.366876        -9.9832 
  68   2.0000      -0.361347        -9.8328 
  69   2.0000      -0.351700        -9.5702 
  70   2.0000      -0.346947        -9.4409 
  71   2.0000      -0.344879        -9.3846 
  72   2.0000      -0.335412        -9.1270 
  73   2.0000      -0.334231        -9.0949 
  74   2.0000      -0.323350        -8.7988 
  75   2.0000      -0.319041        -8.6815 
  76   2.0000      -0.309870        -8.4320 
  77   2.0000      -0.306720        -8.3463 
  78   2.0000      -0.293182        -7.9779 
  79   2.0000      -0.284998        -7.7552 
  80   2.0000      -0.283468        -7.7135 
  81   2.0000      -0.278804        -7.5867 
  82   2.0000      -0.268218        -7.2986 
  83   2.0000      -0.256927        -6.9913 
  84   2.0000      -0.240496        -6.5442 
  85   2.0000      -0.230960        -6.2847 
  86   2.0000      -0.226828        -6.1723 
  87   0.0000      -0.050745        -1.3808 
  88   0.0000      -0.039662        -1.0793 
  89   0.0000      -0.018746        -0.5101 
  90   0.0000       0.002614         0.0711 
  91   0.0000       0.006602         0.1797 
  92   0.0000       0.034212         0.9310 
  93   0.0000       0.058655         1.5961 
  94   0.0000       0.068393         1.8611 
  95   0.0000       0.082528         2.2457 
  96   0.0000       0.094939         2.5834 
  97   0.0000       0.096535         2.6269 
*Only the first 10 virtual orbitals were printed.

                    ********************************
                    * MULLIKEN POPULATION ANALYSIS *
                    ********************************

-----------------------
MULLIKEN ATOMIC CHARGES
-----------------------
   0 C :   -0.496507
   1 C :   -0.138951
   2 O :   -0.181800
   3 C :    0.385739
   4 O :   -0.487481
   5 C :   -0.462663
   6 C :    0.060057
   7 H :    0.254910
   8 C :    0.257749
   9 O :   -0.441763
  10 O :   -0.152482
  11 C :   -0.152713
  12 C :   -0.499363
  13 S :   -0.179676
  14 P :    0.784642
  15 S :   -0.480462
  16 O :   -0.341668
  17 C :   -0.298865
  18 O :   -0.382888
  19 C :   -0.307437
  20 H :    0.170561
  21 H :    0.171308
  22 H :    0.166545
  23 H :    0.173465
  24 H :    0.176074
  25 H :    0.218221
  26 H :    0.224262
  27 H :    0.182773
  28 H :    0.180477
  29 H :    0.168722
  30 H :    0.173765
  31 H :    0.170110
  32 H :    0.185820
  33 H :    0.181119
  34 H :    0.184112
  35 H :    0.176137
  36 H :    0.180752
  37 H :    0.177397
Sum of atomic charges:    0.0000000

--------------------------------
MULLIKEN REDUCED ORBITAL CHARGES
--------------------------------
  0 C s       :     3.339032  s :     3.339032
      pz      :     1.033141  p :     3.131978
      px      :     1.079264
      py      :     1.019572
      dz2     :     0.007792  d :     0.025497
      dxz     :     0.002694
      dyz     :     0.004705
      dx2y2   :     0.006495
      dxy     :     0.003810

  1 C s       :     3.264347  s :     3.264347
      pz      :     1.073098  p :     2.821862
      px      :     0.682312
      py      :     1.066452
      dz2     :     0.012505  d :     0.052742
      dxz     :     0.008822
      dyz     :     0.004949
      dx2y2   :     0.015868
      dxy     :     0.010599

  2 O s       :     3.701148  s :     3.701148
      pz      :     1.535128  p :     4.444693
      px      :     1.287312
      py      :     1.622254
      dz2     :     0.012546  d :     0.035959
      dxz     :     0.004899
      dyz     :     0.007806
      dx2y2   :     0.005397
      dxy     :     0.005310

  3 C s       :     3.155649  s :     3.155649
      pz      :     0.755200  p :     2.331344
      px      :     0.830705
      py      :     0.745439
      dz2     :     0.032185  d :     0.127268
      dxz     :     0.024451
      dyz     :     0.022399
      dx2y2   :     0.027831
      dxy     :     0.020402

  4 O s       :     3.829937  s :     3.829937
      pz      :     1.481477  p :     4.632451
      px      :     1.678024
      py      :     1.472950
      dz2     :     0.004837  d :     0.025093
      dxz     :     0.005577
      dyz     :     0.006982
      dx2y2   :     0.004230
      dxy     :     0.003467

  5 C s       :     3.378681  s :     3.378681
      pz      :     1.159493  p :     3.050227
      px      :     0.935035
      py      :     0.955700
      dz2     :     0.006652  d :     0.033755
      dxz     :     0.003373
      dyz     :     0.007634
      dx2y2   :     0.010721
      dxy     :     0.005375

  6 C s       :     2.969403  s :     2.969403
      pz      :     1.082078  p :     2.926262
      px      :     0.859396
      py      :     0.984788
      dz2     :     0.006606  d :     0.044277
      dxz     :     0.006090
      dyz     :     0.011403
      dx2y2   :     0.010021
      dxy     :     0.010157

  7 H s       :     0.726886  s :     0.726886
      pz      :     0.009197  p :     0.018203
      px      :     0.004617
      py      :     0.004389

  8 C s       :     3.218201  s :     3.218201
      pz      :     0.800052  p :     2.396588
      px      :     0.758494
      py      :     0.838042
      dz2     :     0.021916  d :     0.127462
      dxz     :     0.023781
      dyz     :     0.018364
      dx2y2   :     0.026937
      dxy     :     0.036464

  9 O s       :     3.837358  s :     3.837358
      pz      :     1.533897  p :     4.580803
      px      :     1.339327
      py      :     1.707579
      dz2     :     0.002977  d :     0.023602
      dxz     :     0.008785
      dyz     :     0.002547
      dx2y2   :     0.006482
      dxy     :     0.002811

 10 O s       :     3.697573  s :     3.697573
      pz      :     1.550625  p :     4.411288
      px      :     1.575483
      py      :     1.285181
      dz2     :     0.008409  d :     0.043621
      dxz     :     0.012023
      dyz     :     0.008879
      dx2y2   :     0.006148
      dxy     :     0.008162

 11 C s       :     3.272843  s :     3.272843
      pz      :     0.882467  p :     2.827462
      px      :     1.085788
      py      :     0.859207
      dz2     :     0.008542  d :     0.052407
      dxz     :     0.008559
      dyz     :     0.015997
      dx2y2   :     0.009123
      dxy     :     0.010185

 12 C s       :     3.347768  s :     3.347768
      pz      :     1.080796  p :     3.126029
      px      :     1.043933
      py      :     1.001300
      dz2     :     0.002987  d :     0.025566
      dxz     :     0.004604
      dyz     :     0.007552
      dx2y2   :     0.004624
      dxy     :     0.005799

 13 S s       :     5.925659  s :     5.925659
      pz      :     3.283988  p :    10.153904
      px      :     3.026040
      py      :     3.843876
      dz2     :     0.030304  d :     0.100112
      dxz     :     0.025167
      dyz     :     0.010802
      dx2y2   :     0.019927
      dxy     :     0.013912

 14 P s       :     5.108054  s :     5.108054
      pz      :     2.852468  p :     8.399830
      px      :     2.785229
      py      :     2.762133
      dz2     :     0.174706  d :     0.707473
      dxz     :     0.127637
      dyz     :     0.134983
      dx2y2   :     0.137429
      dxy     :     0.132719

 15 S s       :     5.902346  s :     5.902346
      pz      :     3.353000  p :    10.515499
      px      :     3.514047
      py      :     3.648452
      dz2     :     0.015037  d :     0.062617
      dxz     :     0.018841
      dyz     :     0.013612
      dx2y2   :     0.006960
      dxy     :     0.008167

 16 O s       :     3.745521  s :     3.745521
      pz      :     1.641058  p :     4.570310
      px      :     1.557996
      py      :     1.371256
      dz2     :     0.006889  d :     0.025837
      dxz     :     0.005503
      dyz     :    -0.000133
      dx2y2   :     0.006476
      dxy     :     0.007102

 17 C s       :     3.344296  s :     3.344296
      pz      :     0.958159  p :     2.912176
      px      :     0.926532
      py      :     1.027486
      dz2     :     0.009665  d :     0.042393
      dxz     :     0.009392
      dyz     :     0.006725
      dx2y2   :     0.008383
      dxy     :     0.008228

 18 O s       :     3.766238  s :     3.766238
      pz      :     1.802872  p :     4.584267
      px      :     1.533899
      py      :     1.247496
      dz2     :     0.006084  d :     0.032382
      dxz     :     0.002164
      dyz     :     0.002141
      dx2y2   :     0.015483
      dxy     :     0.006511

 19 C s       :     3.347354  s :     3.347354
      pz      :     1.106214  p :     2.916462
      px      :     1.141814
      py      :     0.668434
      dz2     :     0.008144  d :     0.043621
      dxz     :     0.003641
      dyz     :     0.010767
      dx2y2   :     0.012483
      dxy     :     0.008586

 20 H s       :     0.811163  s :     0.811163
      pz      :     0.010458  p :     0.018276
      px      :     0.003711
      py      :     0.004108

 21 H s       :     0.810172  s :     0.810172
      pz      :     0.003805  p :     0.018520
      px      :     0.011095
      py      :     0.003620

 22 H s       :     0.815169  s :     0.815169
      pz      :     0.003664  p :     0.018286
      px      :     0.004673
      py      :     0.009949

 23 H s       :     0.808686  s :     0.808686
      pz      :     0.003685  p :     0.017850
      px      :     0.003332
      py      :     0.010832

 24 H s       :     0.806386  s :     0.806386
      pz      :     0.011259  p :     0.017540
      px      :     0.002324
      py      :     0.003957

 25 H s       :     0.763249  s :     0.763249
      pz      :     0.009995  p :     0.018530
      px      :     0.004088
      py      :     0.004447

 26 H s       :     0.757492  s :     0.757492
      pz      :     0.008055  p :     0.018245
      px      :     0.003861
      py      :     0.006330

 27 H s       :     0.799580  s :     0.799580
      pz      :     0.003752  p :     0.017647
      px      :     0.010096
      py      :     0.003800

 28 H s       :     0.801584  s :     0.801584
      pz      :     0.008023  p :     0.017940
      px      :     0.005469
      py      :     0.004447

 29 H s       :     0.813005  s :     0.813005
      pz      :     0.008386  p :     0.018273
      px      :     0.005077
      py      :     0.004809

 30 H s       :     0.807729  s :     0.807729
      pz      :     0.007107  p :     0.018506
      px      :     0.003855
      py      :     0.007543

 31 H s       :     0.811634  s :     0.811634
      pz      :     0.004253  p :     0.018256
      px      :     0.009552
      py      :     0.004451

 32 H s       :     0.796281  s :     0.796281
      pz      :     0.003034  p :     0.017899
      px      :     0.009605
      py      :     0.005260

 33 H s       :     0.800677  s :     0.800677
      pz      :     0.010672  p :     0.018204
      px      :     0.004102
      py      :     0.003430

 34 H s       :     0.798011  s :     0.798011
      pz      :     0.004120  p :     0.017878
      px      :     0.003215
      py      :     0.010543

 35 H s       :     0.805885  s :     0.805885
      pz      :     0.011024  p :     0.017978
      px      :     0.004370
      py      :     0.002584

 36 H s       :     0.801360  s :     0.801360
      pz      :     0.003757  p :     0.017888
      px      :     0.011116
      py      :     0.003014

 37 H s       :     0.804448  s :     0.804448
      pz      :     0.007093  p :     0.018154
      px      :     0.006783
      py      :     0.004278


------------------------
MULLIKEN OVERLAP CHARGES
------------------------
B(  0-C ,  1-C ) :   0.5271 B(  0-C ,  2-O ) :  -0.1089 B(  0-C , 20-H ) :   0.8412 
B(  0-C , 21-H ) :   0.8057 B(  0-C , 22-H ) :   0.8289 B(  0-C , 23-H ) :  -0.0805 
B(  1-C ,  2-O ) :   0.3148 B(  1-C ,  3-C ) :  -0.2409 B(  1-C , 20-H ) :  -0.0848 
B(  1-C , 21-H ) :  -0.0690 B(  1-C , 22-H ) :  -0.0672 B(  1-C , 23-H ) :   0.8584 
B(  1-C , 24-H ) :   0.7960 B(  2-O ,  3-C ) :   0.4091 B(  2-O ,  4-O ) :  -0.1968 
B(  2-O ,  5-C ) :  -0.0673 B(  2-O , 23-H ) :  -0.0650 B(  2-O , 24-H ) :  -0.0858 
B(  3-C ,  4-O ) :   0.9528 B(  3-C ,  5-C ) :  -0.2133 B(  3-C ,  6-C ) :   0.0652 
B(  3-C ,  9-O ) :   0.1242 B(  3-C , 25-H ) :  -0.1434 B(  4-O ,  5-C ) :  -0.2011 
B(  4-O ,  6-C ) :   0.1194 B(  4-O ,  9-O ) :  -0.0543 B(  5-C ,  6-C ) :  -0.1264 
B(  5-C , 13-S ) :  -0.1054 B(  5-C , 25-H ) :   0.8915 B(  5-C , 26-H ) :   0.7811 
B(  6-C ,  7-H ) :   0.7796 B(  6-C ,  8-C ) :   0.2825 B(  6-C ,  9-O ) :  -0.1994 
B(  6-C , 10-O ) :  -0.1087 B(  6-C , 13-S ) :   0.2944 B(  6-C , 14-P ) :  -0.0570 
B(  6-C , 26-H ) :  -0.1104 B(  7-H , 13-S ) :  -0.0568 B(  8-C ,  9-O ) :   0.8384 
B(  8-C , 10-O ) :   0.3372 B(  8-C , 11-C ) :  -0.2171 B(  8-C , 13-S ) :  -0.0700 
B(  8-C , 15-S ) :   0.0705 B(  9-O , 10-O ) :  -0.1648 B( 10-O , 11-C ) :   0.2677 
B( 10-O , 12-C ) :  -0.1101 B( 10-O , 27-H ) :  -0.0827 B( 11-C , 12-C ) :   0.5048 
B( 11-C , 27-H ) :   0.7999 B( 11-C , 28-H ) :   0.8401 B( 11-C , 29-H ) :  -0.0707 
B( 11-C , 30-H ) :  -0.0740 B( 11-C , 31-H ) :  -0.0803 B( 12-C , 28-H ) :  -0.0622 
B( 12-C , 29-H ) :   0.8380 B( 12-C , 30-H ) :   0.8093 B( 12-C , 31-H ) :   0.8390 
B( 13-S , 14-P ) :   0.6843 B( 13-S , 15-S ) :  -0.1101 B( 13-S , 16-O ) :  -0.0945 
B( 13-S , 18-O ) :  -0.1022 B( 14-P , 15-S ) :   1.2387 B( 14-P , 16-O ) :   0.6739 
B( 14-P , 17-C ) :  -0.1902 B( 14-P , 18-O ) :   0.4772 B( 14-P , 19-C ) :  -0.1555 
B( 15-S , 16-O ) :  -0.1046 B( 15-S , 18-O ) :  -0.0856 B( 16-O , 17-C ) :   0.3255 
B( 16-O , 18-O ) :  -0.2238 B( 16-O , 32-H ) :  -0.0705 B( 16-O , 33-H ) :  -0.0780 
B( 16-O , 34-H ) :  -0.0759 B( 17-C , 32-H ) :   0.8123 B( 17-C , 33-H ) :   0.8085 
B( 17-C , 34-H ) :   0.7873 B( 18-O , 19-C ) :   0.3510 B( 18-O , 35-H ) :  -0.0727 
B( 18-O , 36-H ) :  -0.0848 B( 18-O , 37-H ) :  -0.0792 B( 19-C , 35-H ) :   0.8010 
B( 19-C , 36-H ) :   0.7990 B( 19-C , 37-H ) :   0.8269 B( 32-H , 33-H ) :  -0.0570 
B( 35-H , 37-H ) :  -0.0596 


                     *******************************
                     * LOEWDIN POPULATION ANALYSIS *
                     *******************************

----------------------
LOEWDIN ATOMIC CHARGES
----------------------
   0 C :   -0.392145
   1 C :    0.034809
   2 O :   -0.584494
   3 C :    0.362844
   4 O :   -0.490644
   5 C :   -0.206880
   6 C :   -0.195922
   7 H :    0.229371
   8 C :    0.349411
   9 O :   -0.457422
  10 O :   -0.621298
  11 C :    0.035376
  12 C :   -0.387486
  13 S :    0.215161
  14 P :    0.404212
  15 S :   -0.096568
  16 O :   -0.669070
  17 C :   -0.042427
  18 O :   -0.692314
  19 C :   -0.053500
  20 H :    0.163091
  21 H :    0.168179
  22 H :    0.162617
  23 H :    0.190497
  24 H :    0.190417
  25 H :    0.200343
  26 H :    0.201960
  27 H :    0.193079
  28 H :    0.193957
  29 H :    0.163510
  30 H :    0.169220
  31 H :    0.163900
  32 H :    0.182300
  33 H :    0.179868
  34 H :    0.191804
  35 H :    0.176771
  36 H :    0.189548
  37 H :    0.177923

-------------------------------
LOEWDIN REDUCED ORBITAL CHARGES
-------------------------------
  0 C s       :     2.973831  s :     2.973831
      pz      :     1.121084  p :     3.358452
      px      :     1.124197
      py      :     1.113172
      dz2     :     0.018653  d :     0.059862
      dxz     :     0.005661
      dyz     :     0.010831
      dx2y2   :     0.016045
      dxy     :     0.008673

  1 C s       :     2.871279  s :     2.871279
      pz      :     1.087079  p :     2.975673
      px      :     0.800655
      py      :     1.087939
      dz2     :     0.028146  d :     0.118239
      dxz     :     0.019276
      dyz     :     0.010658
      dx2y2   :     0.035410
      dxy     :     0.024749

  2 O s       :     3.456972  s :     3.456972
      pz      :     1.585495  p :     4.648942
      px      :     1.434833
      py      :     1.628614
      dz2     :     0.077005  d :     0.478580
      dxz     :     0.125468
      dyz     :     0.060742
      dx2y2   :     0.108429
      dxy     :     0.106936

  3 C s       :     2.734967  s :     2.734967
      pz      :     0.844691  p :     2.625294
      px      :     0.981622
      py      :     0.798982
      dz2     :     0.065145  d :     0.276895
      dxz     :     0.052765
      dyz     :     0.057995
      dx2y2   :     0.058130
      dxy     :     0.042860

  4 O s       :     3.538743  s :     3.538743
      pz      :     1.525262  p :     4.721797
      px      :     1.692929
      py      :     1.503606
      dz2     :     0.041471  d :     0.230104
      dxz     :     0.049513
      dyz     :     0.051951
      dx2y2   :     0.041881
      dxy     :     0.045287

  5 C s       :     2.921240  s :     2.921240
      pz      :     1.152210  p :     3.213311
      px      :     1.009496
      py      :     1.051605
      dz2     :     0.014512  d :     0.072329
      dxz     :     0.007386
      dyz     :     0.016916
      dx2y2   :     0.021665
      dxy     :     0.011850

  6 C s       :     2.912463  s :     2.912463
      pz      :     1.090724  p :     3.192217
      px      :     1.041315
      py      :     1.060178
      dz2     :     0.014206  d :     0.091243
      dxz     :     0.012787
      dyz     :     0.021535
      dx2y2   :     0.022285
      dxy     :     0.020429

  7 H s       :     0.723739  s :     0.723739
      pz      :     0.024253  p :     0.046891
      px      :     0.011229
      py      :     0.011408

  8 C s       :     2.732116  s :     2.732116
      pz      :     0.875245  p :     2.640242
      px      :     0.912339
      py      :     0.852658
      dz2     :     0.045248  d :     0.278232
      dxz     :     0.053932
      dyz     :     0.037592
      dx2y2   :     0.057714
      dxy     :     0.083746

  9 O s       :     3.532241  s :     3.532241
      pz      :     1.549550  p :     4.677696
      px      :     1.479919
      py      :     1.648227
      dz2     :     0.037021  d :     0.247486
      dxz     :     0.071201
      dyz     :     0.035136
      dx2y2   :     0.049428
      dxy     :     0.054699

 10 O s       :     3.453454  s :     3.453454
      pz      :     1.594234  p :     4.627144
      px      :     1.611860
      py      :     1.421050
      dz2     :     0.089766  d :     0.540700
      dxz     :     0.087058
      dyz     :     0.129025
      dx2y2   :     0.105126
      dxy     :     0.129725

 11 C s       :     2.868891  s :     2.868891
      pz      :     0.948453  p :     2.978245
      px      :     1.092927
      py      :     0.936865
      dz2     :     0.018388  d :     0.117488
      dxz     :     0.020652
      dyz     :     0.035905
      dx2y2   :     0.018188
      dxy     :     0.024355

 12 C s       :     2.972551  s :     2.972551
      pz      :     1.145864  p :     3.354935
      px      :     1.122854
      py      :     1.086217
      dz2     :     0.006851  d :     0.060000
      dxz     :     0.011223
      dyz     :     0.018716
      dx2y2   :     0.010120
      dxy     :     0.013090

 13 S s       :     5.410609  s :     5.410609
      pz      :     3.290468  p :    10.080001
      px      :     3.070376
      py      :     3.719158
      dz2     :     0.081160  d :     0.294229
      dxz     :     0.081431
      dyz     :     0.021461
      dx2y2   :     0.066793
      dxy     :     0.043384

 14 P s       :     4.655596  s :     4.655596
      pz      :     2.873344  p :     8.374930
      px      :     2.773147
      py      :     2.728439
      dz2     :     0.364499  d :     1.565262
      dxz     :     0.318651
      dyz     :     0.262385
      dx2y2   :     0.294387
      dxy     :     0.325340

 15 S s       :     5.554100  s :     5.554100
      pz      :     3.359515  p :    10.406876
      px      :     3.473136
      py      :     3.574226
      dz2     :     0.028212  d :     0.135592
      dxz     :     0.049590
      dyz     :     0.025114
      dx2y2   :     0.015227
      dxy     :     0.017447

 16 O s       :     3.469365  s :     3.469365
      pz      :     1.622709  p :     4.731544
      px      :     1.586961
      py      :     1.521874
      dz2     :     0.091198  d :     0.468161
      dxz     :     0.073575
      dyz     :     0.087663
      dx2y2   :     0.100956
      dxy     :     0.114768

 17 C s       :     2.916771  s :     2.916771
      pz      :     0.998258  p :     3.024652
      px      :     0.979693
      py      :     1.046701
      dz2     :     0.024458  d :     0.101004
      dxz     :     0.022082
      dyz     :     0.014963
      dx2y2   :     0.019868
      dxy     :     0.019633

 18 O s       :     3.471026  s :     3.471026
      pz      :     1.739053  p :     4.749639
      px      :     1.612568
      py      :     1.398018
      dz2     :     0.054533  d :     0.471649
      dxz     :     0.053225
      dyz     :     0.093065
      dx2y2   :     0.130604
      dxy     :     0.140221

 19 C s       :     2.916996  s :     2.916996
      pz      :     1.113736  p :     3.032554
      px      :     1.129215
      py      :     0.789603
      dz2     :     0.019754  d :     0.103949
      dxz     :     0.008731
      dyz     :     0.024355
      dx2y2   :     0.029812
      dxy     :     0.021298

 20 H s       :     0.792642  s :     0.792642
      pz      :     0.026290  p :     0.044267
      px      :     0.008372
      py      :     0.009605

 21 H s       :     0.787203  s :     0.787203
      pz      :     0.008736  p :     0.044618
      px      :     0.027779
      py      :     0.008103

 22 H s       :     0.793467  s :     0.793467
      pz      :     0.008353  p :     0.043916
      px      :     0.010935
      py      :     0.024629

 23 H s       :     0.766724  s :     0.766724
      pz      :     0.008701  p :     0.042779
      px      :     0.007272
      py      :     0.026806

 24 H s       :     0.768989  s :     0.768989
      pz      :     0.026905  p :     0.040594
      px      :     0.004470
      py      :     0.009218

 25 H s       :     0.753006  s :     0.753006
      pz      :     0.026149  p :     0.046651
      px      :     0.009453
      py      :     0.011048

 26 H s       :     0.752434  s :     0.752434
      pz      :     0.020905  p :     0.045605
      px      :     0.009290
      py      :     0.015411

 27 H s       :     0.765945  s :     0.765945
      pz      :     0.007867  p :     0.040976
      px      :     0.025068
      py      :     0.008041

 28 H s       :     0.762880  s :     0.762880
      pz      :     0.018213  p :     0.043163
      px      :     0.013113
      py      :     0.011837

 29 H s       :     0.792591  s :     0.792591
      pz      :     0.020672  p :     0.043899
      px      :     0.012268
      py      :     0.010958

 30 H s       :     0.786157  s :     0.786157
      pz      :     0.017602  p :     0.044623
      px      :     0.008697
      py      :     0.018324

 31 H s       :     0.792039  s :     0.792039
      pz      :     0.009763  p :     0.044062
      px      :     0.023719
      py      :     0.010580

 32 H s       :     0.775273  s :     0.775273
      pz      :     0.006849  p :     0.042427
      px      :     0.022577
      py      :     0.013001

 33 H s       :     0.777340  s :     0.777340
      pz      :     0.025062  p :     0.042792
      px      :     0.010251
      py      :     0.007479

 34 H s       :     0.766975  s :     0.766975
      pz      :     0.010161  p :     0.041221
      px      :     0.006657
      py      :     0.024402

 35 H s       :     0.781159  s :     0.781159
      pz      :     0.026806  p :     0.042070
      px      :     0.009926
      py      :     0.005338

 36 H s       :     0.769417  s :     0.769417
      pz      :     0.008234  p :     0.041035
      px      :     0.027152
      py      :     0.005650

 37 H s       :     0.779577  s :     0.779577
      pz      :     0.017421  p :     0.042500
      px      :     0.016026
      py      :     0.009053


---------------------------------
LOEWDIN BOND ORDERS (THRESH 0.050000)
---------------------------------
B(  0-C ,  1-C ) :   1.0843 B(  0-C ,  2-O ) :   0.1557 B(  0-C , 20-H ) :   0.9195 
B(  0-C , 21-H ) :   0.9147 B(  0-C , 22-H ) :   0.9226 B(  1-C ,  2-O ) :   1.2982 
B(  1-C ,  3-C ) :   0.0853 B(  1-C ,  4-O ) :   0.0616 B(  1-C , 23-H ) :   0.8168 
B(  1-C , 24-H ) :   0.8279 B(  2-O ,  3-C ) :   1.4856 B(  2-O ,  4-O ) :   0.4438 
B(  2-O ,  5-C ) :   0.1841 B(  2-O , 23-H ) :   0.0919 B(  2-O , 24-H ) :   0.0976 
B(  3-C ,  4-O ) :   2.1151 B(  3-C ,  5-C ) :   0.8970 B(  3-C ,  6-C ) :   0.0717 
B(  3-C ,  9-O ) :   0.0634 B(  4-O ,  5-C ) :   0.1813 B(  5-C ,  6-C ) :   1.0240 
B(  5-C ,  8-C ) :   0.0674 B(  5-C , 13-S ) :   0.1245 B(  5-C , 25-H ) :   0.8442 
B(  5-C , 26-H ) :   0.8485 B(  6-C ,  7-H ) :   0.7876 B(  6-C ,  8-C ) :   0.8572 
B(  6-C ,  9-O ) :   0.1745 B(  6-C , 10-O ) :   0.1700 B(  6-C , 13-S ) :   1.2701 
B(  6-C , 14-P ) :   0.0729 B(  7-H , 13-S ) :   0.0555 B(  8-C ,  9-O ) :   2.1073 
B(  8-C , 10-O ) :   1.4603 B(  8-C , 11-C ) :   0.0844 B(  8-C , 13-S ) :   0.0998 
B(  8-C , 15-S ) :   0.0719 B(  9-O , 10-O ) :   0.4361 B(  9-O , 11-C ) :   0.0612 
B( 10-O , 11-C ) :   1.2811 B( 10-O , 12-C ) :   0.1579 B( 10-O , 13-S ) :   0.1128 
B( 10-O , 14-P ) :   0.0670 B( 10-O , 15-S ) :   0.0554 B( 10-O , 16-O ) :   0.0714 
B( 10-O , 27-H ) :   0.0970 B( 10-O , 28-H ) :   0.0922 B( 11-C , 12-C ) :   1.0847 
B( 11-C , 27-H ) :   0.8229 B( 11-C , 28-H ) :   0.8124 B( 11-C , 30-H ) :   0.0501 
B( 12-C , 29-H ) :   0.9218 B( 12-C , 30-H ) :   0.9134 B( 12-C , 31-H ) :   0.9184 
B( 13-S , 14-P ) :   1.2008 B( 13-S , 15-S ) :   0.1418 B( 13-S , 16-O ) :   0.1406 
B( 13-S , 18-O ) :   0.1596 B( 14-P , 15-S ) :   1.9904 B( 14-P , 16-O ) :   1.5744 
B( 14-P , 17-C ) :   0.0984 B( 14-P , 18-O ) :   1.5443 B( 14-P , 19-C ) :   0.0993 
B( 15-S , 16-O ) :   0.1652 B( 15-S , 18-O ) :   0.1794 B( 16-O , 17-C ) :   1.3268 
B( 16-O , 18-O ) :   0.2293 B( 16-O , 32-H ) :   0.0993 B( 16-O , 33-H ) :   0.1010 
B( 16-O , 34-H ) :   0.1025 B( 17-C , 32-H ) :   0.8611 B( 17-C , 33-H ) :   0.8577 
B( 17-C , 34-H ) :   0.8559 B( 18-O , 19-C ) :   1.3515 B( 18-O , 35-H ) :   0.1032 
B( 18-O , 36-H ) :   0.1025 B( 18-O , 37-H ) :   0.1027 B( 19-C , 35-H ) :   0.8621 
B( 19-C , 36-H ) :   0.8567 B( 19-C , 37-H ) :   0.8587 

------------------------------------------
LOEWDIN REDUCED ORBITAL POPULATIONS PER MO
-------------------------------------------
THRESHOLD FOR PRINTING IS 0.1%%
                      0         1         2         3         4         5   
                 -88.58211 -88.53182 -76.92305 -19.01128 -19.00567 -18.99868
                   2.00000   2.00000   2.00000   2.00000   2.00000   2.00000
                  --------  --------  --------  --------  --------  --------
 2 O  s               0.0       0.0       0.0       0.0      99.9       0.0
10 O  s               0.0       0.0       0.0      99.9       0.0       0.0
13 S  s             100.0       0.0       0.0       0.0       0.0       0.0
14 P  s               0.0       0.0     100.0       0.0       0.0       0.0
15 S  s               0.0     100.0       0.0       0.0       0.0       0.0
16 O  s               0.0       0.0       0.0       0.0       0.0      99.9

                      6         7         8         9        10        11   
                 -18.99622 -18.95426 -18.94363 -10.17893 -10.16844 -10.10059
                   2.00000   2.00000   2.00000   2.00000   2.00000   2.00000
                  --------  --------  --------  --------  --------  --------
 2 O  dyz             0.0       0.0       0.0       0.0       0.2       0.0
 3 C  s               0.0       0.0       0.0       0.0      98.9       0.0
 4 O  s               0.0       0.0      99.9       0.0       0.0       0.0
 4 O  dxz             0.0       0.0       0.0       0.0       0.1       0.0
 4 O  dyz             0.0       0.0       0.0       0.0       0.1       0.0
 6 C  s               0.0       0.0       0.0       0.0       0.0      99.6
 8 C  s               0.0       0.0       0.0      98.8       0.0       0.0
 9 O  s               0.0      99.9       0.0       0.0       0.0       0.0
 9 O  px              0.0       0.0       0.0       0.2       0.0       0.0
 9 O  dxz             0.0       0.0       0.0       0.2       0.0       0.0
[...]
37 H  px              0.2       0.0       0.0       0.0       0.0       0.0

                    492       493       494       495       496       497   
                  18.98012  19.19898  21.95961  21.96388  22.01377  22.02448
                   0.00000   0.00000   0.00000   0.00000   0.00000   0.00000
                  --------  --------  --------  --------  --------  --------
 0 C  s               0.0       0.0      82.5      16.8       0.0       0.0
 1 C  s               0.0       0.0       0.0       0.0       0.0       0.2
 3 C  s               0.0       0.0       0.1       0.1       0.0       0.0
 5 C  s               0.0       0.0       0.0       0.1       0.0       0.4
 6 C  s               0.0       0.2       0.1       0.0       0.0       2.1
 6 C  px              0.0       0.1       0.0       0.0       0.0       0.0
 8 C  s               0.2       0.0       0.0       0.1       0.0       0.1
11 C  s               0.0       0.0       0.0       0.1       4.4       2.5
12 C  s               0.0       0.0      16.8      82.2       0.1       0.0
13 S  s               0.1      98.8       0.0       0.0       0.0       0.0
13 S  pz              0.0       0.1       0.0       0.0       0.0       0.0
14 P  s               0.2       0.1       0.0       0.0       0.0       0.0
15 S  s              98.7       0.1       0.0       0.0       0.0       0.0
15 S  pz              0.1       0.0       0.0       0.0       0.0       0.0
17 C  s               0.1       0.0       0.0       0.1      85.0       7.9
19 C  s               0.0       0.0       0.0       0.0      10.0      86.2

                    498       499       500       501       502       503   
                  22.04834  22.09363  22.16964  22.23659  22.39173  22.48077
                   0.00000   0.00000   0.00000   0.00000   0.00000   0.00000
                  --------  --------  --------  --------  --------  --------
 0 C  s               0.0       0.0       0.0       0.1       0.2       0.0
 1 C  s              85.7       3.7       6.6       3.3       0.0       0.0
 2 O  s               0.0       0.0       0.0       0.0       0.1       0.0
 3 C  s               0.1       0.0       0.4       0.1      91.6       6.6
 4 O  s               0.0       0.0       0.0       0.0       0.2       0.0
 5 C  s               9.9       1.2      27.8      57.7       0.9       1.4
 6 C  s               1.5       5.8      52.4      37.2       0.1       0.1
 8 C  s               0.3       0.3       1.0       0.6       6.0      90.5
 9 O  s               0.0       0.0       0.0       0.0       0.0       0.2
10 O  s               0.0       0.0       0.0       0.0       0.0       0.1
11 C  s               0.9      81.0      10.3       0.1       0.0       0.2
12 C  s               0.0       0.2       0.1       0.0       0.1       0.2
17 C  s               0.4       5.9       0.2       0.0       0.0       0.0
19 C  s               0.8       1.4       1.0       0.2       0.0       0.0

                    504       505       506       507       508       509   
                  43.74232  43.77333  43.81183  43.85460  43.90411  43.96251
                   0.00000   0.00000   0.00000   0.00000   0.00000   0.00000
                  --------  --------  --------  --------  --------  --------
 2 O  s              30.8       0.0       6.5      59.8       0.0       2.9
 4 O  s              66.0       0.5       0.0      33.3       0.0       0.1
 9 O  s               2.2       2.7      71.9       6.3       2.3      14.5
10 O  s               0.1       3.4      11.7       0.4       6.0      78.3
14 P  s               0.0       0.0       0.0       0.0       0.1       0.0
16 O  s               0.1       0.1       5.9       0.1      90.3       3.2
18 O  s               0.6      93.2       3.9       0.0       1.2       0.9



                      *****************************
                      * MAYER POPULATION ANALYSIS *
                      *****************************

  NA   - Mulliken gross atomic population
  ZA   - Total nuclear charge
  QA   - Mulliken gross atomic charge
  VA   - Mayer's total valence
  BVA  - Mayer's bonded valence
  FA   - Mayer's free valence

  ATOM       NA         ZA         QA         VA         BVA        FA
  0 C      6.4965     6.0000    -0.4965     3.8157     3.8157     0.0000
  1 C      6.1390     6.0000    -0.1390     3.6325     3.6325     0.0000
  2 O      8.1818     8.0000    -0.1818     1.9405     1.9405    -0.0000
  3 C      5.6143     6.0000     0.3857     3.8124     3.8124     0.0000
  4 O      8.4875     8.0000    -0.4875     1.8989     1.8989    -0.0000
  5 C      6.4627     6.0000    -0.4627     3.7058     3.7058     0.0000
  6 C      5.9399     6.0000     0.0601     3.5919     3.5919     0.0000
  7 H      0.7451     1.0000     0.2549     0.9205     0.9205     0.0000
  8 C      5.7423     6.0000     0.2577     3.9759     3.9759     0.0000
  9 O      8.4418     8.0000    -0.4418     1.9136     1.9136    -0.0000
 10 O      8.1525     8.0000    -0.1525     1.9743     1.9743    -0.0000
 11 C      6.1527     6.0000    -0.1527     3.6164     3.6164    -0.0000
 12 C      6.4994     6.0000    -0.4994     3.8230     3.8230    -0.0000
 13 S     16.1797    16.0000    -0.1797     2.1486     2.1486    -0.0000
 14 P     14.2154    15.0000     0.7846     5.0930     5.0930    -0.0000
 15 S     16.4805    16.0000    -0.4805     2.0226     2.0226     0.0000
 16 O      8.3417     8.0000    -0.3417     1.8838     1.8838    -0.0000
 17 C      6.2989     6.0000    -0.2989     3.6971     3.6971    -0.0000
 18 O      8.3829     8.0000    -0.3829     1.8456     1.8456     0.0000
 19 C      6.3074     6.0000    -0.3074     3.7409     3.7409     0.0000
 20 H      0.8294     1.0000     0.1706     0.9565     0.9565    -0.0000
 21 H      0.8287     1.0000     0.1713     0.9579     0.9579    -0.0000
 22 H      0.8335     1.0000     0.1665     0.9581     0.9581    -0.0000
 23 H      0.8265     1.0000     0.1735     0.9558     0.9558    -0.0000
 24 H      0.8239     1.0000     0.1761     0.9461     0.9461     0.0000
 25 H      0.7818     1.0000     0.2182     0.9444     0.9444     0.0000
 26 H      0.7757     1.0000     0.2243     0.9373     0.9373     0.0000
 27 H      0.8172     1.0000     0.1828     0.9470     0.9470    -0.0000
 28 H      0.8195     1.0000     0.1805     0.9535     0.9535    -0.0000
 29 H      0.8313     1.0000     0.1687     0.9578     0.9578    -0.0000
 30 H      0.8262     1.0000     0.1738     0.9567     0.9567    -0.0000
 31 H      0.8299     1.0000     0.1701     0.9567     0.9567    -0.0000
 32 H      0.8142     1.0000     0.1858     0.9468     0.9468     0.0000
 33 H      0.8189     1.0000     0.1811     0.9516     0.9516    -0.0000
 34 H      0.8159     1.0000     0.1841     0.9484     0.9484    -0.0000
 35 H      0.8239     1.0000     0.1761     0.9489     0.9489    -0.0000
 36 H      0.8192     1.0000     0.1808     0.9490     0.9490     0.0000
 37 H      0.8226     1.0000     0.1774     0.9524     0.9524    -0.0000

  Mayer bond orders larger than 0.100000
B(  0-C ,  1-C ) :   0.9347 B(  0-C , 20-H ) :   0.9687 B(  0-C , 21-H ) :   0.9599 
B(  0-C , 22-H ) :   0.9693 B(  1-C ,  2-O ) :   0.7943 B(  1-C , 23-H ) :   0.9642 
B(  1-C , 24-H ) :   0.9511 B(  2-O ,  3-C ) :   1.1049 B(  3-C ,  4-O ) :   1.8038 
B(  3-C ,  5-C ) :   0.8558 B(  5-C ,  6-C ) :   0.8375 B(  5-C , 25-H ) :   0.9936 
B(  5-C , 26-H ) :   0.9286 B(  6-C ,  7-H ) :   0.8818 B(  6-C ,  8-C ) :   0.9654 
B(  6-C , 13-S ) :   0.8203 B(  8-C ,  9-O ) :   1.7603 B(  8-C , 10-O ) :   1.1090 
B( 10-O , 11-C ) :   0.7698 B( 11-C , 12-C ) :   0.9329 B( 11-C , 27-H ) :   0.9470 
B( 11-C , 28-H ) :   0.9567 B( 12-C , 29-H ) :   0.9719 B( 12-C , 30-H ) :   0.9598 
B( 12-C , 31-H ) :   0.9695 B( 13-S , 14-P ) :   1.0311 B( 14-P , 15-S ) :   1.7533 
B( 14-P , 16-O ) :   1.1499 B( 14-P , 18-O ) :   1.0335 B( 16-O , 17-C ) :   0.7886 
B( 17-C , 32-H ) :   0.9520 B( 17-C , 33-H ) :   0.9474 B( 17-C , 34-H ) :   0.9539 
B( 18-O , 19-C ) :   0.8236 B( 19-C , 35-H ) :   0.9496 B( 19-C , 36-H ) :   0.9572 
B( 19-C , 37-H ) :   0.9548 

-------
TIMINGS
-------

Total SCF time: 0 days 0 hours 1 min 43 sec 

Total time                  ....     103.552 sec
Sum of individual times     ....     103.516 sec  (100.0%)

SCF preparation             ....       1.992 sec  (  1.9%)
Fock matrix formation       ....      97.150 sec  ( 93.8%)
  Startup                   ....       0.018 sec  (  0.0% of F)
  Split-RI-J                ....      23.636 sec  ( 24.3% of F)
  XC integration            ....      44.782 sec  ( 46.1% of F)
    Basis function eval.    ....       6.775 sec  ( 15.1% of XC)
    Density eval.           ....      18.027 sec  ( 40.3% of XC)
    XC-Functional eval.     ....       3.007 sec  (  6.7% of XC)
    XC-Potential eval.      ....      16.232 sec  ( 36.2% of XC)
  CPCM terms                ....      28.518 sec  ( 29.4% of F)
Diagonalization             ....       0.000 sec  (  0.0%)
Density matrix formation    ....       0.103 sec  (  0.1%)
Total Energy calculation    ....       0.016 sec  (  0.0%)
Population analysis         ....       3.242 sec  (  3.1%)
Orbital Transformation      ....       0.127 sec  (  0.1%)
Orbital Orthonormalization  ....       0.000 sec  (  0.0%)
DIIS solution               ....       0.784 sec  (  0.8%)
  MO trafo                  ....       0.000 sec  (  0.0 % of DIIS)
  Orb grad                  ....       0.000 sec  (  0.0 % of DIIS)
  Energy W gradient         ....       0.000 sec  (  0.0 % of DIIS)
  DIIS error                ....       0.123 sec  ( 15.7 % of DIIS)
  DIIS work                 ....       0.593 sec  ( 75.6 % of DIIS)
  Form Q                    ....       0.000 sec  (  0.0 % of DIIS)
  Form QpQm                 ....       0.000 sec  (  0.0 % of DIIS)
  Exp/Cayley                ....       0.000 sec  (  0.0 % of DIIS)
  Orb update                ....       0.000 sec  (  0.0 % of DIIS)
  Wake-sleep                ....       0.004 sec  (  0.5 % of DIIS)
SOSCF solution              ....       0.102 sec  (  0.1%)
  MO trafo                  ....       0.079 sec  ( 77.5 % of SOSCF)
  Orb grad                  ....       0.000 sec  (  0.3 % of SOSCF)
  Rot update                ....       0.000 sec  (  0.1 % of SOSCF)
  Step                      ....       0.022 sec  ( 22.0 % of SOSCF)
Finished LeanSCF after 107.7 sec

Maximum memory used throughout the entire LEANSCF-calculation: 112.3 MB


-------------------------------------------------------------------------------
                          DFT DISPERSION CORRECTION                            
                                                                               
                                DFTD4 V3.4.0                                   
-------------------------------------------------------------------------------
The R2SCAN3C composite method is recognized
Using three-body term ABC
Active option DFTDOPT                   ...         5   

-------------------------   ----------------
Dispersion correction           -0.017568559
-------------------------   ----------------

------------------   -----------------
gCP correction             0.037322360
------------------   -----------------

-------------------------   --------------------
FINAL SINGLE POINT ENERGY     -1981.469928855925
-------------------------   --------------------


------------------------------------------------------------------------------
                              ORCA PROPERTY CALCULATIONS
------------------------------------------------------------------------------

GBWName                                 ... sp_solv.gbw
Number of atoms                         ...     38
Number of basis functions               ...    510
Max core memory                         ...   1024 MB

Electric properties:
Dipole moment                           ... YES
Quadrupole moment                       ...  NO
Static polarizability (Dipole/Dipole)   ...  NO
Static polarizability (Dipole/Quad.)    ...  NO
Static polarizability (Quad./Quad.)     ...  NO
Static polarizability (Velocity)        ...  NO

Atomic electric properties:
Dipole moment                           ...  NO
Quadrupole moment                       ...  NO
Static polarizability                   ...  NO

Choice of electric origin               ... Center of mass
Position of electric origin             ...    -0.000002    -0.000001    -0.000001

General magnetic properties:
Magnetizability                         ...  NO

EPR properties:
g-Tensor (aka g-matrix)                 ...  NO
Zero-Field splitting spin-orbit         ...  NO
Zero-field splitting spin-spin          ...  NO
Hyperfine couplings                     ...  NO (   0 nuclei)
Quadrupole couplings                    ...  NO (   0 nuclei)
Contact density                         ...  NO (   0 nuclei)

NMR properties:
Chemical shifts                         ...  NO (   0 nuclei)
Spin-rotation constants                 ...  NO (   0 nuclei)
Spin-spin couplings                     ...  NO (   0 nuclei,    0 pairs)

Choice of magnetic origin               ... GIAO
Position of magnetic origin             ...     0.000000     0.000000     0.000000

Properties with geometric perturbations:
SCF Hessian                             ...  NO
IR spectrum                             ...  NO
VCD spectrum                            ...  NO
X-ray spectroscopy properties:
SCF XES/XAS/RIXS spectra                ...  NO


-------------
DIPOLE MOMENT
-------------

Method             : SCF
Type of density    : Electron Density
Multiplicity       :   1
Irrep              :   0
Energy             : -1981.4896826576043622 Eh
Relativity type    : 
Basis              : AO
                                X                 Y                 Z
Electronic contribution:    -12.555970656      -1.212440649       1.578217748
Nuclear contribution   :     10.880474268       1.416759769      -2.597213331
                        -----------------------------------------
Total Dipole Moment    :     -1.675496388       0.204319120      -1.018995584
                        -----------------------------------------
Magnitude (a.u.)       :      1.971645620
Magnitude (Debye)      :      5.011524893



--------------------
Rotational spectrum 
--------------------
 
Rotational constants in cm-1:             0.014804             0.006494             0.005413 
Rotational constants in MHz :           443.800373           194.671714           162.289733 

Dipole components along the rotational axes: 
x,y,z [a.u.] :    -1.490463    -0.488585     1.194651 
x,y,z [Debye]:    -3.788457    -1.241884     3.036561 

 

Dipole moment calculation done in   2.9 sec 

Maximum memory used throughout the entire PROP-calculation: 50.5 MB

--------------------------------
SUGGESTED CITATIONS FOR THIS RUN
--------------------------------

Below you find a list of papers that are relevant to this ORCA run
We neither can nor want to force you to cite these papers, but we appreciate if you do
You receive ORCA, which is the product of decades of hard work by many enthusiastic individuals, for free
The only thing we kindly ask in return is that you cite our papers,
We deeply appreciate it, if you show your appreciation for ORCA by not just citing the generic ORCA reference.

Please note that relegating all ORCA citations to the supporting information does *not* help us.
SI sections are not indexed - citations you put there will not count into any citation statistics
But we need these citations in order to attract the funding resources that allow us to do what we are doing

Therefore, if you are a happy ORCA user, please consider citing a few of the papers listed below in the main body of your paper

In addition to the list printed below, the program has created the file sp_solv.bibtex that contains the list in bibtex format
You can import this file easily into all common literature databanks and citation aid programs


List of essential papers. We consider these as the minimum necessary citations

  1. Neese,F.
     Software update: the ORCA program system, version 5.0
     WIRES Comput. Molec. Sci., 2022 12(1)e1606
     doi.org/10.1002/wcms.1606
  2. Grimme,S.; Hansen,A.; Ehlert,S.; Mewes,J.
     r2SCAN-3c: A 'Swiss army knife' composite electronic-structure method
     J. Chem. Phys., 2021 154 064103
     doi.org/10.1063/5.0040021

List of papers to cite with high priority. The work reported in these papers was absolutely
necessary for this run to complete.
Our perspective: the developers of density functionals and basis sets usually get cited in chemistry papers
Good! But without the algorithms to do something with them, the functionals or basis sets would not do anything.
Hence, in our opinion, the algorithm design and method developments papers are equally worthy of getting cited

  1. Neese,F.
     An improvement of the resolution of the identity approximation for the formation of the Coulomb matrix
     J. Comp. Chem., 2003 24(14)1740-1747
     doi.org/10.1002/jcc.10318
  2. Garcia-Rates,M.; Neese,F.
     Effect of the Solute Cavity on the Solvation Energy and its Derivatives within the Framework of the Gaussian Charge Scheme
     J. Comput. Chem., 2020 41 922-939
     doi.org/10.1002/jcc.26139
  3. Neese,F.
     The SHARK Integral Generation and Digestion System
     J. Comp. Chem., 2022  1-16
     doi.org/10.1002/jcc.26942
  4. Lehtola,S.; Steigemann,C.; Oliveira,M.; Marques,M.
     Recent developments in Libxc - A comprehensive library of functionals for density functional theory
     Software X, 2018 7 
     doi.org/10.1016/j.softx.2017.11.002
  5. Caldeweyher,E.; Bannwarth,C.; Grimme,S.
     Extension of the D3 dispersion coefficient model
     J. Chem. Phys., 2017 147 034112
     doi.org/10.1063/1.4993215
  6. Caldeweyher,E.; Ehlert,S.; Hansen,A.; Neugebauer,H.; Spicher,S.; Bannwarth,C.; Grimme,S.
     A generally applicable atomic-charge dependent London dispersion correction
     J. Chem. Phys., 2019 150 154122
     doi.org/10.1063/1.5090222
  7. Caldeweyher,E.; Mewes,J.; Ehlert,S.; Grimme,S.
     Extension and evaluation of the D4 London-dispersion model for periodic systems
     Phys. Chem. Chem. Phys., 2020 22(16)8499-8512
     doi.org/10.1039/D0CP00502A
  8. Wittmann,L.; Gordiy,I.; Friede,M.; Helmich-Paris,B.; Grimme,S.; Hansen,A.; Bursch,M.
     Extension of the D3 and D4 London Dispersion Corrections to the full Actinides Series
     Phys. Chem. Chem. Phys., 2024 26(32)21379-21394
     doi.org/https://doi.org/10.1039/D4CP01514B 

List of suggested additional citations. These are papers that are important in the 'surrounding' of 
of this run, or papers that preceded the highly important papers. If you like your results we are grateful for a citation.

  1. Neese,F.
     The ORCA program system
     WIRES Comput. Molec. Sci., 2012 2(1)73-78
     doi.org/10.1002/wcms.81
  2. Neese,F.
     Software update: the ORCA program system, version 4.0
     WIRES Comput. Molec. Sci., 2018 8(1)1-6
     doi.org/10.1002/wcms.1327
  3. Neese,F.; Wennmohs,F.; Becker,U.; Riplinger,C.
     The ORCA quantum chemistry program package
     J. Chem. Phys., 2020 152 Art. No. L224108
     doi.org/10.1063/5.0004608

List of optional additional citations

  1. Neese,F.
     Approximate second-order SCF convergence for spin unrestricted wavefunctions
     Chem. Phys. Lett., 2000 325(1-3)93-98
     doi.org/10.1016/s0009-2614(00)00662-x

Timings for individual modules:

Sum of individual times          ...      113.804 sec (=   1.897 min)
Startup calculation              ...        2.643 sec (=   0.044 min)   2.3 %
SCF iterations                   ...      108.161 sec (=   1.803 min)  95.0 %
Property calculations            ...        3.000 sec (=   0.050 min)   2.6 %
                             ****ORCA TERMINATED NORMALLY****
TOTAL RUN TIME: 0 days 0 hours 2 minutes 0 seconds 567 msec
