 Entering Gaussian System
 *********************************************
 Gaussian 98:
 frequency output generated by the xtb code
 *********************************************
                         Standard orientation:
 --------------------------------------------------------------------
  Center     Atomic     Atomic              Coordinates (Angstroms)
  Number     Number      Type              X           Y           Z
 --------------------------------------------------------------------
    1          6             0        3.083717    1.983608    2.766001
    2          6             0        1.800173    1.219867    2.514903
    3          8             0        1.555468    1.051728    1.104995
    4         15             0        2.335253    0.004027    0.207235
    5         16             0        2.979275   -1.574644    1.184449
    6          8             0        3.420708    0.945565   -0.470054
    7          6             0        4.101215    0.701335   -1.714665
    8          6             0        4.882103   -0.597263   -1.723346
    9         16             0        0.942816   -0.344982   -1.355425
   10          6             0        0.106976   -1.762517   -0.602965
   11         16             0       -0.979277   -1.316741    0.781308
   12         15             0       -2.488379   -0.382291   -0.382575
   13         16             0       -2.916099   -1.172051   -2.113454
   14          8             0       -2.039215    1.134593   -0.540849
   15          6             0       -1.789054    1.969650    0.613109
   16          6             0       -0.965999    3.156750    0.160498
   17          8             0       -3.631805   -0.400378    0.730590
   18          6             0       -5.035437   -0.451575    0.401364
   19          6             0       -5.540312    0.885844   -0.104116
   20          1             0        3.065790    2.934637    2.240868
   21          1             0        3.193835    2.160614    3.831553
   22          1             0        3.934139    1.402753    2.411567
   23          1             0        0.928531    1.769406    2.873476
   24          1             0        1.835542    0.232242    2.986330
   25          1             0        3.359299    0.710935   -2.518210
   26          1             0        4.764569    1.562517   -1.814730
   27          1             0        5.579611   -0.629626   -0.889974
   28          1             0        4.206598   -1.447440   -1.642119
   29          1             0        5.434211   -0.674268   -2.655010
   30          1             0        0.851408   -2.449834   -0.198997
   31          1             0       -0.482612   -2.230284   -1.391435
   32          1             0       -2.753756    2.279442    1.021186
   33          1             0       -1.259319    1.375822    1.365387
   34          1             0       -0.794899    3.814490    1.006659
   35          1             0       -0.009826    2.819570   -0.231681
   36          1             0       -1.494109    3.698348   -0.618836
   37          1             0       -5.191657   -1.230506   -0.350758
   38          1             0       -5.515975   -0.737900    1.338026
   39          1             0       -6.605134    0.814296   -0.303796
   40          1             0       -5.368956    1.663652    0.635722
   41          1             0       -5.024770    1.151077   -1.027009
 --------------------------------------------------------------------
     1 basis functions        1 primitive gaussians
     1 alpha electrons        1 beta electrons
 
 Harmonic frequencies (cm**-1), IR intensities (km*mol⁻¹),
 Raman scattering activities (A**4/amu), Raman depolarization ratios,
 reduced masses (AMU), force constants (mDyne/A) and normal coordinates:
                      1                      2                      3
                        a                      a                      a 
 Frequencies --    46.5853                50.1462                55.2842
 Red. masses --    22.6897                20.9150                21.7955
 Frc consts  --     0.0000                 0.0000                 0.0000
 IR Inten    --     4.3560                 1.9048                 1.9432
 Raman Activ --     0.0000                 0.0000                 0.0000
 Depolar     --     0.0000                 0.0000                 0.0000
 Atom AN      X      Y      Z        X      Y      Z        X      Y      Z
   1   6     0.17   0.02   0.08    -0.06   0.13  -0.11    -0.09  -0.10   0.09
   2   6     0.14   0.06   0.07    -0.09   0.18  -0.13    -0.06  -0.11  -0.04
   3   8     0.15   0.11   0.08    -0.04   0.16  -0.16     0.07  -0.07  -0.08
   4  15     0.08   0.09   0.07    -0.10   0.03  -0.04     0.15  -0.10  -0.06
   5  16    -0.22  -0.09  -0.02    -0.43   0.07   0.24     0.06  -0.13  -0.05
   6   8     0.19  -0.04   0.12     0.07  -0.13  -0.00     0.15  -0.08   0.02
   7   6     0.13  -0.05   0.09     0.06  -0.18   0.01     0.12  -0.05   0.01
   8   6     0.09  -0.07   0.07     0.02  -0.20   0.07     0.10  -0.06  -0.01
   9  16     0.04   0.45   0.03     0.07  -0.00  -0.18     0.23  -0.06  -0.13
  10   6     0.03   0.17  -0.17     0.04  -0.02  -0.15    -0.02   0.11   0.03
  11  16     0.01  -0.04  -0.20     0.17  -0.08  -0.15     0.14   0.54   0.06
  12  15    -0.14  -0.12  -0.05     0.09   0.02   0.02    -0.11   0.11   0.04
  13  16    -0.37  -0.22   0.05     0.08   0.28  -0.09     0.04  -0.05   0.08
  14   8    -0.12  -0.08  -0.12     0.01   0.04   0.14    -0.33   0.15  -0.01
  15   6     0.00  -0.06  -0.13    -0.00  -0.02   0.16    -0.26   0.13  -0.01
  16   6     0.03  -0.10  -0.19    -0.05   0.03   0.19    -0.13   0.05   0.02
  17   8    -0.01  -0.06   0.06     0.10  -0.14   0.05    -0.07  -0.10   0.04
  18   6    -0.02   0.00   0.12     0.08  -0.14   0.09    -0.06  -0.14   0.02
  19   6     0.02   0.01   0.09     0.04  -0.14   0.13    -0.10  -0.16   0.00
  20   1     0.05   0.01   0.02     0.00   0.03  -0.04    -0.02  -0.02   0.04
  21   1     0.05   0.00   0.02    -0.02   0.04  -0.03    -0.05  -0.04   0.03
  22   1     0.04   0.00   0.02    -0.02   0.02  -0.02    -0.02  -0.02   0.04
  23   1     0.05   0.02   0.03    -0.02   0.07  -0.05    -0.03  -0.04  -0.03
  24   1     0.04   0.01   0.01    -0.04   0.06  -0.03    -0.03  -0.04  -0.02
  25   1     0.04  -0.01   0.03     0.02  -0.05   0.00     0.03  -0.01   0.00
  26   1     0.05  -0.02   0.02     0.02  -0.06  -0.01     0.04  -0.02   0.01
  27   1     0.03  -0.03   0.02     0.01  -0.05   0.02     0.03  -0.02  -0.00
  28   1     0.02  -0.01   0.02    -0.00  -0.05   0.03     0.03  -0.01  -0.01
  29   1     0.02  -0.02   0.02     0.00  -0.08   0.02     0.03  -0.02  -0.00
  30   1     0.01   0.04  -0.07     0.01  -0.01  -0.06    -0.03   0.01   0.01
  31   1     0.01   0.07  -0.07     0.00   0.01  -0.04    -0.03   0.04   0.02
  32   1     0.01  -0.00  -0.02    -0.00  -0.02   0.05    -0.07   0.06  -0.02
  33   1     0.01  -0.02  -0.04     0.01  -0.01   0.04    -0.10   0.03   0.01
  34   1     0.02  -0.03  -0.06    -0.02   0.00   0.06    -0.03   0.01   0.01
  35   1     0.00  -0.04  -0.06    -0.01   0.02   0.05    -0.04  -0.01   0.02
  36   1     0.01  -0.03  -0.05    -0.02   0.01   0.06    -0.01   0.02  -0.00
  37   1    -0.03  -0.00   0.04     0.02  -0.04   0.02    -0.01  -0.04   0.00
  38   1     0.00   0.02   0.04     0.03  -0.05   0.03    -0.02  -0.04   0.00
  39   1     0.00   0.01   0.03     0.01  -0.05   0.05    -0.03  -0.06  -0.00
  40   1     0.02   0.01   0.02     0.01  -0.04   0.04    -0.04  -0.04   0.00
  41   1     0.00  -0.01   0.02     0.00  -0.03   0.04    -0.03  -0.04   0.00
                      4                      5                      6
                        a                      a                      a 
 Frequencies --    53.1455                67.5144                63.1035
 Red. masses --    18.0159                23.6395                16.8461
 Frc consts  --     0.0000                 0.0000                 0.0000
 IR Inten    --     1.1050                 0.4839                 1.8177
 Raman Activ --     0.0000                 0.0000                 0.0000
 Depolar     --     0.0000                 0.0000                 0.0000
 Atom AN      X      Y      Z        X      Y      Z        X      Y      Z
   1   6    -0.26  -0.07  -0.01    -0.03  -0.24   0.20     0.09   0.13  -0.16
   2   6    -0.24  -0.10  -0.03    -0.09  -0.07   0.00     0.13   0.01   0.01
   3   8    -0.24  -0.15  -0.04     0.02   0.15  -0.05    -0.02  -0.08   0.05
   4  15    -0.12  -0.07  -0.02    -0.15   0.14  -0.12    -0.10  -0.06  -0.05
   5  16    -0.11  -0.07  -0.03    -0.31   0.03  -0.20    -0.17  -0.25  -0.29
   6   8    -0.08   0.06   0.14    -0.06   0.03  -0.10    -0.05  -0.03   0.02
   7   6     0.01   0.15   0.14    -0.01  -0.06  -0.05     0.05  -0.02   0.06
   8   6     0.05   0.18   0.10    -0.05  -0.08   0.04     0.22   0.08   0.18
   9  16     0.15  -0.14  -0.23    -0.24   0.20  -0.07    -0.22   0.14   0.03
  10   6     0.03  -0.04  -0.13    -0.00   0.07   0.02    -0.05   0.04   0.02
  11  16     0.22   0.02  -0.11     0.17   0.09   0.17    -0.01  -0.00   0.11
  12  15     0.11   0.05   0.03     0.13  -0.08   0.12     0.05   0.11   0.11
  13  16    -0.20  -0.14   0.19     0.34  -0.28   0.15     0.08   0.08   0.12
  14   8     0.16   0.00  -0.11     0.01  -0.04   0.03     0.12   0.04   0.06
  15   6     0.09   0.05  -0.12    -0.02   0.01   0.01     0.11   0.07   0.02
  16   6     0.06   0.06  -0.13     0.01  -0.02   0.01     0.07   0.08  -0.04
  17   8     0.18   0.20   0.12     0.03  -0.09   0.02    -0.01   0.18   0.03
  18   6     0.13   0.09   0.18     0.05   0.08  -0.09     0.02  -0.17  -0.02
  19   6     0.06   0.04   0.12     0.21   0.14  -0.12    -0.19  -0.34  -0.26
  20   1    -0.08  -0.02  -0.00     0.03  -0.05   0.09    -0.01   0.03  -0.06
  21   1    -0.08  -0.02  -0.00    -0.03  -0.11   0.07     0.05   0.06  -0.05
  22   1    -0.07  -0.01   0.00    -0.02  -0.09   0.06     0.03   0.05  -0.05
  23   1    -0.07  -0.03  -0.01    -0.02  -0.01  -0.00     0.03  -0.01   0.02
  24   1    -0.06  -0.03  -0.00    -0.07  -0.04  -0.03     0.07   0.01   0.01
  25   1     0.02   0.05   0.03     0.01  -0.02  -0.02     0.03  -0.05   0.01
  26   1    -0.00   0.05   0.07     0.01  -0.02  -0.02    -0.01   0.02   0.01
  27   1     0.01   0.04   0.04    -0.03  -0.02   0.02     0.05   0.06   0.06
  28   1     0.02   0.04   0.01    -0.02  -0.02   0.01     0.09  -0.00   0.06
  29   1     0.02   0.07   0.03    -0.00  -0.04   0.02     0.08   0.03   0.06
  30   1    -0.00  -0.03  -0.05     0.02   0.03  -0.01    -0.00   0.02  -0.00
  31   1    -0.01   0.00  -0.03    -0.01   0.01   0.02    -0.02   0.01   0.01
  32   1     0.02   0.01  -0.04    -0.01   0.01  -0.01     0.03   0.02   0.01
  33   1     0.03   0.02  -0.03    -0.02   0.01   0.02     0.04   0.03   0.01
  34   1     0.01   0.02  -0.04    -0.00  -0.00   0.00     0.02   0.03  -0.02
  35   1     0.02   0.02  -0.03     0.01  -0.01   0.01     0.02   0.02  -0.02
  36   1     0.01   0.01  -0.04     0.01  -0.01  -0.00     0.01   0.01  -0.02
  37   1     0.04   0.01   0.07     0.01   0.03  -0.03     0.05  -0.09   0.03
  38   1     0.06   0.04   0.06    -0.02   0.04  -0.04     0.01  -0.03   0.00
  39   1     0.02  -0.01   0.05     0.06   0.07  -0.06    -0.05  -0.15  -0.08
  40   1     0.01   0.03   0.02     0.07   0.03  -0.03    -0.09  -0.06  -0.11
  41   1     0.00   0.00   0.03     0.09   0.03  -0.03    -0.06  -0.12  -0.08
                      7                      8                      9
                        a                      a                      a 
 Frequencies --    65.2868                65.0272                73.7343
 Red. masses --    15.3949                13.8982                12.9941
 Frc consts  --     0.0000                 0.0000                 0.0000
 IR Inten    --     2.0278                 5.7132                 1.8166
 Raman Activ --     0.0000                 0.0000                 0.0000
 Depolar     --     0.0000                 0.0000                 0.0000
 Atom AN      X      Y      Z        X      Y      Z        X      Y      Z
   1   6     0.10  -0.00  -0.03    -0.09  -0.23   0.35     0.21  -0.28  -0.05
   2   6     0.07   0.00   0.09    -0.12  -0.08   0.02     0.04  -0.02   0.01
   3   8    -0.04  -0.05   0.14     0.15   0.19  -0.06    -0.08   0.03   0.03
   4  15    -0.04  -0.06   0.16     0.07   0.12  -0.04    -0.12   0.07  -0.00
   5  16    -0.22  -0.15   0.13     0.09   0.23   0.10    -0.03   0.12   0.02
   6   8     0.05  -0.08   0.18     0.03   0.02  -0.15    -0.15   0.09  -0.04
   7   6    -0.22   0.08  -0.02    -0.00  -0.10  -0.12    -0.01  -0.01   0.05
   8   6    -0.39  -0.01  -0.39    -0.08  -0.15  -0.05     0.08   0.05   0.24
   9  16     0.05   0.11   0.07     0.01   0.01   0.01    -0.09  -0.09   0.00
  10   6     0.02   0.05  -0.01     0.02  -0.01   0.00    -0.02  -0.04   0.07
  11  16     0.10   0.11   0.02    -0.05  -0.08  -0.04    -0.05   0.12   0.04
  12  15     0.12   0.05  -0.06     0.02   0.08  -0.02     0.00   0.02  -0.10
  13  16     0.24  -0.07  -0.03    -0.20   0.04   0.06     0.17   0.11  -0.18
  14   8     0.07   0.04  -0.10     0.20  -0.00  -0.05    -0.11   0.04  -0.07
  15   6     0.02   0.07  -0.10     0.12  -0.01  -0.03     0.07   0.06  -0.13
  16   6    -0.02   0.09  -0.13     0.12   0.01   0.01     0.21  -0.07  -0.23
  17   8     0.08   0.07  -0.06     0.03   0.28  -0.00     0.01  -0.12  -0.06
  18   6     0.06  -0.10   0.00     0.02  -0.12   0.05    -0.01  -0.14   0.06
  19   6    -0.11  -0.14   0.07    -0.26  -0.28  -0.08    -0.13  -0.05   0.41
  20   1     0.02  -0.00  -0.02     0.02  -0.04   0.14     0.11  -0.08  -0.02
  21   1     0.05   0.01  -0.01    -0.07  -0.12   0.11     0.08  -0.08  -0.02
  22   1     0.02  -0.01  -0.02    -0.02  -0.07   0.11     0.02  -0.13  -0.02
  23   1     0.03   0.01   0.04    -0.04  -0.02  -0.01     0.05   0.04   0.01
  24   1     0.03   0.01   0.04    -0.08  -0.04  -0.04    -0.04  -0.01   0.00
  25   1    -0.11   0.09   0.03    -0.00  -0.03  -0.03     0.02  -0.04  -0.00
  26   1    -0.04   0.01   0.01     0.01  -0.04  -0.05    -0.02   0.01   0.00
  27   1    -0.07  -0.07  -0.15    -0.03  -0.04  -0.01     0.01   0.05   0.09
  28   1    -0.14   0.02  -0.11    -0.04  -0.03  -0.01     0.04   0.00   0.07
  29   1    -0.17   0.02  -0.15    -0.02  -0.06  -0.01     0.05   0.00   0.08
  30   1     0.00   0.01  -0.01     0.01   0.00   0.01    -0.00   0.00   0.04
  31   1     0.00   0.02  -0.00     0.01  -0.01  -0.00    -0.00  -0.03   0.03
  32   1     0.00   0.01  -0.03     0.03  -0.01  -0.02     0.04   0.06  -0.03
  33   1     0.01   0.03  -0.03     0.03  -0.00  -0.00     0.01   0.01  -0.03
  34   1    -0.01   0.03  -0.04     0.03  -0.00   0.01     0.09  -0.01  -0.08
  35   1    -0.00   0.03  -0.04     0.04   0.01   0.01     0.05  -0.06  -0.07
  36   1    -0.01   0.02  -0.04     0.04   0.00   0.00     0.07  -0.02  -0.07
  37   1     0.04  -0.03  -0.00     0.05  -0.07   0.04    -0.01   0.00  -0.03
  38   1     0.04  -0.05   0.00     0.03  -0.04   0.03     0.03  -0.11   0.01
  39   1    -0.03  -0.07   0.03    -0.07  -0.15  -0.01    -0.04  -0.02   0.14
  40   1    -0.04  -0.04   0.02    -0.11  -0.05  -0.05    -0.03  -0.06   0.16
  41   1    -0.05  -0.02   0.01    -0.10  -0.08  -0.04    -0.07   0.05   0.12
                     10                     11                     12
                        a                      a                      a 
 Frequencies --    76.8991                75.1383                84.6303
 Red. masses --    11.8583                12.9759                13.3475
 Frc consts  --     0.0000                 0.0000                 0.0000
 IR Inten    --     1.1504                 2.2318                 1.6971
 Raman Activ --     0.0000                 0.0000                 0.0000
 Depolar     --     0.0000                 0.0000                 0.0000
 Atom AN      X      Y      Z        X      Y      Z        X      Y      Z
   1   6    -0.14   0.10  -0.01    -0.38   0.39   0.21     0.04  -0.06  -0.05
   2   6    -0.08  -0.01   0.01    -0.09  -0.06   0.06     0.02  -0.05   0.05
   3   8    -0.08  -0.05   0.02     0.11  -0.01   0.03    -0.10  -0.09   0.07
   4  15    -0.02   0.02   0.02     0.04  -0.03  -0.03    -0.02   0.04   0.01
   5  16     0.08   0.04  -0.00     0.07  -0.14  -0.23     0.31   0.07  -0.17
   6   8    -0.04   0.06   0.04     0.03  -0.06  -0.06    -0.09   0.13   0.01
   7   6    -0.04   0.05   0.03     0.01  -0.13  -0.05     0.08  -0.09   0.13
   8   6    -0.21  -0.05  -0.05     0.01  -0.13   0.02    -0.31  -0.33   0.24
   9  16     0.03   0.04  -0.03    -0.13   0.12   0.09    -0.02   0.10   0.00
  10   6    -0.01   0.04  -0.03     0.01   0.02   0.04     0.03   0.01  -0.05
  11  16     0.06   0.09   0.01    -0.05  -0.04   0.04     0.06  -0.08  -0.05
  12  15    -0.08  -0.02   0.11     0.05  -0.01  -0.05     0.04  -0.00   0.03
  13  16    -0.08   0.20   0.02     0.19   0.04  -0.11    -0.01   0.16  -0.02
  14   8    -0.20   0.03   0.12     0.04  -0.01  -0.05    -0.02   0.01   0.03
  15   6     0.17   0.02   0.02     0.04   0.02  -0.07    -0.03   0.08  -0.03
  16   6     0.50  -0.26  -0.13     0.06  -0.01  -0.10    -0.31   0.21  -0.19
  17   8    -0.04  -0.24   0.10     0.03  -0.02  -0.05     0.07  -0.07   0.07
  18   6    -0.02  -0.08  -0.00     0.01  -0.01   0.04     0.06  -0.03   0.07
  19   6     0.16  -0.10  -0.23    -0.08   0.07   0.33     0.10  -0.07  -0.05
  20   1    -0.06   0.02  -0.01    -0.20   0.12   0.08     0.01  -0.02  -0.03
  21   1    -0.04   0.04  -0.00    -0.15   0.10   0.07     0.03  -0.00  -0.02
  22   1    -0.03   0.04  -0.00    -0.04   0.21   0.07     0.00  -0.02  -0.02
  23   1    -0.03  -0.02   0.00    -0.09  -0.11   0.01     0.01  -0.01   0.03
  24   1     0.00  -0.00   0.01     0.07  -0.02  -0.01     0.01  -0.01   0.02
  25   1    -0.01   0.06   0.01     0.00  -0.05  -0.01     0.06   0.04   0.00
  26   1     0.02  -0.01   0.03     0.00  -0.04  -0.03     0.10  -0.08   0.07
  27   1    -0.06  -0.06  -0.01    -0.00  -0.03   0.01    -0.14  -0.16   0.11
  28   1    -0.09   0.01  -0.04     0.00  -0.04   0.01    -0.16  -0.04   0.02
  29   1    -0.06  -0.02  -0.01     0.01  -0.05   0.01    -0.04  -0.13   0.10
  30   1    -0.01   0.00  -0.01     0.01   0.02   0.01     0.01   0.00  -0.02
  31   1    -0.01   0.02  -0.01     0.01  -0.00   0.01     0.01   0.00  -0.02
  32   1     0.09   0.10   0.02     0.01   0.02  -0.03    -0.01  -0.02   0.02
  33   1     0.02  -0.02   0.01     0.00   0.01  -0.01     0.05   0.06  -0.02
  34   1     0.21  -0.06  -0.06     0.02   0.00  -0.03    -0.09   0.08  -0.07
  35   1     0.11  -0.16  -0.04     0.02  -0.01  -0.02    -0.09   0.10  -0.08
  36   1     0.17  -0.05  -0.04     0.02  -0.01  -0.03    -0.14   0.02  -0.04
  37   1    -0.02  -0.05   0.03    -0.00   0.04  -0.03     0.01  -0.03   0.04
  38   1    -0.03   0.03   0.00     0.02  -0.06   0.01     0.02   0.02   0.03
  39   1     0.05  -0.00  -0.08    -0.03   0.02   0.12     0.03  -0.02  -0.02
  40   1     0.06  -0.00  -0.10    -0.01  -0.02   0.14     0.03  -0.00  -0.04
  41   1     0.07  -0.08  -0.07    -0.04   0.07   0.10     0.03  -0.05  -0.02
                     13                     14                     15
                        a                      a                      a 
 Frequencies --    84.7078               105.5119               119.5866
 Red. masses --    12.8727                11.7454                12.5211
 Frc consts  --     0.0000                 0.0000                 0.0000
 IR Inten    --     0.8884                 1.8323                 2.7354
 Raman Activ --     0.0000                 0.0000                 0.0000
 Depolar     --     0.0000                 0.0000                 0.0000
 Atom AN      X      Y      Z        X      Y      Z        X      Y      Z
   1   6     0.05   0.08  -0.19     0.06   0.08   0.09    -0.00  -0.07   0.00
   2   6     0.04   0.05  -0.03     0.13  -0.06   0.14    -0.10   0.13  -0.09
   3   8    -0.11  -0.05   0.01     0.05   0.01   0.16     0.04   0.06  -0.12
   4  15    -0.03   0.05  -0.02    -0.11   0.00   0.09     0.08   0.00  -0.05
   5  16     0.10   0.05  -0.11     0.03   0.00   0.00    -0.07  -0.09  -0.10
   6   8    -0.04   0.10   0.04    -0.18  -0.01  -0.10     0.12  -0.00   0.06
   7   6     0.10  -0.00   0.13    -0.28  -0.16  -0.13     0.25   0.18   0.10
   8   6    -0.21  -0.19   0.15     0.02   0.02   0.10     0.00   0.03  -0.13
   9  16     0.02   0.07  -0.07    -0.05  -0.05   0.04    -0.12  -0.04   0.14
  10   6     0.00   0.05  -0.03     0.02  -0.06  -0.01     0.03  -0.06   0.13
  11  16     0.01   0.11  -0.05     0.05   0.10  -0.11    -0.17  -0.23   0.10
  12  15     0.01   0.04  -0.11     0.09   0.06  -0.17     0.03  -0.04   0.01
  13  16     0.04  -0.31   0.04    -0.10   0.02  -0.11     0.07   0.16  -0.10
  14   8     0.09   0.02  -0.09    -0.05   0.08  -0.16     0.03  -0.04  -0.06
  15   6    -0.12  -0.09   0.05    -0.26   0.07  -0.08    -0.33   0.16  -0.12
  16   6     0.21  -0.19   0.40     0.02  -0.05   0.15     0.04  -0.06  -0.03
  17   8    -0.01   0.19  -0.10     0.22  -0.02   0.04     0.09   0.03   0.08
  18   6    -0.02   0.03  -0.05     0.16   0.02   0.22     0.05   0.03   0.21
  19   6    -0.18   0.02   0.08     0.21  -0.08  -0.10     0.06  -0.05  -0.01
  20   1    -0.00   0.01  -0.07    -0.02   0.03   0.04     0.06  -0.03  -0.02
  21   1     0.04   0.04  -0.06     0.03   0.01   0.03    -0.03  -0.00   0.00
  22   1     0.01   0.02  -0.06     0.03   0.06   0.00    -0.02  -0.07   0.04
  23   1     0.02   0.02   0.00     0.03  -0.05   0.07    -0.02   0.09  -0.07
  24   1     0.03   0.02   0.01     0.08  -0.02   0.02    -0.09   0.05  -0.00
  25   1     0.06   0.06   0.01    -0.11  -0.15  -0.01     0.10   0.15  -0.00
  26   1     0.09  -0.04   0.08    -0.14  -0.01  -0.12     0.12   0.02   0.12
  27   1    -0.10  -0.12   0.07     0.03   0.11   0.01    -0.02  -0.09  -0.02
  28   1    -0.12  -0.01  -0.01     0.07  -0.03   0.10    -0.05   0.04  -0.11
  29   1    -0.03  -0.07   0.06    -0.01  -0.02   0.02     0.02   0.04  -0.03
  30   1     0.00   0.02  -0.01     0.01  -0.01   0.00     0.02   0.01   0.05
  31   1    -0.00   0.01  -0.01     0.01  -0.03  -0.00     0.03  -0.04   0.03
  32   1    -0.05   0.01  -0.06    -0.10   0.06  -0.11    -0.13   0.12  -0.17
  33   1    -0.12  -0.07   0.05    -0.16   0.00   0.02    -0.22   0.07   0.07
  34   1     0.03  -0.09   0.15    -0.03  -0.02   0.06    -0.06   0.03  -0.03
  35   1     0.07  -0.09   0.18     0.03  -0.05   0.12     0.04  -0.08   0.12
  36   1     0.15  -0.00   0.09     0.09   0.01   0.00     0.13  -0.04  -0.10
  37   1     0.01   0.02  -0.03    -0.00  -0.05   0.13    -0.02  -0.03   0.11
  38   1     0.01  -0.03  -0.02     0.07   0.09   0.10     0.04   0.07   0.09
  39   1    -0.05  -0.02   0.03     0.06  -0.02  -0.01     0.01  -0.02   0.01
  40   1    -0.07  -0.01   0.04     0.09   0.03  -0.09     0.03   0.02  -0.05
  41   1    -0.07   0.04   0.03     0.05  -0.10  -0.06     0.01  -0.07  -0.02
                     16                     17                     18
                        a                      a                      a 
 Frequencies --   138.3920               130.6710               152.4714
 Red. masses --    19.8881                12.5879                19.4892
 Frc consts  --     0.0000                 0.0000                 0.0000
 IR Inten    --     9.8018                 2.2722                 8.1544
 Raman Activ --     0.0000                 0.0000                 0.0000
 Depolar     --     0.0000                 0.0000                 0.0000
 Atom AN      X      Y      Z        X      Y      Z        X      Y      Z
   1   6     0.08   0.14   0.15     0.06   0.06   0.04     0.05   0.08   0.08
   2   6     0.18  -0.02   0.06     0.12  -0.04   0.05     0.22  -0.20   0.05
   3   8     0.18   0.17   0.04     0.07   0.04   0.06     0.12   0.03   0.04
   4  15    -0.02   0.12  -0.05    -0.02   0.02   0.01    -0.02   0.01  -0.07
   5  16    -0.33  -0.09  -0.20    -0.05   0.01   0.01    -0.10   0.12   0.16
   6   8    -0.07   0.14  -0.04    -0.06   0.03  -0.04    -0.07   0.06  -0.08
   7   6     0.14   0.17   0.07    -0.04  -0.00  -0.02     0.09   0.09   0.01
   8   6    -0.13   0.01   0.03    -0.04   0.00   0.03    -0.02   0.03   0.03
   9  16     0.09  -0.40  -0.04     0.08  -0.09  -0.06     0.10  -0.15  -0.16
  10   6     0.04  -0.13   0.19     0.03  -0.07  -0.09    -0.08  -0.06  -0.20
  11  16     0.00   0.19   0.11     0.18  -0.17  -0.00    -0.09  -0.23  -0.24
  12  15     0.02  -0.03  -0.11     0.09  -0.03   0.17    -0.15   0.07   0.11
  13  16    -0.23   0.05  -0.09    -0.23   0.12   0.19     0.41  -0.13   0.07
  14   8     0.02  -0.01  -0.05     0.07  -0.03   0.07    -0.14   0.06   0.09
  15   6     0.13  -0.13   0.01    -0.26   0.24  -0.06    -0.05   0.10   0.02
  16   6    -0.06   0.01   0.04     0.04   0.02  -0.09     0.02   0.01  -0.08
  17   8     0.04  -0.06  -0.04    -0.06  -0.02  -0.01    -0.11   0.09   0.08
  18   6     0.04  -0.03  -0.01     0.03  -0.10  -0.41    -0.13   0.10   0.18
  19   6     0.06  -0.02  -0.01    -0.02   0.05   0.05    -0.12   0.03  -0.04
  20   1    -0.02   0.06   0.08    -0.02   0.03   0.03    -0.07   0.05   0.08
  21   1     0.01   0.00   0.05     0.03  -0.00   0.01     0.03  -0.03   0.03
  22   1     0.05   0.09   0.02     0.03   0.05  -0.01     0.05   0.11  -0.03
  23   1     0.03  -0.06   0.05     0.03  -0.04   0.04     0.03  -0.15   0.08
  24   1     0.10  -0.02  -0.02     0.07  -0.02  -0.01     0.15  -0.08  -0.04
  25   1     0.09   0.13  -0.02    -0.01  -0.01  -0.01     0.06   0.06  -0.03
  26   1     0.10   0.02   0.10    -0.01  -0.00  -0.01     0.05   0.01   0.05
  27   1    -0.09  -0.08   0.05    -0.02   0.01   0.02    -0.04  -0.02   0.03
  28   1    -0.10   0.04  -0.06    -0.01   0.00   0.01    -0.03   0.02  -0.03
  29   1     0.01   0.01   0.04    -0.00  -0.01   0.02     0.03   0.01   0.03
  30   1     0.01  -0.02   0.09     0.00  -0.03  -0.04    -0.04  -0.05  -0.07
  31   1     0.02  -0.07   0.07    -0.01   0.00  -0.03    -0.03   0.02  -0.07
  32   1     0.05  -0.08   0.06    -0.11   0.13  -0.14    -0.01   0.06   0.00
  33   1     0.09  -0.05  -0.04    -0.17   0.11   0.08    -0.02   0.03   0.01
  34   1     0.00  -0.02   0.03    -0.05   0.07  -0.06     0.03   0.02  -0.04
  35   1    -0.02   0.04  -0.04     0.04  -0.06   0.10    -0.00  -0.02  -0.02
  36   1    -0.06   0.02   0.05     0.11  -0.04  -0.13     0.01  -0.00  -0.03
  37   1     0.00  -0.01  -0.00     0.10   0.06  -0.23    -0.06  -0.01   0.10
  38   1     0.01  -0.01  -0.00    -0.05  -0.17  -0.19    -0.02   0.09   0.08
  39   1     0.02   0.00   0.00     0.01  -0.00  -0.07    -0.04   0.01   0.01
  40   1     0.03  -0.01  -0.00    -0.09  -0.07   0.13    -0.01   0.05  -0.06
  41   1     0.02  -0.01  -0.00     0.05   0.15   0.08    -0.05  -0.05  -0.04
                     19                     20                     21
                        a                      a                      a 
 Frequencies --   163.0761               179.6961               198.4891
 Red. masses --    19.4902                19.0300                17.6348
 Frc consts  --     0.0000                 0.0000                 0.0000
 IR Inten    --    22.2757                10.8267                22.5592
 Raman Activ --     0.0000                 0.0000                 0.0000
 Depolar     --     0.0000                 0.0000                 0.0000
 Atom AN      X      Y      Z        X      Y      Z        X      Y      Z
   1   6    -0.06  -0.01  -0.12    -0.02  -0.03  -0.10    -0.09  -0.08  -0.19
   2   6     0.12  -0.35  -0.05     0.05  -0.18   0.00    -0.03  -0.22  -0.05
   3   8    -0.04  -0.14  -0.04    -0.08  -0.06   0.01    -0.16  -0.05  -0.05
   4  15    -0.04  -0.11  -0.15     0.05   0.09  -0.05     0.19   0.23  -0.04
   5  16    -0.01   0.23   0.40    -0.11   0.06   0.01    -0.22   0.04  -0.12
   6   8     0.01  -0.09  -0.06     0.08   0.07   0.03     0.22   0.15   0.08
   7   6     0.21   0.07   0.03    -0.08  -0.05  -0.04    -0.06  -0.07  -0.05
   8   6     0.08  -0.00  -0.10    -0.02  -0.01   0.05    -0.03  -0.05   0.04
   9  16    -0.35   0.19   0.03     0.18   0.07  -0.11     0.22  -0.00   0.10
  10   6    -0.05   0.04   0.06     0.08   0.12   0.08     0.20   0.03   0.21
  11  16    -0.02   0.11   0.12     0.19   0.12   0.23    -0.31  -0.20  -0.02
  12  15     0.09   0.01  -0.08    -0.05  -0.28   0.11    -0.00   0.13  -0.05
  13  16    -0.15   0.01  -0.03     0.03   0.31  -0.18    -0.03  -0.12   0.07
  14   8     0.04   0.02  -0.08     0.21  -0.30  -0.02    -0.08   0.13   0.04
  15   6     0.00  -0.01  -0.04    -0.09  -0.16  -0.06     0.01   0.12   0.03
  16   6    -0.02   0.03   0.04    -0.08  -0.18  -0.06     0.05   0.09   0.02
  17   8     0.10  -0.06  -0.02    -0.12   0.11   0.01     0.03  -0.05   0.00
  18   6     0.11  -0.07  -0.04    -0.14   0.13   0.11     0.05  -0.05  -0.02
  19   6     0.11  -0.04   0.02    -0.17   0.06  -0.04     0.08  -0.03   0.01
  20   1    -0.13   0.03   0.02    -0.07   0.01   0.01    -0.11   0.01   0.02
  21   1     0.03  -0.06  -0.03     0.04  -0.05  -0.03     0.06  -0.10  -0.05
  22   1     0.01   0.09  -0.12    -0.00   0.04  -0.09    -0.03   0.04  -0.17
  23   1     0.01  -0.20   0.06     0.00  -0.10   0.05    -0.02  -0.11   0.04
  24   1     0.14  -0.12  -0.07     0.07  -0.07  -0.03     0.05  -0.08  -0.06
  25   1     0.10   0.09  -0.03    -0.05  -0.06   0.02    -0.07  -0.07   0.03
  26   1     0.09   0.01   0.09    -0.04  -0.01  -0.07    -0.03  -0.02  -0.11
  27   1    -0.01  -0.07  -0.00     0.03   0.04  -0.01     0.08   0.06  -0.06
  28   1    -0.01   0.02  -0.10     0.01  -0.01   0.08     0.01  -0.01   0.15
  29   1     0.06   0.03  -0.01    -0.04  -0.04  -0.01    -0.11  -0.09  -0.04
  30   1     0.01   0.03   0.01     0.03   0.03   0.02     0.07   0.06   0.13
  31   1    -0.01  -0.01   0.03     0.01   0.03   0.03     0.12  -0.06   0.05
  32   1    -0.00  -0.01  -0.01    -0.05  -0.05  -0.07     0.01   0.05   0.02
  33   1     0.00  -0.01  -0.01    -0.05  -0.02   0.03     0.00   0.03   0.00
  34   1    -0.01  -0.01   0.02    -0.09  -0.01  -0.04     0.04   0.01   0.01
  35   1    -0.00   0.02   0.01     0.01  -0.05   0.05     0.00   0.01  -0.02
  36   1    -0.00   0.02   0.02     0.01  -0.10  -0.08     0.01   0.05   0.02
  37   1     0.04  -0.01  -0.03    -0.07   0.01   0.07     0.02  -0.01  -0.02
  38   1     0.02  -0.04  -0.02    -0.02   0.08   0.06     0.01  -0.03  -0.01
  39   1     0.04  -0.01  -0.01    -0.05   0.01   0.02     0.03   0.00  -0.01
  40   1     0.02  -0.03   0.02    -0.03   0.05  -0.05     0.02  -0.02   0.02
  41   1     0.04   0.00   0.02    -0.08  -0.02  -0.04     0.04   0.00   0.01
                     22                     23                     24
                        a                      a                      a 
 Frequencies --   224.7159               211.0928               231.1682
 Red. masses --    18.6772                 7.5470                 9.8740
 Frc consts  --     0.0000                 0.0000                 0.0000
 IR Inten    --    14.0623                14.6524                12.6983
 Raman Activ --     0.0000                 0.0000                 0.0000
 Depolar     --     0.0000                 0.0000                 0.0000
 Atom AN      X      Y      Z        X      Y      Z        X      Y      Z
   1   6     0.04   0.01   0.03    -0.01  -0.01  -0.02    -0.01  -0.00   0.01
   2   6     0.02   0.02   0.09    -0.01  -0.01  -0.00     0.01  -0.05   0.05
   3   8    -0.17   0.21   0.09    -0.01  -0.02   0.00    -0.02  -0.08   0.06
   4  15    -0.36   0.16   0.11     0.03   0.02   0.01    -0.03   0.01  -0.04
   5  16     0.19   0.23  -0.25    -0.03  -0.01   0.01    -0.04   0.04   0.03
   6   8     0.20  -0.27   0.30    -0.01   0.02  -0.03    -0.00  -0.02  -0.02
   7   6     0.07  -0.14   0.17     0.01  -0.00  -0.02     0.03  -0.01  -0.01
   8   6     0.18  -0.09  -0.22     0.01  -0.01  -0.00     0.03  -0.01  -0.04
   9  16    -0.08  -0.16  -0.15    -0.04   0.01   0.09    -0.11   0.04   0.01
  10   6     0.01  -0.09   0.01     0.11  -0.08   0.02     0.30  -0.12   0.10
  11  16     0.05  -0.01  -0.01     0.14  -0.11  -0.00     0.29  -0.09  -0.04
  12  15    -0.01  -0.00   0.00     0.03  -0.04   0.09     0.12  -0.00  -0.05
  13  16    -0.00   0.01  -0.00     0.07   0.16   0.02    -0.14  -0.05   0.02
  14   8    -0.03   0.00   0.01    -0.26   0.02  -0.16    -0.10   0.09   0.14
  15   6    -0.01   0.01   0.00    -0.17  -0.10  -0.09    -0.04   0.14   0.08
  16   6     0.01  -0.01  -0.01    -0.06  -0.16  -0.02     0.04   0.06  -0.02
  17   8    -0.01   0.02  -0.00     0.06   0.25   0.13    -0.07  -0.08  -0.21
  18   6    -0.02   0.02  -0.00     0.09   0.07  -0.05    -0.12   0.09  -0.04
  19   6    -0.03   0.01  -0.01    -0.05   0.03  -0.03    -0.19   0.07  -0.04
  20   1    -0.06   0.08   0.14     0.00  -0.01  -0.02     0.04  -0.07  -0.14
  21   1     0.11  -0.15   0.02    -0.00   0.02  -0.01    -0.08   0.15  -0.02
  22   1    -0.01   0.07  -0.15    -0.00  -0.01   0.00     0.02  -0.06   0.15
  23   1     0.01  -0.02   0.08    -0.00  -0.00  -0.00     0.00  -0.02   0.01
  24   1     0.04  -0.01  -0.02    -0.00  -0.00   0.00     0.01  -0.01   0.02
  25   1    -0.00  -0.02   0.07     0.01  -0.00  -0.01     0.01   0.00  -0.01
  26   1     0.01  -0.03   0.06     0.01  -0.00  -0.00     0.01  -0.00   0.00
  27   1     0.11  -0.06  -0.12    -0.01  -0.01   0.01    -0.01  -0.02   0.00
  28   1     0.08  -0.05  -0.07     0.00  -0.00  -0.01     0.01  -0.01  -0.04
  29   1    -0.01   0.05  -0.11     0.01   0.00   0.01     0.03   0.02  -0.00
  30   1     0.01  -0.01   0.01     0.04  -0.00   0.02     0.13   0.04   0.08
  31   1     0.01  -0.04   0.01     0.04  -0.04   0.01     0.13  -0.12   0.05
  32   1    -0.00   0.01   0.00    -0.04  -0.02  -0.01    -0.00   0.06   0.02
  33   1    -0.01   0.00   0.00    -0.05  -0.06  -0.05    -0.02   0.05   0.03
  34   1     0.02  -0.01  -0.00     0.35  -0.27   0.09     0.09  -0.01  -0.00
  35   1    -0.01  -0.01  -0.02    -0.19  -0.11  -0.37    -0.03  -0.02  -0.07
  36   1    -0.00   0.01   0.01    -0.16   0.22   0.27    -0.01   0.06   0.04
  37   1    -0.01   0.00   0.00     0.08   0.03  -0.04    -0.09   0.01   0.02
  38   1    -0.00   0.01   0.00     0.00  -0.02  -0.04     0.01   0.06   0.02
  39   1    -0.01   0.00   0.00     0.01  -0.07  -0.13    -0.12   0.09   0.31
  40   1    -0.00   0.01  -0.01    -0.16  -0.01   0.04     0.22   0.08  -0.13
  41   1    -0.01  -0.00  -0.01     0.06   0.09   0.06    -0.30  -0.11  -0.18
                     25                     26                     27
                        a                      a                      a 
 Frequencies --   221.6378               231.6846               248.4300
 Red. masses --     6.4079                 6.2562                10.8566
 Frc consts  --     0.0000                 0.0000                 0.0000
 IR Inten    --     4.1494                 4.3837                19.0432
 Raman Activ --     0.0000                 0.0000                 0.0000
 Depolar     --     0.0000                 0.0000                 0.0000
 Atom AN      X      Y      Z        X      Y      Z        X      Y      Z
   1   6     0.03   0.03   0.08     0.02   0.01   0.04     0.01  -0.00   0.01
   2   6     0.10  -0.10   0.07     0.03   0.05  -0.11    -0.01   0.05  -0.08
   3   8     0.01  -0.09   0.08     0.13   0.08  -0.14     0.08   0.02  -0.09
   4  15    -0.07   0.04  -0.13     0.06  -0.09  -0.05     0.04  -0.11  -0.04
   5  16    -0.01   0.16  -0.01     0.08  -0.06   0.03     0.04  -0.09   0.06
   6   8     0.11  -0.00   0.12     0.04   0.06   0.12    -0.02   0.02   0.04
   7   6     0.05   0.01   0.08     0.01   0.11   0.11     0.01   0.08   0.06
   8   6    -0.00  -0.03  -0.02    -0.11   0.04   0.13    -0.08   0.04   0.08
   9  16    -0.10  -0.06  -0.23    -0.12  -0.05  -0.04    -0.25   0.02   0.09
  10   6     0.00   0.01   0.04    -0.23   0.00  -0.11     0.22  -0.17   0.04
  11  16    -0.11   0.01  -0.00     0.01  -0.01   0.12     0.23   0.02  -0.15
  12  15    -0.05   0.01   0.01     0.08  -0.03   0.00     0.01   0.04  -0.02
  13  16     0.04   0.01  -0.01    -0.04   0.00   0.01     0.01   0.02  -0.01
  14   8     0.01  -0.01  -0.02     0.12  -0.03  -0.02    -0.31   0.10   0.01
  15   6     0.01  -0.04  -0.00    -0.05   0.08  -0.06     0.06  -0.13   0.09
  16   6    -0.02  -0.02   0.00     0.03   0.07   0.03    -0.05  -0.13  -0.05
  17   8     0.02   0.04   0.07    -0.01  -0.10  -0.09     0.04   0.16   0.04
  18   6     0.03  -0.02   0.01    -0.02  -0.03  -0.03     0.04   0.09  -0.01
  19   6     0.05  -0.02   0.01     0.00  -0.01   0.00    -0.09   0.05  -0.03
  20   1     0.13  -0.17  -0.31    -0.02   0.07   0.12    -0.03   0.07   0.13
  21   1    -0.21   0.38  -0.02     0.04  -0.12   0.03     0.06  -0.15   0.02
  22   1     0.07  -0.12   0.40     0.00   0.05  -0.08    -0.01   0.05  -0.12
  23   1     0.02  -0.05   0.02     0.00   0.01  -0.04    -0.00   0.03  -0.04
  24   1     0.05  -0.03   0.02    -0.00   0.01  -0.04    -0.02   0.02  -0.02
  25   1    -0.00   0.01   0.04    -0.00   0.04   0.04     0.01   0.03   0.01
  26   1     0.02  -0.00   0.01     0.01   0.02   0.02     0.01   0.02   0.02
  27   1     0.18   0.07  -0.16     0.21   0.13  -0.16     0.11   0.08  -0.09
  28   1     0.00   0.01   0.23    -0.05   0.06   0.39    -0.03   0.04   0.22
  29   1    -0.21  -0.11  -0.12    -0.31  -0.18  -0.11    -0.18  -0.11  -0.06
  30   1     0.01   0.03   0.04    -0.09  -0.06  -0.10     0.10   0.02   0.06
  31   1     0.01  -0.04   0.02    -0.12   0.07  -0.04     0.10  -0.12   0.03
  32   1     0.00  -0.02   0.00    -0.03   0.03  -0.06     0.05  -0.05   0.11
  33   1     0.01  -0.01  -0.01    -0.04   0.04   0.01     0.07  -0.07  -0.04
  34   1    -0.04   0.01  -0.01     0.16  -0.09   0.06    -0.21   0.12  -0.09
  35   1     0.01   0.00   0.03    -0.06  -0.01  -0.14     0.08  -0.00   0.18
  36   1     0.01  -0.03  -0.03    -0.04   0.15   0.13     0.05  -0.21  -0.18
  37   1     0.03  -0.00  -0.00    -0.03  -0.01  -0.00     0.03   0.03  -0.01
  38   1    -0.00  -0.02  -0.01     0.01   0.00   0.00     0.00   0.01  -0.01
  39   1     0.04  -0.04  -0.13    -0.03   0.06   0.17    -0.01  -0.05  -0.08
  40   1    -0.10  -0.03   0.05     0.16   0.02  -0.06    -0.13   0.01   0.02
  41   1     0.11   0.05   0.07    -0.12  -0.07  -0.09     0.02   0.06   0.03
                     28                     29                     30
                        a                      a                      a 
 Frequencies --   274.4683               277.7703               297.7309
 Red. masses --    13.1758                11.3597                13.8222
 Frc consts  --     0.0000                 0.0000                 0.0000
 IR Inten    --     5.1861                 5.1229                 7.2524
 Raman Activ --     0.0000                 0.0000                 0.0000
 Depolar     --     0.0000                 0.0000                 0.0000
 Atom AN      X      Y      Z        X      Y      Z        X      Y      Z
   1   6    -0.06  -0.03  -0.09    -0.03  -0.01  -0.03     0.06   0.05   0.13
   2   6    -0.07  -0.06   0.11    -0.07   0.03   0.10    -0.04   0.19   0.14
   3   8    -0.15  -0.04   0.14    -0.10  -0.09   0.13    -0.07  -0.24   0.18
   4  15     0.07   0.20   0.12     0.00   0.07   0.08    -0.12  -0.10  -0.04
   5  16    -0.11   0.06  -0.09    -0.07  -0.01  -0.01    -0.01  -0.03   0.08
   6   8    -0.04   0.09  -0.19    -0.15   0.05  -0.23    -0.24  -0.02  -0.24
   7   6     0.19  -0.03  -0.07     0.20   0.00  -0.06     0.15   0.01  -0.04
   8   6     0.13  -0.09  -0.13     0.10  -0.07  -0.11     0.07  -0.05  -0.08
   9  16     0.09  -0.09   0.32     0.01  -0.01   0.22     0.14   0.10  -0.29
  10   6    -0.25  -0.06  -0.16     0.02  -0.08  -0.04     0.20   0.16   0.13
  11  16     0.05  -0.00   0.02     0.20   0.09  -0.08    -0.22   0.02  -0.05
  12  15     0.07   0.03   0.05    -0.03  -0.05  -0.08    -0.09   0.02   0.07
  13  16     0.04   0.07   0.07    -0.06  -0.10  -0.10     0.06   0.04   0.05
  14   8    -0.18   0.05  -0.12     0.18  -0.04   0.14     0.08  -0.05  -0.01
  15   6     0.01  -0.15  -0.02     0.02   0.17   0.04    -0.03  -0.04  -0.01
  16   6    -0.05  -0.11  -0.01     0.07   0.15   0.02    -0.03  -0.05  -0.02
  17   8     0.07   0.11   0.04    -0.08  -0.18  -0.12    -0.01   0.09   0.11
  18   6     0.10  -0.02  -0.11    -0.16   0.06   0.16     0.05  -0.08  -0.07
  19   6     0.02  -0.01   0.00    -0.09   0.02  -0.02     0.10  -0.03   0.02
  20   1    -0.02  -0.05  -0.10    -0.02   0.01   0.01     0.01   0.08   0.15
  21   1     0.00   0.07  -0.04     0.05  -0.02  -0.01     0.08  -0.12   0.05
  22   1    -0.02  -0.04   0.00    -0.03  -0.01  -0.06    -0.02   0.04  -0.08
  23   1    -0.02  -0.02   0.05    -0.01   0.03   0.02     0.00   0.12  -0.02
  24   1    -0.00  -0.02   0.03    -0.03   0.02   0.05    -0.06   0.09   0.12
  25   1     0.09   0.02  -0.05     0.11   0.04  -0.06     0.10   0.05  -0.07
  26   1     0.08  -0.02   0.02     0.09  -0.01   0.05     0.07  -0.01   0.07
  27   1     0.12  -0.01  -0.11     0.15   0.01  -0.13     0.12   0.01  -0.11
  28   1     0.03  -0.01   0.06     0.02   0.00   0.11     0.01   0.01   0.09
  29   1    -0.07  -0.06  -0.10    -0.11  -0.08  -0.11    -0.09  -0.07  -0.09
  30   1    -0.12  -0.12  -0.13    -0.00  -0.04  -0.02     0.09   0.13   0.12
  31   1    -0.14   0.11  -0.08    -0.00  -0.00  -0.02     0.12  -0.07   0.06
  32   1     0.02  -0.05   0.04    -0.01   0.06  -0.04    -0.02  -0.01  -0.02
  33   1     0.03  -0.07  -0.05    -0.02   0.08   0.05    -0.02  -0.00   0.01
  34   1    -0.11   0.03  -0.03     0.08   0.00   0.02     0.02  -0.02  -0.00
  35   1     0.03  -0.01   0.09    -0.01   0.03  -0.05    -0.02  -0.02  -0.03
  36   1     0.01  -0.10  -0.07     0.00   0.09   0.05    -0.02  -0.00   0.01
  37   1     0.07   0.01  -0.06    -0.12  -0.02   0.10     0.06  -0.00  -0.05
  38   1     0.01  -0.04  -0.05    -0.01   0.09   0.09    -0.01  -0.06  -0.05
  39   1    -0.03   0.04   0.20     0.03  -0.07  -0.28     0.00   0.05   0.12
  40   1     0.17   0.01  -0.05    -0.27  -0.01   0.06     0.15  -0.01  -0.02
  41   1    -0.15  -0.05  -0.10     0.18   0.08   0.13    -0.05  -0.05  -0.05
                     31                     32                     33
                        a                      a                      a 
 Frequencies --   313.5930               330.7734               342.7000
 Red. masses --    13.0087                20.8744                19.7903
 Frc consts  --     0.0000                 0.0000                 0.0000
 IR Inten    --     6.2620                18.0639                 7.1697
 Raman Activ --     0.0000                 0.0000                 0.0000
 Depolar     --     0.0000                 0.0000                 0.0000
 Atom AN      X      Y      Z        X      Y      Z        X      Y      Z
   1   6    -0.00  -0.01  -0.00    -0.05  -0.05  -0.10    -0.04  -0.04  -0.09
   2   6     0.00  -0.02  -0.01    -0.00  -0.12  -0.09     0.03  -0.14  -0.14
   3   8     0.01   0.03  -0.01     0.05   0.22  -0.12     0.06   0.38  -0.18
   4  15     0.00   0.01   0.01    -0.05  -0.00   0.10    -0.30  -0.13   0.17
   5  16     0.01  -0.00  -0.00     0.04  -0.06  -0.03     0.12  -0.13  -0.02
   6   8     0.00  -0.00   0.01    -0.06  -0.04   0.01    -0.35  -0.15  -0.11
   7   6    -0.00   0.01   0.00    -0.01   0.02   0.04     0.03   0.02   0.08
   8   6    -0.00   0.01   0.00    -0.01   0.02   0.01     0.01   0.01  -0.02
   9  16     0.02  -0.00   0.01    -0.08  -0.01   0.29     0.36   0.17   0.05
  10   6    -0.10   0.05  -0.01     0.14  -0.14  -0.00     0.08   0.18   0.07
  11  16    -0.12   0.13  -0.01     0.02   0.28  -0.41    -0.06  -0.15   0.17
  12  15     0.13   0.05  -0.18    -0.31   0.03   0.10     0.10  -0.01  -0.03
  13  16    -0.07  -0.14  -0.12     0.11   0.02   0.04    -0.04  -0.00  -0.01
  14   8     0.12   0.00   0.43     0.31  -0.16   0.03    -0.13   0.06  -0.02
  15   6    -0.15   0.01   0.41    -0.02  -0.01  -0.02     0.01   0.00  -0.00
  16   6    -0.12  -0.29  -0.25    -0.02  -0.02  -0.01     0.01   0.01   0.01
  17   8     0.14   0.18  -0.09    -0.11   0.08   0.18     0.04  -0.02  -0.05
  18   6     0.15   0.03  -0.00    -0.04  -0.13  -0.06     0.02   0.05   0.01
  19   6     0.03  -0.01   0.01     0.16  -0.04   0.04    -0.05   0.01  -0.01
  20   1    -0.00  -0.00  -0.01    -0.02  -0.05  -0.09    -0.01  -0.05  -0.10
  21   1    -0.00   0.00  -0.00    -0.04   0.05  -0.04    -0.06   0.07  -0.04
  22   1     0.00  -0.00   0.00    -0.00  -0.02   0.02     0.01  -0.02   0.05
  23   1     0.00  -0.01   0.00    -0.01  -0.08   0.02    -0.00  -0.11   0.04
  24   1     0.00  -0.01  -0.01     0.03  -0.06  -0.08     0.06  -0.08  -0.13
  25   1    -0.00   0.00   0.00     0.01   0.01   0.00     0.07   0.05  -0.03
  26   1    -0.00   0.00   0.00    -0.00   0.01   0.03     0.02   0.00   0.11
  27   1    -0.00  -0.00   0.00     0.01   0.01  -0.01     0.07   0.01  -0.07
  28   1    -0.00   0.00  -0.00    -0.00   0.01   0.02     0.01   0.01   0.06
  29   1     0.00   0.00   0.00    -0.02  -0.00  -0.01    -0.08  -0.01  -0.05
  30   1    -0.04  -0.01  -0.02     0.04   0.01   0.07     0.02   0.05   0.02
  31   1    -0.04   0.04  -0.01     0.09  -0.09  -0.01     0.03   0.05   0.02
  32   1    -0.05   0.03   0.07    -0.03  -0.01  -0.07     0.01   0.00   0.02
  33   1    -0.06   0.04   0.16    -0.03   0.03   0.04     0.01  -0.01  -0.02
  34   1     0.13   0.01  -0.18     0.03  -0.03   0.01    -0.02   0.01   0.00
  35   1    -0.11  -0.20  -0.17    -0.02  -0.01  -0.04     0.01   0.01   0.02
  36   1    -0.10  -0.15  -0.07    -0.02   0.02   0.02     0.01  -0.01  -0.01
  37   1     0.05   0.01   0.00     0.04  -0.01  -0.05    -0.01   0.01   0.01
  38   1     0.06   0.00   0.00    -0.05  -0.08  -0.05     0.02   0.02   0.01
  39   1     0.01  -0.03   0.01     0.02   0.09   0.09    -0.01  -0.03  -0.02
  40   1    -0.01   0.00   0.00     0.17  -0.03   0.00    -0.05   0.01  -0.00
  41   1    -0.00   0.01   0.00     0.01  -0.06  -0.02    -0.01   0.02   0.00
                     34                     35                     36
                        a                      a                      a 
 Frequencies --   389.3938               409.7295               414.4226
 Red. masses --    20.8774                20.1392                18.6016
 Frc consts  --     0.0000                 0.0000                 0.0000
 IR Inten    --    28.4293                55.0511                12.6586
 Raman Activ --     0.0000                 0.0000                 0.0000
 Depolar     --     0.0000                 0.0000                 0.0000
 Atom AN      X      Y      Z        X      Y      Z        X      Y      Z
   1   6     0.01   0.01   0.01     0.11   0.07   0.21     0.09   0.05   0.15
   2   6     0.01   0.01  -0.01     0.16   0.06  -0.20     0.12   0.04  -0.16
   3   8    -0.01  -0.03  -0.00    -0.25  -0.21  -0.13    -0.21  -0.14  -0.11
   4  15    -0.02  -0.01  -0.03    -0.16  -0.13  -0.26    -0.09  -0.08  -0.15
   5  16    -0.01   0.02  -0.01    -0.06   0.17  -0.08    -0.04   0.11  -0.05
   6   8     0.01  -0.00   0.00    -0.00  -0.06   0.05    -0.01  -0.03   0.04
   7   6    -0.00  -0.00  -0.00    -0.03  -0.01   0.02    -0.02  -0.01   0.02
   8   6    -0.00  -0.00   0.00    -0.01   0.00   0.01    -0.00  -0.00  -0.00
   9  16     0.03   0.01   0.02     0.23   0.07   0.33     0.12   0.01   0.26
  10   6    -0.03   0.01   0.01     0.01  -0.03   0.03    -0.02  -0.00  -0.00
  11  16     0.13  -0.04   0.15     0.20  -0.13   0.12    -0.23   0.21  -0.24
  12  15    -0.25  -0.32  -0.05    -0.13   0.23  -0.08     0.15  -0.25   0.09
  13  16    -0.04  -0.17  -0.44    -0.00  -0.01   0.02     0.01   0.02   0.03
  14   8    -0.23  -0.09   0.22     0.05   0.08  -0.07    -0.02  -0.10   0.07
  15   6     0.07   0.20   0.02    -0.03  -0.05   0.02     0.03   0.04  -0.03
  16   6     0.12   0.25   0.08    -0.04  -0.08  -0.03     0.04   0.07   0.03
  17   8     0.02   0.39   0.20    -0.13   0.11  -0.13     0.19  -0.23   0.20
  18   6     0.13  -0.04  -0.04    -0.14  -0.13   0.04     0.19   0.20  -0.06
  19   6     0.10  -0.03   0.02     0.15  -0.05   0.05    -0.23   0.07  -0.08
  20   1     0.01   0.00   0.01     0.09   0.06   0.13     0.07   0.04   0.10
  21   1    -0.01  -0.00   0.01    -0.10  -0.06   0.09    -0.08  -0.04   0.07
  22   1     0.00   0.00   0.01     0.08   0.05   0.13     0.07   0.04   0.10
  23   1     0.00   0.00  -0.00     0.05   0.02  -0.04     0.04   0.00  -0.03
  24   1     0.00   0.00   0.00     0.05   0.02  -0.04     0.04   0.01  -0.04
  25   1    -0.00  -0.00   0.00    -0.01  -0.00   0.01    -0.01  -0.01   0.01
  26   1    -0.00  -0.00  -0.00    -0.01   0.00   0.01    -0.01  -0.00   0.00
  27   1    -0.00   0.00   0.00    -0.00   0.00   0.00     0.00  -0.00  -0.00
  28   1    -0.00  -0.00   0.00     0.00  -0.00   0.00     0.01  -0.01  -0.00
  29   1     0.00  -0.00   0.00    -0.00   0.01   0.00    -0.00   0.01  -0.00
  30   1    -0.01  -0.02  -0.04    -0.01  -0.06  -0.04    -0.03  -0.01   0.03
  31   1    -0.04   0.04   0.00    -0.02   0.06  -0.02     0.02   0.01  -0.02
  32   1     0.04   0.09   0.02    -0.01  -0.02   0.01     0.01   0.02  -0.02
  33   1     0.03   0.07   0.01    -0.01  -0.02  -0.00     0.01   0.03   0.01
  34   1     0.00   0.04   0.06     0.01  -0.01  -0.03    -0.00  -0.00   0.03
  35   1     0.05   0.10   0.04    -0.02  -0.04  -0.01     0.02   0.04   0.01
  36   1     0.06   0.10   0.03    -0.02  -0.04  -0.01     0.02   0.04   0.02
  37   1     0.12   0.01  -0.05    -0.05  -0.05   0.03     0.07   0.07  -0.04
  38   1    -0.01  -0.07  -0.06    -0.01  -0.02   0.03     0.02   0.03  -0.04
  39   1     0.02   0.02   0.05     0.05   0.09  -0.03    -0.07  -0.14   0.04
  40   1     0.08  -0.02   0.00     0.09  -0.04   0.04    -0.14   0.07  -0.05
  41   1     0.00  -0.02  -0.01     0.11  -0.04   0.04    -0.17   0.07  -0.06
                     37                     38                     39
                        a                      a                      a 
 Frequencies --   450.3989               479.0135               484.8825
 Red. masses --    15.8693                18.3792                19.6465
 Frc consts  --     0.0000                 0.0000                 0.0000
 IR Inten    --    92.7330               160.5781                62.4968
 Raman Activ --     0.0000                 0.0000                 0.0000
 Depolar     --     0.0000                 0.0000                 0.0000
 Atom AN      X      Y      Z        X      Y      Z        X      Y      Z
   1   6     0.08   0.04   0.11    -0.05  -0.02  -0.07    -0.06  -0.03  -0.08
   2   6     0.13   0.00  -0.21    -0.07  -0.00   0.05    -0.08  -0.00   0.06
   3   8    -0.25   0.03  -0.17     0.31  -0.05   0.04     0.37  -0.08   0.05
   4  15     0.21   0.11   0.18    -0.02  -0.10  -0.19    -0.05  -0.15  -0.24
   5  16     0.04  -0.24   0.13    -0.06   0.11  -0.02    -0.08   0.21  -0.07
   6   8    -0.22   0.47   0.05    -0.16   0.23   0.11    -0.16   0.16   0.12
   7   6    -0.03  -0.19   0.21    -0.08  -0.12   0.23    -0.09  -0.11   0.24
   8   6     0.14  -0.13  -0.17     0.07  -0.07  -0.08     0.05  -0.06  -0.07
   9  16    -0.16  -0.01  -0.16     0.06   0.02   0.05     0.10   0.01   0.14
  10   6     0.01   0.01  -0.03    -0.01  -0.01   0.06     0.00  -0.02  -0.02
  11  16    -0.01   0.01   0.01     0.16  -0.12   0.13    -0.15   0.11  -0.14
  12  15     0.03  -0.03   0.01    -0.31   0.28  -0.10     0.27  -0.26   0.08
  13  16    -0.00   0.00   0.00     0.01  -0.08  -0.12    -0.01   0.08   0.13
  14   8    -0.02  -0.00   0.01     0.16   0.05  -0.06    -0.14  -0.05   0.05
  15   6    -0.00   0.00  -0.00    -0.01  -0.02   0.03     0.00   0.01  -0.03
  16   6     0.00   0.00   0.00    -0.02  -0.04  -0.02     0.02   0.04   0.01
  17   8    -0.03   0.06  -0.04     0.11  -0.25   0.28    -0.08   0.21  -0.25
  18   6    -0.03  -0.03   0.01     0.12   0.11  -0.05    -0.10  -0.08   0.04
  19   6     0.03  -0.01   0.01    -0.12   0.04  -0.05     0.09  -0.04   0.04
  20   1     0.06   0.03   0.07    -0.04  -0.01  -0.03    -0.05  -0.02  -0.04
  21   1    -0.10  -0.03   0.05     0.05   0.00  -0.03     0.06   0.01  -0.04
  22   1     0.07   0.04   0.11    -0.04  -0.01  -0.07    -0.05  -0.02  -0.08
  23   1     0.04  -0.04   0.00    -0.03   0.03  -0.05    -0.03   0.04  -0.06
  24   1     0.07  -0.02  -0.09    -0.06   0.01   0.05    -0.07   0.02   0.06
  25   1    -0.02  -0.09   0.06    -0.03  -0.06   0.07    -0.03  -0.05   0.07
  26   1    -0.01  -0.06  -0.01    -0.03  -0.04   0.02    -0.03  -0.03   0.04
  27   1     0.10  -0.10  -0.10     0.07  -0.07  -0.07     0.06  -0.06  -0.06
  28   1     0.11  -0.10  -0.14     0.07  -0.07  -0.08     0.07  -0.06  -0.07
  29   1    -0.01   0.13  -0.10    -0.02   0.11  -0.06    -0.03   0.11  -0.06
  30   1     0.02   0.02   0.00    -0.00  -0.03  -0.03    -0.02  -0.01   0.02
  31   1     0.00  -0.03   0.01    -0.02   0.03   0.01     0.02   0.00  -0.02
  32   1     0.00   0.00   0.00    -0.01  -0.02  -0.01     0.01   0.01   0.01
  33   1     0.00   0.00  -0.00    -0.01  -0.01   0.01     0.01   0.01  -0.01
  34   1    -0.00   0.00   0.00     0.01   0.00  -0.02    -0.01  -0.00   0.02
  35   1     0.00   0.00   0.00    -0.01  -0.02  -0.01     0.01   0.02   0.01
  36   1     0.00   0.00  -0.00    -0.02  -0.02  -0.01     0.01   0.02   0.01
  37   1    -0.01  -0.01   0.01     0.07   0.06  -0.05    -0.06  -0.05   0.04
  38   1     0.00  -0.00   0.01    -0.02  -0.01  -0.06     0.02   0.01   0.05
  39   1     0.01   0.02  -0.01    -0.04  -0.09   0.04     0.03   0.07  -0.03
  40   1     0.02  -0.01   0.01    -0.07   0.04  -0.04     0.06  -0.03   0.03
  41   1     0.03  -0.01   0.01    -0.11   0.04  -0.05     0.09  -0.03   0.04
                     40                     41                     42
                        a                      a                      a 
 Frequencies --   611.5895               638.1692               670.7959
 Red. masses --    25.7804                23.1519                18.5981
 Frc consts  --     0.0000                 0.0000                 0.0000
 IR Inten    --   229.5393                90.6573                 7.7147
 Raman Activ --     0.0000                 0.0000                 0.0000
 Depolar     --     0.0000                 0.0000                 0.0000
 Atom AN      X      Y      Z        X      Y      Z        X      Y      Z
   1   6    -0.00  -0.00  -0.01     0.00   0.00   0.00    -0.00  -0.00  -0.00
   2   6     0.05  -0.03  -0.17    -0.01   0.00   0.03     0.00  -0.00  -0.02
   3   8     0.09  -0.21  -0.08    -0.01   0.03   0.01     0.01  -0.02   0.00
   4  15     0.38  -0.08   0.47    -0.06  -0.00  -0.08    -0.00  -0.05   0.08
   5  16    -0.19   0.42  -0.27     0.02  -0.04   0.03    -0.02   0.04  -0.03
   6   8    -0.22  -0.30  -0.04     0.03   0.04   0.01     0.01   0.03  -0.01
   7   6    -0.07  -0.02   0.11     0.01   0.00  -0.01     0.01   0.01  -0.02
   8   6    -0.03   0.04   0.03     0.00  -0.01  -0.00     0.00  -0.00  -0.00
   9  16    -0.09  -0.06  -0.07     0.02   0.01   0.03     0.15   0.31  -0.13
  10   6     0.08   0.10  -0.09     0.10  -0.08  -0.14     0.16  -0.67  -0.30
  11  16    -0.01  -0.00   0.04    -0.12   0.06   0.05    -0.24   0.15   0.34
  12  15     0.03   0.03   0.03     0.46   0.08   0.27    -0.10  -0.01  -0.08
  13  16    -0.01  -0.03  -0.07    -0.11  -0.18  -0.42     0.03   0.03   0.08
  14   8     0.02   0.03  -0.02     0.09   0.23  -0.15     0.00  -0.03   0.03
  15   6    -0.00   0.00   0.01    -0.01   0.01   0.06    -0.00  -0.00  -0.01
  16   6    -0.00  -0.00   0.00    -0.02  -0.04   0.00     0.00   0.00  -0.00
  17   8    -0.02  -0.01   0.06    -0.19  -0.01   0.40     0.01  -0.01  -0.04
  18   6    -0.03  -0.01   0.00    -0.27  -0.07   0.03     0.06   0.02   0.00
  19   6    -0.00   0.00  -0.00    -0.04   0.02  -0.02     0.01  -0.01   0.00
  20   1     0.01   0.02   0.03    -0.00  -0.00  -0.01     0.00   0.00   0.00
  21   1    -0.06  -0.04   0.01     0.01   0.01  -0.00    -0.01  -0.00   0.00
  22   1     0.03   0.02   0.03    -0.00  -0.00  -0.00     0.00   0.00   0.00
  23   1     0.01   0.00  -0.08    -0.00   0.00   0.01     0.00   0.00  -0.01
  24   1     0.00   0.01  -0.01    -0.00  -0.00   0.00    -0.00   0.00  -0.00
  25   1     0.01   0.03  -0.00    -0.00  -0.00   0.00     0.00  -0.00  -0.01
  26   1    -0.02   0.01   0.11     0.00  -0.00  -0.01     0.00   0.00  -0.01
  27   1     0.01   0.01  -0.01    -0.00  -0.00   0.00    -0.00   0.00   0.00
  28   1     0.00   0.00   0.01     0.00  -0.00  -0.00    -0.00   0.00   0.00
  29   1    -0.03   0.03  -0.01     0.00  -0.00   0.00     0.00  -0.01   0.00
  30   1     0.02   0.04  -0.01     0.01  -0.02  -0.01     0.05  -0.16  -0.07
  31   1     0.02  -0.01   0.00     0.02  -0.02  -0.03     0.01  -0.15  -0.07
  32   1    -0.00  -0.00   0.00    -0.01  -0.02   0.02     0.00   0.00  -0.00
  33   1    -0.00  -0.01   0.00    -0.00  -0.02  -0.00     0.00   0.01   0.00
  34   1     0.00   0.01  -0.01     0.03   0.03  -0.04    -0.00  -0.01   0.01
  35   1    -0.00  -0.01  -0.00    -0.02  -0.04  -0.01     0.00   0.00   0.00
  36   1    -0.00  -0.01  -0.00    -0.02  -0.04  -0.01     0.00   0.01   0.00
  37   1     0.00   0.00  -0.00    -0.00   0.00  -0.03     0.01   0.00   0.00
  38   1    -0.02  -0.01  -0.01    -0.14  -0.06  -0.04     0.02   0.01   0.00
  39   1    -0.00   0.01  -0.00    -0.01   0.10  -0.03     0.00  -0.02   0.01
  40   1     0.00   0.00  -0.00     0.04  -0.01  -0.00    -0.01   0.00  -0.00
  41   1     0.00  -0.01  -0.00     0.04  -0.04   0.01    -0.01   0.00  -0.00
                     43                     44                     45
                        a                      a                      a 
 Frequencies --   692.5258               726.5089               751.2554
 Red. masses --    16.6976                19.9637                22.9018
 Frc consts  --     0.0000                 0.0000                 0.0000
 IR Inten    --    31.3019               180.4533               269.8834
 Raman Activ --     0.0000                 0.0000                 0.0000
 Depolar     --     0.0000                 0.0000                 0.0000
 Atom AN      X      Y      Z        X      Y      Z        X      Y      Z
   1   6    -0.01  -0.01  -0.01    -0.05  -0.03  -0.05     0.01   0.00   0.01
   2   6     0.01  -0.01  -0.05     0.07  -0.06  -0.24    -0.01   0.01   0.03
   3   8     0.03  -0.05  -0.01     0.29  -0.27  -0.03    -0.03   0.04  -0.00
   4  15     0.03  -0.01   0.14    -0.48  -0.05   0.41     0.02  -0.08   0.01
   5  16    -0.02   0.05  -0.04    -0.01   0.05  -0.03    -0.01   0.02  -0.02
   6   8    -0.01  -0.00  -0.02     0.22   0.35   0.04     0.01   0.03   0.00
   7   6    -0.00   0.00  -0.00     0.14   0.07  -0.22     0.01   0.01  -0.01
   8   6    -0.00   0.00  -0.00     0.05  -0.06  -0.04     0.00  -0.00  -0.00
   9  16     0.15   0.31  -0.18    -0.02  -0.06   0.01     0.01   0.03  -0.01
  10   6    -0.52  -0.33   0.51     0.05   0.08  -0.02    -0.02  -0.04   0.00
  11  16     0.14  -0.06  -0.23    -0.00  -0.01  -0.00    -0.01   0.01  -0.04
  12  15     0.11  -0.01   0.02     0.00   0.00   0.02    -0.24  -0.06   0.64
  13  16    -0.01  -0.01  -0.04    -0.00  -0.00  -0.01    -0.06  -0.10  -0.25
  14   8    -0.00   0.02  -0.02    -0.00   0.00  -0.01     0.09   0.23  -0.18
  15   6     0.00   0.00   0.01     0.01  -0.00   0.00    -0.02   0.04   0.08
  16   6    -0.00  -0.00   0.00     0.00   0.00   0.00    -0.01  -0.01   0.03
  17   8    -0.03   0.01   0.08     0.00   0.00  -0.01     0.10  -0.02  -0.41
  18   6    -0.07  -0.02   0.00     0.00   0.00  -0.00     0.21   0.06  -0.06
  19   6    -0.01   0.01  -0.01     0.00  -0.00   0.00     0.07  -0.05   0.03
  20   1     0.00   0.00   0.01    -0.02   0.01   0.03     0.00  -0.00  -0.00
  21   1    -0.02  -0.01   0.00    -0.11  -0.05   0.00     0.01   0.01  -0.00
  22   1     0.01   0.01   0.01     0.04   0.04   0.02    -0.00  -0.00  -0.00
  23   1     0.00   0.00  -0.02     0.02   0.05  -0.16    -0.00  -0.01   0.02
  24   1    -0.00   0.00  -0.00    -0.05   0.02   0.02     0.01  -0.00  -0.00
  25   1     0.00  -0.00  -0.01    -0.01  -0.04  -0.01    -0.00  -0.01  -0.00
  26   1    -0.00   0.00  -0.00     0.02   0.02  -0.16    -0.00   0.00  -0.01
  27   1    -0.00   0.00   0.00    -0.02  -0.01   0.02    -0.00  -0.00   0.00
  28   1    -0.00   0.00   0.00    -0.04   0.03   0.01    -0.00   0.00  -0.00
  29   1    -0.00  -0.00  -0.00     0.05  -0.11   0.02     0.00  -0.01   0.00
  30   1    -0.08  -0.02   0.15     0.00   0.01  -0.01    -0.00   0.01   0.04
  31   1    -0.07  -0.13   0.11     0.01   0.02  -0.00     0.01  -0.04   0.01
  32   1    -0.00  -0.00  -0.00     0.00   0.01  -0.01    -0.00  -0.02   0.06
  33   1    -0.00  -0.00   0.00    -0.01  -0.01   0.01     0.02  -0.02  -0.02
  34   1     0.00   0.00  -0.00    -0.01   0.01  -0.00     0.05   0.05  -0.05
  35   1    -0.00  -0.00  -0.00     0.00   0.01  -0.01    -0.03  -0.06  -0.01
  36   1    -0.00  -0.00  -0.00    -0.01  -0.01   0.00    -0.01  -0.05  -0.02
  37   1    -0.00  -0.00  -0.01    -0.00  -0.00   0.00    -0.04  -0.03   0.05
  38   1    -0.03  -0.01  -0.01     0.00   0.00   0.00     0.15   0.11   0.06
  39   1    -0.00   0.03  -0.01     0.00  -0.00   0.00     0.02  -0.11   0.05
  40   1     0.01  -0.00   0.00    -0.00  -0.00   0.00    -0.03  -0.02   0.03
  41   1     0.01  -0.01   0.00    -0.00   0.00  -0.00    -0.04   0.05  -0.00
                     46                     47                     48
                        a                      a                      a 
 Frequencies --   757.3810               771.2731               803.4482
 Red. masses --    22.9153                19.9666                 5.8011
 Frc consts  --     0.0000                 0.0000                 0.0000
 IR Inten    --   282.2914               189.6546                10.9377
 Raman Activ --     0.0000                 0.0000                 0.0000
 Depolar     --     0.0000                 0.0000                 0.0000
 Atom AN      X      Y      Z        X      Y      Z        X      Y      Z
   1   6    -0.05  -0.03  -0.06     0.00   0.00   0.00     0.00   0.00   0.00
   2   6     0.07  -0.05  -0.20    -0.00   0.00   0.00    -0.00   0.00   0.00
   3   8     0.22  -0.29   0.02    -0.01   0.01   0.00     0.00  -0.01  -0.01
   4  15    -0.11   0.68  -0.10     0.00  -0.02   0.01     0.01   0.00   0.03
   5  16     0.09  -0.22   0.14    -0.00   0.01  -0.00    -0.00  -0.01   0.00
   6   8    -0.09  -0.29  -0.05     0.00   0.01   0.00    -0.01  -0.02  -0.03
   7   6    -0.11  -0.06   0.15     0.00   0.00  -0.01    -0.01  -0.00   0.02
   8   6    -0.05   0.05   0.03     0.00  -0.00  -0.00    -0.00   0.01   0.01
   9  16     0.03   0.01   0.02    -0.01  -0.01  -0.00    -0.08   0.05  -0.12
  10   6    -0.01  -0.05  -0.03    -0.00   0.02   0.01     0.37  -0.08   0.38
  11  16    -0.02   0.01   0.01     0.02  -0.01   0.02    -0.08   0.02  -0.13
  12  15    -0.03  -0.02   0.07    -0.14  -0.52  -0.26     0.00  -0.00   0.05
  13  16    -0.00  -0.01  -0.02     0.06   0.11   0.21    -0.00  -0.00  -0.00
  14   8     0.01   0.04  -0.04     0.17   0.42  -0.36     0.00  -0.00  -0.00
  15   6     0.01   0.00   0.02    -0.03   0.14   0.29     0.00  -0.00   0.00
  16   6     0.01   0.00   0.01     0.03   0.07   0.06    -0.00  -0.00  -0.00
  17   8     0.01  -0.00  -0.04     0.00   0.01   0.12     0.03   0.01   0.00
  18   6     0.02   0.01  -0.01    -0.07  -0.02   0.01    -0.02  -0.02  -0.03
  19   6     0.01  -0.01   0.00    -0.02   0.01  -0.01    -0.01   0.00  -0.01
  20   1    -0.02   0.02   0.03     0.00  -0.00  -0.00     0.01   0.00   0.00
  21   1    -0.11  -0.05   0.00     0.00   0.00   0.00     0.00  -0.00   0.00
  22   1     0.04   0.04   0.03    -0.00  -0.00  -0.00    -0.00  -0.00   0.00
  23   1     0.02   0.06  -0.16    -0.00  -0.00   0.00    -0.00  -0.00   0.00
  24   1    -0.05   0.03   0.03     0.00  -0.00  -0.00     0.01   0.00  -0.00
  25   1     0.02   0.05   0.00    -0.00  -0.00  -0.00     0.00  -0.00  -0.00
  26   1    -0.00  -0.02   0.13    -0.00   0.00  -0.00    -0.00   0.00   0.01
  27   1     0.01   0.03  -0.01    -0.00  -0.00   0.00     0.00  -0.00  -0.00
  28   1     0.04  -0.02   0.00    -0.00   0.00   0.00    -0.00   0.00  -0.00
  29   1    -0.03   0.08  -0.01     0.00  -0.00   0.00    -0.01   0.01  -0.00
  30   1     0.00  -0.01  -0.00    -0.00  -0.01  -0.01    -0.11  -0.47  -0.30
  31   1     0.00  -0.01  -0.02    -0.01   0.01  -0.00    -0.25   0.51   0.03
  32   1     0.00   0.01  -0.00    -0.02  -0.03   0.11    -0.00   0.00  -0.00
  33   1    -0.01  -0.01   0.01     0.02  -0.03   0.00    -0.00  -0.00   0.00
  34   1     0.00   0.02  -0.01     0.14   0.17  -0.13    -0.00   0.00  -0.00
  35   1    -0.00   0.00  -0.01    -0.06  -0.12  -0.03     0.00   0.00  -0.00
  36   1    -0.01  -0.02  -0.00    -0.03  -0.10  -0.05    -0.00  -0.00   0.00
  37   1    -0.00  -0.00   0.00     0.01   0.01  -0.02    -0.02  -0.03   0.02
  38   1     0.02   0.01   0.01    -0.04  -0.03  -0.02     0.00   0.04   0.01
  39   1     0.00  -0.01   0.01    -0.01   0.03  -0.01    -0.00   0.02   0.01
  40   1    -0.00  -0.00   0.00     0.01   0.01  -0.01     0.01  -0.03   0.02
  41   1    -0.00   0.00  -0.00     0.01  -0.02   0.00    -0.01   0.03   0.00
                     49                     50                     51
                        a                      a                      a 
 Frequencies --   817.3552               819.8296               819.8665
 Red. masses --     2.4008                 2.6739                 2.5837
 Frc consts  --     0.0000                 0.0000                 0.0000
 IR Inten    --     6.0605                 1.9090                 3.3233
 Raman Activ --     0.0000                 0.0000                 0.0000
 Depolar     --     0.0000                 0.0000                 0.0000
 Atom AN      X      Y      Z        X      Y      Z        X      Y      Z
   1   6     0.01  -0.00   0.01    -0.02   0.01  -0.01     0.07  -0.08   0.03
   2   6     0.00  -0.01   0.02    -0.02   0.04  -0.03     0.11  -0.21   0.08
   3   8    -0.02   0.02  -0.01     0.03  -0.03   0.02    -0.10   0.11  -0.07
   4  15     0.02  -0.01  -0.01    -0.02   0.03   0.01     0.04  -0.01  -0.02
   5  16    -0.00   0.00  -0.00     0.00  -0.01   0.00     0.00  -0.00  -0.00
   6   8    -0.01  -0.02  -0.02    -0.00  -0.01   0.00    -0.04  -0.05  -0.03
   7   6     0.03   0.02   0.03     0.01   0.01   0.00     0.09   0.05   0.06
   8   6     0.01   0.01   0.01     0.00   0.00   0.00     0.03   0.03   0.02
   9  16     0.01  -0.00   0.01     0.00  -0.01   0.01     0.00   0.01   0.00
  10   6    -0.02   0.00  -0.03    -0.02   0.01  -0.02     0.00  -0.00   0.00
  11  16     0.00  -0.00   0.02     0.00   0.00   0.01    -0.00   0.00  -0.00
  12  15     0.00  -0.02  -0.03     0.02   0.01  -0.07     0.00   0.00  -0.01
  13  16     0.00   0.01   0.01     0.00   0.00   0.01     0.00   0.00   0.00
  14   8    -0.06   0.03  -0.07     0.05  -0.03   0.05     0.01  -0.01   0.01
  15   6     0.18  -0.08   0.08    -0.14   0.07  -0.06    -0.04   0.02  -0.02
  16   6     0.07  -0.02   0.03    -0.05   0.02  -0.03    -0.01   0.01  -0.00
  17   8     0.00   0.02   0.10     0.01   0.02   0.15    -0.00   0.00   0.01
  18   6     0.01  -0.05  -0.16    -0.00  -0.08  -0.20    -0.00  -0.00  -0.01
  19   6     0.00  -0.01  -0.07    -0.00  -0.01  -0.09     0.00   0.00  -0.00
  20   1    -0.02  -0.00  -0.01     0.07   0.01   0.01    -0.38  -0.05  -0.04
  21   1     0.01   0.01  -0.00    -0.00  -0.03   0.00    -0.04   0.13  -0.01
  22   1     0.01   0.02  -0.00    -0.04  -0.06   0.00     0.23   0.30   0.01
  23   1     0.01   0.02  -0.00    -0.04  -0.06   0.02     0.22   0.34  -0.12
  24   1    -0.02  -0.00   0.01     0.07   0.01  -0.02    -0.41  -0.02   0.11
  25   1    -0.01  -0.08   0.02    -0.00  -0.02   0.00    -0.02  -0.21   0.05
  26   1    -0.06   0.05  -0.05    -0.01   0.01  -0.01    -0.14   0.12  -0.11
  27   1     0.01  -0.08  -0.01     0.00  -0.02  -0.00     0.02  -0.19  -0.02
  28   1    -0.06   0.05  -0.02    -0.01   0.01  -0.00    -0.15   0.12  -0.04
  29   1    -0.02  -0.01  -0.01    -0.00  -0.01  -0.00    -0.05  -0.03  -0.03
  30   1     0.01   0.03   0.02     0.01   0.03   0.01    -0.00  -0.00  -0.00
  31   1     0.01  -0.03  -0.00     0.01  -0.03  -0.00    -0.00   0.00   0.00
  32   1     0.02   0.27  -0.26    -0.01  -0.22   0.21    -0.00  -0.06   0.06
  33   1    -0.31  -0.11   0.20     0.25   0.09  -0.16     0.08   0.03  -0.05
  34   1    -0.08   0.08  -0.04     0.07  -0.06   0.03     0.02  -0.02   0.01
  35   1     0.05   0.28  -0.15    -0.04  -0.22   0.12    -0.01  -0.07   0.03
  36   1    -0.28  -0.17   0.09     0.23   0.14  -0.07     0.07   0.04  -0.02
  37   1    -0.06  -0.22   0.19    -0.08  -0.27   0.23    -0.00  -0.01   0.01
  38   1     0.00   0.30   0.06    -0.00   0.36   0.07    -0.00   0.01   0.00
  39   1    -0.02   0.04   0.08    -0.03   0.06   0.10    -0.00   0.00   0.00
  40   1     0.04  -0.20   0.18     0.05  -0.24   0.22     0.00  -0.01   0.01
  41   1    -0.08   0.25   0.02    -0.09   0.31   0.02    -0.00   0.01   0.00
                     52                     53                     54
                        a                      a                      a 
 Frequencies --   820.5631               908.1901               913.9674
 Red. masses --     2.6422                13.0178                12.4017
 Frc consts  --     0.0000                 0.0000                 0.0000
 IR Inten    --     2.7735               329.0510               317.8575
 Raman Activ --     0.0000                 0.0000                 0.0000
 Depolar     --     0.0000                 0.0000                 0.0000
 Atom AN      X      Y      Z        X      Y      Z        X      Y      Z
   1   6    -0.03   0.04  -0.01    -0.03  -0.02  -0.05    -0.13  -0.09  -0.17
   2   6    -0.05   0.10  -0.03     0.02   0.01  -0.08     0.06   0.03  -0.29
   3   8     0.05  -0.07   0.03     0.00   0.05   0.14     0.00   0.18   0.49
   4  15    -0.01   0.08  -0.01     0.04  -0.00  -0.03     0.15  -0.02  -0.14
   5  16     0.01  -0.01   0.01     0.00  -0.00   0.00     0.00   0.00   0.00
   6   8    -0.06  -0.11  -0.07    -0.06  -0.01   0.08    -0.26  -0.03   0.32
   7   6     0.17   0.10   0.13     0.02   0.01  -0.05     0.05   0.07  -0.21
   8   6     0.07   0.06   0.05     0.03  -0.03  -0.02     0.13  -0.12  -0.11
   9  16     0.01   0.00   0.00    -0.00  -0.00  -0.00    -0.00  -0.00  -0.02
  10   6     0.00  -0.00  -0.00    -0.01   0.00  -0.00     0.01  -0.00   0.02
  11  16    -0.00   0.00   0.00    -0.00  -0.00   0.01     0.00  -0.00  -0.01
  12  15    -0.00   0.00   0.01    -0.12  -0.16   0.03     0.04   0.03  -0.02
  13  16    -0.00  -0.00  -0.00     0.00  -0.01   0.00    -0.00   0.00  -0.00
  14   8     0.00  -0.00   0.00     0.15   0.48   0.33    -0.03  -0.08  -0.07
  15   6    -0.01   0.00  -0.00    -0.01  -0.14  -0.32     0.01   0.03   0.06
  16   6    -0.00   0.00  -0.00    -0.06  -0.16  -0.09     0.01   0.03   0.02
  17   8    -0.00  -0.00  -0.03     0.36   0.00  -0.00    -0.15  -0.00   0.00
  18   6    -0.00   0.02   0.04    -0.19  -0.09  -0.02     0.08   0.04   0.01
  19   6     0.00   0.00   0.02    -0.14   0.08  -0.05     0.06  -0.04   0.02
  20   1     0.19   0.02   0.02     0.00   0.01   0.02     0.02   0.04   0.07
  21   1     0.02  -0.07   0.01    -0.07  -0.04  -0.00    -0.26  -0.14  -0.00
  22   1    -0.12  -0.15  -0.00     0.01   0.01   0.02     0.05   0.03   0.07
  23   1    -0.11  -0.17   0.06     0.02   0.02   0.00     0.08   0.06   0.02
  24   1     0.20   0.01  -0.05     0.00   0.01   0.00     0.02   0.04   0.01
  25   1    -0.04  -0.41   0.10    -0.01   0.00  -0.00    -0.04   0.03   0.00
  26   1    -0.28   0.24  -0.22    -0.01   0.02   0.00    -0.05   0.07   0.01
  27   1     0.05  -0.37  -0.03    -0.01   0.00   0.01    -0.05   0.01   0.04
  28   1    -0.29   0.24  -0.09    -0.01   0.01   0.01    -0.04   0.03   0.05
  29   1    -0.11  -0.06  -0.06     0.02  -0.05   0.01     0.11  -0.23   0.04
  30   1     0.00   0.00   0.00     0.00   0.01   0.00    -0.00  -0.02  -0.01
  31   1     0.00  -0.00  -0.00     0.00  -0.01   0.00    -0.01   0.02   0.00
  32   1    -0.00  -0.01   0.01     0.05   0.08  -0.03    -0.01  -0.01  -0.00
  33   1     0.01   0.00  -0.01    -0.01   0.02  -0.02    -0.00  -0.00   0.01
  34   1     0.00  -0.00   0.00    -0.16  -0.19   0.12     0.03   0.03  -0.02
  35   1    -0.00  -0.01   0.01     0.05   0.09   0.02    -0.01  -0.01  -0.00
  36   1     0.01   0.01  -0.00     0.00   0.06   0.04    -0.01  -0.01  -0.00
  37   1     0.02   0.06  -0.05     0.02  -0.03  -0.00    -0.01   0.02   0.00
  38   1    -0.00  -0.08  -0.02     0.02  -0.06   0.02    -0.01   0.03  -0.01
  39   1     0.01  -0.01  -0.02    -0.04   0.20  -0.07     0.02  -0.09   0.03
  40   1    -0.01   0.06  -0.05     0.06  -0.02   0.01    -0.02   0.01  -0.00
  41   1     0.02  -0.07  -0.01     0.05  -0.02   0.02    -0.02   0.01  -0.01
                     55                     56                     57
                        a                      a                      a 
 Frequencies --   921.0629               937.2817              1037.9121
 Red. masses --    12.2403                11.0454                 8.4929
 Frc consts  --     0.0000                 0.0000                 0.0000
 IR Inten    --   179.4888                78.5823               180.6761
 Raman Activ --     0.0000                 0.0000                 0.0000
 Depolar     --     0.0000                 0.0000                 0.0000
 Atom AN      X      Y      Z        X      Y      Z        X      Y      Z
   1   6    -0.01  -0.01  -0.01     0.14   0.10   0.16    -0.06  -0.04  -0.07
   2   6     0.00   0.00  -0.02    -0.08  -0.05   0.18     0.06   0.05   0.12
   3   8     0.00   0.01   0.03     0.04  -0.16  -0.40     0.01  -0.01  -0.09
   4  15     0.02   0.00  -0.02     0.03   0.17  -0.00    -0.01   0.00   0.01
   5  16    -0.00  -0.00   0.00     0.01  -0.01   0.01    -0.00   0.00  -0.00
   6   8    -0.04  -0.00   0.05    -0.32  -0.03   0.38     0.01   0.01  -0.03
   7   6     0.01   0.01  -0.03     0.02   0.11  -0.21    -0.04   0.03   0.04
   8   6     0.02  -0.02  -0.02     0.18  -0.17  -0.16     0.03  -0.03  -0.03
   9  16     0.01   0.00   0.00     0.01   0.02   0.01     0.00   0.00   0.00
  10   6    -0.00  -0.01  -0.03    -0.00  -0.02   0.01     0.00  -0.00   0.00
  11  16    -0.03   0.01   0.01    -0.00  -0.00  -0.00     0.01  -0.00  -0.00
  12  15    -0.07   0.12   0.10     0.00  -0.01  -0.00     0.00  -0.02  -0.00
  13  16    -0.00  -0.00  -0.02     0.00  -0.00   0.00     0.00   0.01   0.00
  14   8    -0.13  -0.36  -0.19     0.01   0.03   0.02     0.01  -0.04  -0.18
  15   6     0.01   0.08   0.21    -0.00  -0.01  -0.02     0.18   0.34   0.16
  16   6     0.05   0.12   0.06    -0.00  -0.01  -0.00    -0.17  -0.30  -0.06
  17   8     0.56  -0.00  -0.04    -0.02   0.00   0.00    -0.22  -0.05  -0.01
  18   6    -0.26  -0.17  -0.02     0.01   0.01  -0.00     0.34  -0.13   0.10
  19   6    -0.23   0.14  -0.09     0.01  -0.01   0.00    -0.21   0.15  -0.08
  20   1     0.00   0.00   0.00    -0.02  -0.03  -0.06     0.01   0.01   0.03
  21   1    -0.02  -0.01   0.00     0.26   0.14  -0.00    -0.09  -0.05  -0.00
  22   1     0.00   0.00   0.01    -0.04  -0.03  -0.07     0.01  -0.00   0.03
  23   1     0.01   0.00   0.00    -0.08  -0.06  -0.05     0.03   0.02   0.05
  24   1     0.00   0.00   0.00    -0.03  -0.04  -0.02     0.04   0.02   0.03
  25   1    -0.01   0.01   0.00    -0.07   0.07   0.02    -0.01   0.02   0.01
  26   1    -0.01   0.01   0.00    -0.07   0.09   0.03    -0.02   0.01   0.01
  27   1    -0.01   0.00   0.01    -0.07   0.04   0.07    -0.01   0.00   0.01
  28   1    -0.01   0.00   0.01    -0.04   0.03   0.08    -0.01   0.00   0.01
  29   1     0.02  -0.04   0.01     0.17  -0.33   0.06     0.03  -0.05   0.01
  30   1     0.01   0.02  -0.00    -0.00  -0.01  -0.01    -0.01  -0.00   0.01
  31   1     0.00  -0.02   0.00    -0.01   0.01   0.00     0.00   0.00  -0.01
  32   1    -0.03  -0.04   0.01     0.00   0.00   0.00     0.07   0.15   0.03
  33   1    -0.00  -0.02   0.02    -0.00  -0.00  -0.00     0.09   0.14   0.04
  34   1     0.11   0.13  -0.08    -0.01  -0.01   0.01    -0.19  -0.25   0.15
  35   1    -0.03  -0.06  -0.02     0.00   0.00   0.00     0.03   0.03   0.08
  36   1    -0.01  -0.04  -0.02     0.00   0.00   0.00    -0.00   0.06   0.06
  37   1     0.03  -0.06   0.00    -0.00   0.00  -0.00     0.08  -0.07   0.06
  38   1     0.06  -0.10   0.04    -0.00   0.00  -0.00     0.13  -0.07   0.04
  39   1    -0.06   0.33  -0.12     0.00  -0.01   0.00    -0.05   0.27  -0.10
  40   1     0.09  -0.02   0.01    -0.00   0.00  -0.00     0.08  -0.00  -0.00
  41   1     0.09  -0.04   0.03    -0.00   0.00  -0.00     0.07  -0.01   0.03
                     58                     59                     60
                        a                      a                      a 
 Frequencies --  1040.5762              1042.0527              1059.3696
 Red. masses --     8.7185                 8.7370                10.0655
 Frc consts  --     0.0000                 0.0000                 0.0000
 IR Inten    --   266.3236                66.4593               103.3282
 Raman Activ --     0.0000                 0.0000                 0.0000
 Depolar     --     0.0000                 0.0000                 0.0000
 Atom AN      X      Y      Z        X      Y      Z        X      Y      Z
   1   6     0.20   0.15   0.23     0.07   0.06   0.09     0.10   0.07   0.11
   2   6    -0.21  -0.16  -0.40    -0.08  -0.06  -0.15    -0.11  -0.08  -0.23
   3   8    -0.02   0.03   0.28    -0.00   0.01   0.10    -0.04   0.04   0.21
   4  15     0.01   0.00  -0.02     0.00   0.00  -0.00    -0.02  -0.04   0.01
   5  16     0.00  -0.00   0.00     0.00  -0.00   0.00    -0.00  -0.00  -0.00
   6   8    -0.05  -0.02   0.11    -0.02  -0.01   0.05     0.22   0.04  -0.35
   7   6     0.14  -0.10  -0.15     0.06  -0.04  -0.07    -0.35   0.22   0.38
   8   6    -0.10   0.09   0.09    -0.04   0.04   0.04     0.22  -0.20  -0.16
   9  16    -0.00  -0.00  -0.01     0.00  -0.00  -0.00    -0.01  -0.01  -0.00
  10   6     0.00   0.00   0.01    -0.00  -0.00  -0.00    -0.00   0.01  -0.00
  11  16     0.00  -0.00  -0.00    -0.01   0.00   0.00     0.00   0.00   0.00
  12  15     0.01   0.00   0.00    -0.01  -0.01   0.00     0.00  -0.00  -0.00
  13  16    -0.00  -0.00  -0.00     0.00   0.01   0.01    -0.00   0.00   0.00
  14   8     0.01   0.01   0.01    -0.02  -0.09  -0.17    -0.00  -0.00  -0.00
  15   6    -0.01  -0.02  -0.02     0.16   0.33   0.16     0.00   0.01   0.00
  16   6     0.01   0.02   0.01    -0.15  -0.27  -0.06    -0.00  -0.01  -0.00
  17   8    -0.16  -0.03  -0.01     0.24   0.05   0.01     0.01   0.00  -0.00
  18   6     0.24  -0.09   0.07    -0.35   0.14  -0.10    -0.01   0.00  -0.00
  19   6    -0.14   0.10  -0.05     0.20  -0.16   0.08     0.00  -0.00   0.00
  20   1    -0.01  -0.04  -0.09    -0.00  -0.02  -0.04    -0.01  -0.02  -0.04
  21   1     0.33   0.19   0.00     0.12   0.07   0.00     0.15   0.09   0.00
  22   1    -0.03   0.00  -0.10    -0.02  -0.00  -0.04    -0.01   0.00  -0.04
  23   1    -0.10  -0.07  -0.14    -0.03  -0.02  -0.05    -0.04  -0.03  -0.06
  24   1    -0.13  -0.05  -0.10    -0.05  -0.02  -0.04    -0.06  -0.03  -0.06
  25   1     0.04  -0.06  -0.04     0.02  -0.03  -0.02    -0.07   0.13   0.07
  26   1     0.05  -0.04  -0.05     0.02  -0.02  -0.02    -0.11   0.09   0.12
  27   1     0.04  -0.01  -0.04     0.02  -0.01  -0.02    -0.07  -0.01   0.07
  28   1     0.02  -0.02  -0.05     0.01  -0.01  -0.02    -0.04   0.04   0.09
  29   1    -0.09   0.17  -0.03    -0.04   0.07  -0.01     0.16  -0.32   0.05
[...]
  33   1     0.12  -0.10   0.10    -0.01   0.01  -0.01    -0.00   0.00  -0.00
  34   1    -0.00  -0.01  -0.01     0.00   0.00   0.00    -0.00  -0.00  -0.00
  35   1     0.05  -0.02  -0.02    -0.00   0.00   0.00    -0.00   0.00   0.00
  36   1    -0.00  -0.00   0.00     0.00  -0.00   0.00    -0.00   0.00  -0.00
  37   1     0.00   0.01   0.01     0.00   0.00   0.00     0.00  -0.00  -0.00
  38   1    -0.00  -0.00   0.01     0.00   0.00  -0.00    -0.00  -0.00   0.01
  39   1    -0.00  -0.00  -0.00     0.00   0.00   0.00    -0.00  -0.00  -0.00
  40   1    -0.00  -0.00  -0.00    -0.00  -0.00  -0.00     0.00   0.00   0.00
  41   1    -0.00  -0.00  -0.00     0.00   0.00  -0.00     0.00   0.00  -0.00
                    103                    104                    105
                        a                      a                      a 
 Frequencies --  2974.2327              2977.4518              2979.4389
 Red. masses --     1.9832                 1.7258                 1.7300
 Frc consts  --     0.0000                 0.0000                 0.0000
 IR Inten    --    19.2473                 9.9861                 6.3577
 Raman Activ --     0.0000                 0.0000                 0.0000
 Depolar     --     0.0000                 0.0000                 0.0000
 Atom AN      X      Y      Z        X      Y      Z        X      Y      Z
   1   6    -0.00   0.00   0.00    -0.02   0.02   0.01    -0.00   0.00   0.00
   2   6     0.00  -0.00  -0.00     0.20  -0.13  -0.08     0.00  -0.00  -0.00
   3   8     0.00  -0.00  -0.00     0.00  -0.00  -0.01     0.00  -0.00  -0.00
   4  15     0.00   0.00   0.00    -0.00   0.00   0.00    -0.00  -0.00  -0.00
   5  16    -0.00  -0.00  -0.00    -0.00   0.00   0.00    -0.00   0.00  -0.00
   6   8     0.00  -0.00   0.00     0.00  -0.00  -0.00    -0.00  -0.00   0.00
   7   6     0.00   0.00  -0.00     0.00   0.00   0.00    -0.00  -0.00  -0.00
   8   6     0.00   0.00   0.00    -0.00  -0.00  -0.00     0.00   0.00   0.00
   9  16     0.00   0.00   0.00     0.00  -0.00   0.00     0.00   0.00   0.00
  10   6     0.21   0.04   0.21    -0.00   0.00  -0.00     0.00   0.00   0.00
  11  16     0.00   0.00   0.00     0.00   0.00  -0.00    -0.00   0.00  -0.00
  12  15    -0.00   0.00  -0.00     0.00   0.00   0.00    -0.00   0.00   0.00
  13  16    -0.00   0.00  -0.00    -0.00  -0.00  -0.00    -0.00   0.00   0.00
  14   8     0.00   0.00   0.00     0.00   0.00   0.00     0.00   0.00   0.00
  15   6    -0.00   0.00   0.00    -0.00  -0.00   0.00    -0.00  -0.00   0.00
  16   6     0.00  -0.00  -0.00     0.00  -0.00  -0.00     0.00   0.00  -0.00
  17   8    -0.00   0.00   0.00    -0.00  -0.00   0.00     0.01   0.00  -0.00
  18   6    -0.00  -0.00   0.00    -0.00  -0.00   0.00     0.11   0.07  -0.22
  19   6     0.00   0.00   0.00     0.00   0.00   0.00    -0.02  -0.01   0.04
  20   1     0.00  -0.00   0.00    -0.00  -0.01   0.01    -0.00   0.00  -0.00
  21   1    -0.00   0.00  -0.00    -0.01   0.00  -0.02    -0.00  -0.00  -0.00
  22   1     0.00  -0.00  -0.00     0.10  -0.07  -0.04     0.00  -0.00  -0.00
  23   1    -0.01   0.00   0.00    -0.76   0.49   0.31    -0.00   0.00   0.00
  24   1     0.00   0.00  -0.00     0.03  -0.04  -0.00     0.00  -0.00   0.00
  25   1     0.00   0.00  -0.00    -0.00   0.00  -0.00     0.00  -0.00   0.00
  26   1    -0.01  -0.01   0.00    -0.00  -0.00   0.00     0.00   0.01  -0.00
  27   1    -0.00   0.00  -0.00     0.00  -0.00   0.00    -0.00   0.00  -0.00
  28   1    -0.00  -0.00   0.00     0.00   0.00  -0.00    -0.00  -0.00   0.00
  29   1     0.00  -0.00  -0.00    -0.00   0.00   0.00    -0.00   0.00   0.00
  30   1    -0.25   0.25  -0.12     0.00  -0.00   0.00    -0.00   0.00  -0.00
  31   1    -0.47  -0.38  -0.63     0.00   0.00   0.00    -0.01  -0.00  -0.01
  32   1     0.01  -0.00  -0.00     0.02  -0.01  -0.01     0.01  -0.00  -0.00
  33   1    -0.00   0.00  -0.00    -0.01   0.01  -0.01    -0.00   0.00  -0.00
  34   1     0.00   0.00   0.00     0.00  -0.00   0.00    -0.00  -0.00  -0.00
  35   1    -0.00   0.00   0.00    -0.01   0.00   0.00    -0.00   0.00   0.00
  36   1     0.00  -0.00   0.00    -0.00   0.00  -0.00     0.00  -0.00   0.00
  37   1     0.00   0.00   0.00    -0.00  -0.00  -0.00     0.01  -0.00  -0.04
  38   1     0.01   0.00  -0.01     0.00   0.00  -0.00    -0.42  -0.24   0.82
  39   1    -0.00  -0.00   0.00    -0.00  -0.00  -0.00     0.01   0.00   0.01
  40   1    -0.00  -0.00  -0.00    -0.00  -0.00  -0.00    -0.01  -0.02  -0.01
  41   1     0.00   0.00  -0.00    -0.00  -0.00   0.00     0.08   0.04  -0.15
                    106                    107                    108
                        a                      a                      a 
 Frequencies --  3012.7890              3020.6662              3022.9509
 Red. masses --     1.7532                 1.7538                 1.7868
 Frc consts  --     0.0000                 0.0000                 0.0000
 IR Inten    --    46.7344                43.7845                52.8553
 Raman Activ --     0.0000                 0.0000                 0.0000
 Depolar     --     0.0000                 0.0000                 0.0000
 Atom AN      X      Y      Z        X      Y      Z        X      Y      Z
   1   6    -0.00   0.00   0.00     0.19  -0.15  -0.07    -0.02   0.02   0.01
   2   6     0.00  -0.00   0.00     0.03  -0.02  -0.01    -0.00   0.00   0.00
   3   8     0.00  -0.00  -0.00    -0.00  -0.00  -0.00     0.00   0.00  -0.00
   4  15     0.00  -0.00   0.00     0.00   0.00   0.00     0.00  -0.00  -0.00
   5  16    -0.00   0.00  -0.00    -0.00  -0.00  -0.00    -0.00   0.00   0.00
   6   8     0.00   0.00  -0.00    -0.00  -0.00  -0.00    -0.00  -0.00   0.00
   7   6    -0.00  -0.00  -0.00    -0.00  -0.00   0.00    -0.03  -0.03  -0.00
   8   6     0.00   0.00   0.00    -0.02  -0.02  -0.00    -0.18  -0.19  -0.01
   9  16    -0.00   0.00  -0.00     0.00   0.00   0.00     0.00   0.00   0.00
  10   6     0.00   0.00   0.00    -0.00   0.00   0.00     0.00   0.00   0.00
  11  16    -0.00   0.00   0.00     0.00  -0.00  -0.00     0.00  -0.00   0.00
  12  15    -0.00   0.00  -0.00    -0.00   0.00  -0.00    -0.00   0.00  -0.00
  13  16     0.00  -0.00   0.00    -0.00   0.00   0.00    -0.00  -0.00   0.00
  14   8     0.00  -0.00   0.00     0.00  -0.00   0.00    -0.00  -0.00  -0.00
  15   6    -0.00   0.00  -0.00     0.00  -0.00   0.00     0.00  -0.00   0.00
  16   6     0.00  -0.00  -0.00     0.00  -0.00  -0.00    -0.00  -0.00  -0.00
  17   8     0.00  -0.00  -0.00     0.00   0.00   0.00     0.00  -0.00  -0.00
  18   6     0.02   0.01  -0.05     0.00   0.00  -0.00     0.00   0.00  -0.00
  19   6     0.12   0.05  -0.22     0.00   0.00   0.00     0.00   0.00  -0.00
  20   1    -0.00   0.00  -0.00     0.02   0.04  -0.05    -0.00  -0.00   0.01
  21   1    -0.00  -0.00  -0.00     0.02  -0.02  -0.02    -0.00   0.00   0.00
  22   1     0.00  -0.00  -0.00    -0.74   0.51   0.31     0.08  -0.06  -0.04
  23   1    -0.00   0.00  -0.00    -0.10   0.07   0.04     0.01  -0.01  -0.00
  24   1    -0.00  -0.00  -0.00     0.00   0.01  -0.01    -0.00  -0.00   0.00
  25   1     0.00  -0.00   0.00    -0.00  -0.00  -0.00     0.01  -0.00   0.02
  26   1     0.00   0.00  -0.00     0.01   0.01  -0.00     0.07   0.09  -0.01
  27   1    -0.00   0.00  -0.00     0.01  -0.00   0.02     0.06  -0.03   0.10
  28   1    -0.00  -0.00   0.00     0.07   0.08  -0.01     0.59   0.73  -0.07
  29   1     0.00   0.00  -0.00    -0.01  -0.00   0.00    -0.02  -0.02  -0.01
  30   1    -0.00   0.00  -0.00     0.00  -0.00   0.00    -0.00   0.00   0.00
  31   1    -0.00  -0.00  -0.00    -0.00  -0.00  -0.00    -0.00  -0.00  -0.00
  32   1     0.00  -0.00  -0.00    -0.00   0.00   0.00    -0.00   0.00   0.00
  33   1     0.00  -0.00   0.00    -0.00   0.00  -0.00    -0.00   0.00  -0.00
  34   1     0.00   0.00   0.00     0.00  -0.00  -0.00     0.00   0.00   0.00
  35   1    -0.01   0.00   0.00    -0.01   0.00   0.00     0.00  -0.00  -0.00
  36   1    -0.00   0.00  -0.00    -0.00   0.00  -0.00     0.00  -0.00   0.00
  37   1     0.01   0.01   0.01     0.00   0.00   0.00    -0.00   0.00   0.00
  38   1    -0.08  -0.04   0.15    -0.00  -0.00   0.00    -0.00  -0.00   0.00
  39   1     0.02   0.00  -0.03    -0.00  -0.00  -0.00     0.00   0.00   0.00
  40   1     0.03   0.04   0.01    -0.00  -0.00  -0.00    -0.00  -0.00  -0.00
  41   1    -0.45  -0.22   0.80    -0.00  -0.00   0.00    -0.00  -0.00   0.00
                    109                    110                    111
                        a                      a                      a 
 Frequencies --  3041.3620              3045.4856              3046.7467
 Red. masses --     1.6933                 1.6362                 1.7654
 Frc consts  --     0.0000                 0.0000                 0.0000
 IR Inten    --    22.4743                21.2828                24.5067
 Raman Activ --     0.0000                 0.0000                 0.0000
 Depolar     --     0.0000                 0.0000                 0.0000
 Atom AN      X      Y      Z        X      Y      Z        X      Y      Z
   1   6    -0.00  -0.00   0.00    -0.00   0.00  -0.01     0.00  -0.00   0.00
   2   6    -0.00   0.00   0.00    -0.00   0.00  -0.00     0.00  -0.00  -0.00
   3   8     0.00   0.00   0.00    -0.00  -0.00   0.00    -0.00   0.00  -0.00
   4  15     0.00  -0.00  -0.00    -0.00   0.00  -0.00     0.00   0.00  -0.00
   5  16    -0.00   0.00  -0.00     0.00  -0.00  -0.00     0.00  -0.00   0.00
   6   8    -0.00   0.00   0.00     0.00  -0.00   0.00    -0.00  -0.00   0.00
   7   6    -0.00   0.00  -0.00    -0.01   0.00  -0.01     0.00   0.00   0.00
   8   6    -0.00   0.00  -0.00    -0.15   0.03  -0.19     0.00  -0.00   0.00
   9  16    -0.00   0.00   0.00    -0.00  -0.00  -0.00     0.00   0.00   0.00
  10   6    -0.00  -0.00  -0.00     0.00  -0.00   0.00     0.00  -0.00   0.00
  11  16    -0.00   0.00   0.00    -0.00   0.00  -0.00    -0.00   0.00   0.00
  12  15    -0.00   0.00   0.00     0.00  -0.00   0.00    -0.00   0.00   0.00
  13  16    -0.00   0.00   0.00    -0.00   0.00   0.00    -0.00  -0.00  -0.00
  14   8     0.00   0.00   0.00    -0.00   0.00   0.00     0.00   0.00   0.00
  15   6    -0.00   0.00   0.00    -0.00   0.00   0.00    -0.02   0.01   0.00
  16   6     0.00  -0.00   0.00    -0.01   0.00   0.00    -0.24   0.09   0.05
  17   8    -0.00  -0.00   0.00     0.00   0.00  -0.00    -0.00  -0.00  -0.00
  18   6     0.00   0.01   0.02     0.00  -0.00  -0.00     0.00   0.00   0.00
  19   6     0.05   0.18   0.16    -0.00  -0.00  -0.00    -0.00   0.00  -0.00
  20   1    -0.00   0.00  -0.00     0.00  -0.02   0.01     0.00  -0.00   0.00
  21   1     0.00   0.00   0.00     0.00   0.00   0.01    -0.00  -0.00  -0.01
  22   1     0.00  -0.00  -0.00     0.00  -0.00  -0.00    -0.01   0.01   0.00
  23   1     0.00  -0.00  -0.00     0.00  -0.00  -0.00    -0.01   0.00   0.00
  24   1    -0.00   0.00  -0.00    -0.00  -0.00   0.00    -0.00   0.00  -0.00
  25   1     0.00   0.00   0.00     0.03   0.00   0.03    -0.00   0.00  -0.00
  26   1    -0.00  -0.00   0.00     0.00   0.00  -0.00    -0.00  -0.00   0.00
  27   1     0.01  -0.00   0.01     0.61  -0.02   0.73    -0.01   0.00  -0.02
  28   1    -0.00  -0.00  -0.00    -0.10  -0.10  -0.02     0.00   0.00   0.00
  29   1     0.00  -0.00  -0.00     0.00  -0.00  -0.06     0.00  -0.00  -0.00
  30   1    -0.00   0.00  -0.00    -0.00   0.00  -0.00    -0.00   0.00  -0.00
  31   1     0.00   0.00   0.00     0.00   0.00   0.00    -0.00  -0.00  -0.00
  32   1     0.00  -0.00  -0.00     0.00  -0.00  -0.00     0.05  -0.02  -0.02
  33   1    -0.00   0.00  -0.00     0.00  -0.00   0.00     0.01  -0.01   0.01
  34   1    -0.00  -0.01  -0.01    -0.00   0.00   0.00    -0.02   0.06   0.06
  35   1    -0.00   0.00   0.00     0.02  -0.01  -0.01     0.83  -0.30  -0.35
  36   1    -0.01   0.01  -0.01     0.00  -0.00   0.00     0.04  -0.06   0.11
  37   1    -0.01  -0.03  -0.04     0.00   0.00   0.00    -0.00  -0.00  -0.00
  38   1     0.01   0.00  -0.01    -0.00  -0.00   0.00    -0.00  -0.00   0.00
  39   1     0.01   0.02   0.02     0.00  -0.00   0.00     0.01   0.00   0.00
  40   1    -0.15  -0.68  -0.66     0.00   0.01   0.01    -0.00  -0.01  -0.01
  41   1    -0.02   0.01   0.07    -0.00  -0.00   0.00    -0.00  -0.00   0.01
                    112                    113                    114
                        a                      a                      a 
 Frequencies --  3049.6397              3054.9140              3055.7565
 Red. masses --     1.5896                 1.4782                 1.8201
 Frc consts  --     0.0000                 0.0000                 0.0000
 IR Inten    --    16.2647                12.0068                14.3027
 Raman Activ --     0.0000                 0.0000                 0.0000
 Depolar     --     0.0000                 0.0000                 0.0000
 Atom AN      X      Y      Z        X      Y      Z        X      Y      Z
   1   6     0.01   0.22  -0.08     0.00  -0.01   0.03     0.02   0.00   0.27
   2   6    -0.00   0.02  -0.00    -0.00  -0.00   0.00    -0.00  -0.00   0.01
   3   8    -0.00  -0.00   0.00     0.00   0.00   0.00     0.00   0.00  -0.00
   4  15     0.00   0.00  -0.00     0.00  -0.00  -0.00     0.00  -0.00   0.00
   5  16    -0.00   0.00   0.00    -0.00   0.00  -0.00     0.00  -0.00  -0.00
   6   8    -0.00  -0.00  -0.00    -0.00   0.00  -0.00     0.00   0.00  -0.00
   7   6     0.00  -0.00   0.00    -0.00  -0.00   0.00    -0.00  -0.00   0.00
   8   6     0.00  -0.00   0.00    -0.00   0.00   0.00    -0.01   0.00   0.01
   9  16     0.00   0.00   0.00    -0.00  -0.00  -0.00    -0.00  -0.00   0.00
  10   6    -0.00  -0.00  -0.00    -0.00   0.00   0.00    -0.00   0.00  -0.00
  11  16    -0.00   0.00  -0.00     0.00  -0.00  -0.00    -0.00  -0.00   0.00
  12  15    -0.00  -0.00   0.00    -0.00  -0.00  -0.00    -0.00   0.00   0.00
  13  16     0.00  -0.00   0.00     0.00   0.00   0.00     0.00   0.00  -0.00
  14   8     0.00   0.00   0.00     0.00   0.00  -0.00     0.00  -0.00  -0.00
  15   6    -0.00   0.00  -0.00    -0.01   0.01  -0.01     0.00  -0.00   0.00
  16   6    -0.00   0.01  -0.01    -0.07   0.17  -0.09     0.01  -0.01   0.02
  17   8     0.00   0.00   0.00     0.00   0.00  -0.00    -0.00  -0.00  -0.00
  18   6     0.00   0.00   0.00    -0.00  -0.00   0.00     0.00   0.00   0.00
  19   6    -0.00   0.00   0.00    -0.02  -0.00  -0.00     0.00   0.00   0.00
  20   1     0.03  -0.82   0.46    -0.00   0.05  -0.03    -0.00   0.17  -0.06
  21   1    -0.02  -0.00  -0.21    -0.01  -0.01  -0.07    -0.09  -0.16  -0.92
  22   1    -0.05   0.06   0.01     0.00  -0.00   0.00     0.02  -0.01   0.03
  23   1     0.01  -0.00  -0.00     0.00  -0.00   0.00     0.01  -0.01  -0.01
  24   1     0.00  -0.04   0.02    -0.00   0.00  -0.00    -0.00   0.02  -0.01
  25   1    -0.00  -0.00  -0.00    -0.00   0.00  -0.00     0.00   0.00   0.00
  26   1     0.00   0.00  -0.00     0.00   0.00  -0.00     0.00   0.00  -0.00
  27   1    -0.01   0.00  -0.01     0.00  -0.00   0.00     0.01  -0.00   0.01
  28   1     0.00   0.00  -0.00    -0.00   0.00   0.00    -0.00  -0.00   0.00
  29   1    -0.00   0.00   0.01     0.01  -0.00  -0.01     0.03  -0.00  -0.05
  30   1    -0.00   0.00  -0.00     0.00  -0.00   0.00     0.00   0.00  -0.00
  31   1     0.00   0.00   0.00    -0.00  -0.00  -0.00     0.00   0.00  -0.00
  32   1    -0.00   0.00  -0.00     0.01  -0.00  -0.00    -0.00   0.00   0.00
  33   1     0.00   0.00   0.00     0.02  -0.02   0.02    -0.00   0.00  -0.00
  34   1    -0.00  -0.00  -0.00    -0.08  -0.23  -0.33    -0.00  -0.01  -0.01
  35   1    -0.01   0.01   0.00    -0.11   0.05   0.03     0.01  -0.00   0.00
  36   1     0.02  -0.02   0.03     0.43  -0.42   0.63    -0.05   0.05  -0.07
  37   1     0.00   0.00   0.00    -0.00   0.00   0.00    -0.00  -0.00  -0.00
  38   1    -0.00  -0.00   0.00     0.00   0.00  -0.00     0.00   0.00  -0.00
  39   1     0.00   0.00   0.00     0.08   0.01   0.02    -0.01  -0.00  -0.00
  40   1    -0.00  -0.00  -0.00    -0.00  -0.00  -0.00     0.00   0.00   0.00
  41   1    -0.00  -0.00   0.00    -0.00  -0.00   0.00     0.00   0.00  -0.00
                    115                    116                    117
                        a                      a                      a 
 Frequencies --  3056.6213              3056.9725              3059.1309
 Red. masses --     1.7219                 1.7424                 1.9296
 Frc consts  --     0.0000                 0.0000                 0.0000
 IR Inten    --    10.1473                 8.4176                12.6602
 Raman Activ --     0.0000                 0.0000                 0.0000
 Depolar     --     0.0000                 0.0000                 0.0000
 Atom AN      X      Y      Z        X      Y      Z        X      Y      Z
   1   6    -0.00  -0.00   0.00    -0.00   0.00  -0.02     0.00  -0.00   0.02
   2   6    -0.00   0.00   0.00     0.00   0.00  -0.00    -0.00  -0.00   0.00
   3   8     0.00   0.00   0.00    -0.00  -0.00   0.00     0.00   0.00  -0.00
   4  15    -0.00  -0.00  -0.00     0.00   0.00   0.00     0.00  -0.00  -0.00
   5  16     0.00   0.00   0.00    -0.00   0.00  -0.00    -0.00   0.00   0.00
   6   8     0.00  -0.00   0.00    -0.00   0.00  -0.00     0.00   0.00  -0.00
   7   6     0.00   0.00  -0.00    -0.00  -0.00   0.01     0.00   0.00  -0.00
   8   6     0.02  -0.00  -0.04    -0.12   0.02   0.22     0.00   0.00  -0.00
   9  16     0.00   0.00  -0.00     0.00  -0.00   0.00    -0.00  -0.00  -0.00
  10   6    -0.00   0.00   0.00    -0.00   0.00  -0.00    -0.00   0.00  -0.00
  11  16    -0.00   0.00  -0.00     0.00  -0.00  -0.00     0.00  -0.00  -0.00
  12  15    -0.00  -0.00   0.00     0.00  -0.00   0.00     0.00   0.00  -0.00
  13  16    -0.00   0.00   0.00    -0.00   0.00   0.00     0.00  -0.00   0.00
  14   8     0.00  -0.00   0.00    -0.00   0.00   0.00    -0.00  -0.00   0.00
  15   6    -0.00   0.00  -0.00    -0.00   0.00  -0.00    -0.00   0.00  -0.01
  16   6    -0.01   0.02  -0.01    -0.00   0.00  -0.00    -0.06  -0.10  -0.26
  17   8    -0.00  -0.00  -0.00    -0.00  -0.00  -0.00    -0.00  -0.00   0.00
  18   6     0.01   0.00  -0.00     0.00   0.00  -0.00     0.00   0.00   0.00
  19   6     0.24   0.02   0.05     0.04   0.00   0.01     0.00   0.00   0.00
  20   1    -0.00   0.00  -0.00     0.00  -0.02   0.01    -0.00   0.02  -0.01
  21   1    -0.00  -0.00  -0.00     0.01   0.01   0.06    -0.00  -0.01  -0.04
  22   1     0.00  -0.00  -0.00    -0.01   0.00  -0.00     0.00  -0.00   0.00
  23   1     0.00  -0.00  -0.00    -0.00   0.00   0.00     0.00  -0.00   0.00
  24   1     0.00   0.00  -0.00     0.00  -0.00   0.00    -0.00   0.00  -0.00
  25   1     0.00   0.00   0.00    -0.01  -0.00  -0.01    -0.00  -0.00  -0.00
  26   1    -0.00  -0.00   0.00     0.01   0.01  -0.00    -0.00  -0.00   0.00
  27   1     0.01  -0.00   0.00    -0.04   0.00  -0.01     0.00  -0.00   0.00
  28   1     0.00   0.00  -0.01    -0.01  -0.00   0.03    -0.00  -0.00  -0.00
  29   1    -0.09   0.01   0.15     0.48  -0.06  -0.81    -0.00   0.00   0.00
  30   1     0.00  -0.00  -0.00     0.00  -0.00   0.00     0.00  -0.00   0.00
  31   1     0.00   0.00  -0.00     0.00   0.00   0.00     0.00   0.00   0.00
  32   1     0.00  -0.00  -0.00    -0.00  -0.00  -0.00    -0.01   0.00   0.00
  33   1     0.00  -0.00   0.00     0.00  -0.00   0.00     0.01  -0.01   0.02
  34   1    -0.01  -0.02  -0.03     0.00   0.00   0.00     0.13   0.53   0.67
  35   1    -0.00   0.00  -0.00    -0.00   0.00   0.00    -0.12   0.03   0.01
  36   1     0.04  -0.04   0.06     0.00  -0.00   0.01     0.19  -0.21   0.25
  37   1    -0.00  -0.01  -0.01    -0.00  -0.00  -0.00    -0.00  -0.00  -0.00
  38   1    -0.01  -0.00   0.02    -0.00  -0.00   0.00     0.00   0.00  -0.00
  39   1    -0.93  -0.07  -0.17    -0.17  -0.01  -0.03    -0.01  -0.00  -0.00
  40   1     0.03   0.00   0.00     0.01   0.00   0.00    -0.00  -0.01  -0.01
  41   1     0.03   0.00   0.01     0.01   0.00   0.00     0.00   0.00  -0.00
