
                                 *****************
                                 * O   R   C   A *
                                 *****************

                                            #,                                       
                                            ###                                      
                                            ####                                     
                                            #####                                    
                                            ######                                   
                                           ########,                                 
                                     ,,################,,,,,                         
                               ,,#################################,,                 
                          ,,##########################################,,             
                       ,#########################################, ''#####,          
                    ,#############################################,,   '####,        
                  ,##################################################,,,,####,       
                ,###########''''           ''''###############################       
              ,#####''   ,,,,##########,,,,          '''####'''          '####       
            ,##' ,,,,###########################,,,                        '##       
           ' ,,###''''                  '''############,,,                           
         ,,##''                                '''############,,,,        ,,,,,,###''
      ,#''                                            '''#######################'''  
     '                                                          ''''####''''         
             ,#######,   #######,   ,#######,      ##                                
            ,#'     '#,  ##    ##  ,#'     '#,    #''#        ,####,   ,####,        
            ##       ##  ##   ,#'  ##            #'  '#       #'       #'  '#        
            ##       ##  #######   ##           ,######,      #####,   #    #        
            '#,     ,#'  ##    ##  '#,     ,#' ,#      #,     #,   #   #,  ,#        
             '#######'   ##     ##  '#######'  #'      '#     '####' # '####'        



                #########################################################
                #                        -***-                          #
                #          Department of theory and spectroscopy        #
                #                                                       #
                #                      Frank Neese                      #
                #                                                       #
                #     Directorship, Architecture, Infrastructure        #
                #                    SHARK, DRIVERS                     #
                #        Core code/Algorithms in most modules           #
                #                                                       #
                #        Max Planck Institute fuer Kohlenforschung      #
                #                Kaiser Wilhelm Platz 1                 #
                #                 D-45470 Muelheim/Ruhr                 #
                #                      Germany                          #
                #                                                       #
                #                  All rights reserved                  #
                #                        -***-                          #
                #########################################################


                         Program Version 6.0.0  -   RELEASE  -


 With contributions from (in alphabetic order):
   Daniel Aravena         : Magnetic Suceptibility
   Michael Atanasov       : Ab Initio Ligand Field Theory (pilot matlab implementation)
   Alexander A. Auer      : GIAO ZORA, VPT2 properties, NMR spectrum
   Ute Becker             : All parallelization in ORCA, NUMFREQ, NUMCALC
   Giovanni Bistoni       : ED, misc. LED, open-shell LED, HFLD
   Martin Brehm           : Molecular dynamics
   Dmytro Bykov           : pre 5.0 version of the SCF Hessian
   Marcos Casanova-Páez   : Triplet and SCS-CIS(D). UHF-(DLPNO)-IP/EA/STEOM-CCSD. UHF-CVS-IP/STEOM-CCSD
   Vijay G. Chilkuri      : MRCI spin determinant printing, contributions to CSF-ICE
   Pauline Colinet        : FMM embedding
   Dipayan Datta          : RHF DLPNO-CCSD density
   Achintya Kumar Dutta   : EOM-CC, STEOM-CC
   Nicolas Foglia         : Exact transition moments, OPA infrastructure, MCD improvements
   Dmitry Ganyushin       : Spin-Orbit,Spin-Spin,Magnetic field MRCI
   Miquel Garcia          : C-PCM and meta-GGA Hessian, CCSD/C-PCM, Gaussian charge scheme
   Tiago L. C. Gouveia    : GS-ROHF, GS-ROCIS
   Yang Guo               : DLPNO-NEVPT2, F12-NEVPT2, CIM, IAO-localization
   Andreas Hansen         : Spin unrestricted coupled pair/coupled cluster methods
   Ingolf Harden          : AUTO-CI MPn and infrastructure 
   Benjamin Helmich-Paris : MC-RPA, TRAH-(SCF,CASSCF), AVAS, COSX integrals, SCF dyn. polar.
   Lee Huntington         : MR-EOM, pCC
   Robert Izsak           : Overlap fitted RIJCOSX, COSX-SCS-MP3, EOM
   Riya Kayal             : Wick's Theorem for AUTO-CI, AUTO-CI UHF-CCSDT
   Emily Kempfer          : AUTO-CI, RHF CISDT and CCSDT
   Christian Kollmar      : KDIIS, OOCD, Brueckner-CCSD(T), CCSD density, CASPT2, CASPT2-K, improved NEVPT2
   Axel Koslowski         : Symmetry handling
   Simone Kossmann        : Meta GGA functionals, TD-DFT gradient, OOMP2, (MP2 Hessian; deprecated post 5.0)
   Lucas Lang             : DCDCAS
   Marvin Lechner         : AUTO-CI (C++ implementation), FIC-MRCC
   Spencer Leger          : CASSCF response
   Dagmar Lenk            : GEPOL surface, SMD, ORCA-2-JSON
   Dimitrios Liakos       : Extrapolation schemes; Compound Job, initial MDCI parallelization
   Dimitrios Manganas     : Further ROCIS development; embedding schemes. LFT, Crystal Embedding
   Dimitrios Pantazis     : SARC Basis sets
   Anastasios Papadopoulos: AUTO-CI, single reference methods and gradients
   Taras Petrenko         : pre 6.0 DFT Hessian and TD-DFT gradient, (ASA, deprecated), ECA, 1-Electron XAS/XES, NRVS
   Peter Pinski           : DLPNO-MP2, DLPNO-MP2 Gradient
   Christoph Reimann      : Effective Core Potentials
   Marius Retegan         : Local ZFS, SOC
   Christoph Riplinger    : Optimizer, TS searches, QM/MM, DLPNO-CCSD(T), (RO)-DLPNO pert. Triples
   Michael Roemelt        : Original ROCIS implementation
   Masaaki Saitow         : Open-shell DLPNO-CCSD energy and density
   Barbara Sandhoefer     : DKH picture change effects
   Kantharuban Sivalingam : CASSCF convergence/infrastructure, NEVPT2 and variants, FIC-MRCI
   Bernardo de Souza      : ESD, SOC TD-DFT
   Georgi Stoychev        : AutoAux, RI-MP2 NMR, DLPNO-MP2 response, X2C
   Van Anh Tran           : RI-MP2 g-tensors
   Willem Van den Heuvel  : Paramagnetic NMR
   Zikuan Wang            : NOTCH, Electric field optimization 
   Frank Wennmohs         : Technical directorship and infrastructure
   Hang Xu                : AUTO-CI-Response properties 


 We gratefully acknowledge several colleagues who have allowed us to
 interface, adapt or use parts of their codes:
   Stefan Grimme, W. Hujo, H. Kruse, P. Pracht,  : VdW corrections, initial TS optimization,
                  C. Bannwarth, S. Ehlert,         DFT functionals, gCP, sTDA/sTD-DF
                  L. Wittmann, M. Mueller
   Ed Valeev, F. Pavosevic, A. Kumar             : LibInt (2-el integral package), F12 methods
   Garnet Chan, S. Sharma, J. Yang, R. Olivares  : DMRG
   Ulf Ekstrom                                   : XCFun DFT Library
   Mihaly Kallay                                 : mrcc  (arbitrary order and MRCC methods)
   Frank Weinhold                                : gennbo (NPA and NBO analysis)
   Simon Mueller                                 : openCOSMO-RS
   Christopher J. Cramer and Donald G. Truhlar   : smd solvation model
   Lars Goerigk                                  : TD-DFT with DH, B97 family of functionals
   V. Asgeirsson, H. Jonsson                     : NEB implementation
   FAccTs GmbH                                   : IRC, NEB, NEB-TS, DLPNO-Multilevel, CI-OPT
                                                   MM, QMMM, 2- and 3-layer-ONIOM, Crystal-QMMM,
                                                   LR-CPCM, SF, NACMEs, symmetry and pop. for TD-DFT,
                                                   nearIR, NL-DFT gradient (VV10), updates on ESD,
                                                   ML-optimized integration grids, MBIS, APM,
                                                   GOAT, DOCKER, SOLVATOR, interface openCOSMO-RS
   S Lehtola, MJT Oliveira, MAL Marques          : LibXC Library
   Liviu Ungur et al                             : ANISO software


 Your calculation uses the libint2 library for the computation of 2-el integrals
 For citations please refer to: http://libint.valeyev.net

 Your ORCA version has been built with support for libXC version: 6.2.2
 For citations please refer to: https://libxc.gitlab.io

 This ORCA versions uses:
   CBLAS   interface :  Fast vector & matrix operations
   LAPACKE interface :  Fast linear algebra routines
   SCALAPACK package :  Parallel linear algebra routines
   Shared memory     :  Shared parallel matrices
   BLAS/LAPACK       :  OpenBLAS 0.3.27  USE64BITINT DYNAMIC_ARCH NO_AFFINITY SkylakeX SINGLE_THREADED
        Core in use  :  SkylakeX
   Copyright (c) 2011-2014, The OpenBLAS Project


Your calculation utilizes the geometrical counterpoise correction gCP
Please cite in your paper:
H.Kruse, S. Grimme J.Chem.Phys., 136, (2012), 154101 
   

Your calculation utilizes the atom-pairwise dispersion correction
based on EEQ partial charges (D4)


================================================================================

----- Orbital basis set information -----
Your calculation utilizes the basis: def2-SV(P)
   F. Weigend and R. Ahlrichs, Phys. Chem. Chem. Phys. 7, 3297 (2005).

----- AuxJ basis set information -----
Your calculation utilizes the auxiliary basis: def2/J
   F. Weigend, Phys. Chem. Chem. Phys. 8, 1057 (2006).

================================================================================
                                        WARNINGS
                       Please study these warnings very carefully!
================================================================================


================================================================================
                                       INPUT FILE
================================================================================
NAME = sp.inp
|  1> ! pbe def2-sv(p) def2/J RI DEFGRID1 loosescf d4 GCP(DFT/SV(P)) printgap
|  2> %output
|  3>     printlevel normal
|  4> end
|  5> * xyz 0 1
|  6> C 2.3613456756 -1.3902280444 0.0012182862
|  7> C 1.1627199199 -0.6991439534 0.0031353841
|  8> C 1.1627383881 0.6991326164 0.0032277034
|  9> C 2.3613484805 1.3902507199 0.0016338172
| 10> C 3.5627426342 0.6943385552 -0.0001582493
| 11> C 3.5627402996 -0.6943204181 -0.0004466613
| 12> Cl 5.050851553 -1.5695524085 -0.0029784358
| 13> Cl 5.0508703993 1.5695453877 -0.0022296313
| 14> O 7.6408e-06 1.4269670796 0.0048134414
| 15> C -1.1627260976 0.6991296202 0.0031898735
| 16> C -2.3613363197 1.3902337631 0.0013384164
| 17> C -3.5627345517 0.6943303097 -0.0004284369
| 18> C -3.562784836 -0.694350208 -0.0001802548
| 19> C -2.3613500326 -1.3902427231 0.0016440507
| 20> C -1.1627394133 -0.6991490734 0.0032833504
| 21> O -4.541e-06 -1.4269826596 0.0048541098
| 22> Cl -5.0508506987 -1.5695674712 -0.0022308673
| 23> Cl -5.0508605053 1.5695871195 -0.0030080036
| 24> H 2.3470438992 -2.4667770302 0.001068876
| 25> H 2.3470509664 2.4668344284 0.0018245901
| 26> H -2.3470171059 2.4667999798 0.0012322967
| 27> H -2.3470777858 -2.4668297746 0.0018479295
| 28> *
| 29> 
| 30>                          ****END OF INPUT****
================================================================================

                       ****************************
                       * Single Point Calculation *
                       ****************************

---------------------------------
CARTESIAN COORDINATES (ANGSTROEM)
---------------------------------
  C      2.361346   -1.390228    0.001218
  C      1.162720   -0.699144    0.003135
  C      1.162738    0.699133    0.003228
  C      2.361348    1.390251    0.001634
  C      3.562743    0.694339   -0.000158
  C      3.562740   -0.694320   -0.000447
  Cl     5.050852   -1.569552   -0.002978
  Cl     5.050870    1.569545   -0.002230
  O      0.000008    1.426967    0.004813
  C     -1.162726    0.699130    0.003190
  C     -2.361336    1.390234    0.001338
  C     -3.562735    0.694330   -0.000428
  C     -3.562785   -0.694350   -0.000180
  C     -2.361350   -1.390243    0.001644
  C     -1.162739   -0.699149    0.003283
  O     -0.000005   -1.426983    0.004854
  Cl    -5.050851   -1.569567   -0.002231
  Cl    -5.050861    1.569587   -0.003008
  H      2.347044   -2.466777    0.001069
  H      2.347051    2.466834    0.001825
  H     -2.347017    2.466800    0.001232
  H     -2.347078   -2.466830    0.001848

----------------------------
CARTESIAN COORDINATES (A.U.)
----------------------------
  NO LB      ZA    FRAG     MASS         X           Y           Z
   0 C     6.0000    0    12.011    4.462297   -2.627150    0.002302
   1 C     6.0000    0    12.011    2.197222   -1.321191    0.005925
   2 C     6.0000    0    12.011    2.197257    1.321169    0.006099
   3 C     6.0000    0    12.011    4.462302    2.627193    0.003087
   4 C     6.0000    0    12.011    6.732608    1.312110   -0.000299
   5 C     6.0000    0    12.011    6.732603   -1.312075   -0.000844
   6 Cl   17.0000    0    35.453    9.544726   -2.966024   -0.005628
   7 Cl   17.0000    0    35.453    9.544762    2.966011   -0.004213
   8 O     8.0000    0    15.999    0.000014    2.696577    0.009096
   9 C     6.0000    0    12.011   -2.197234    1.321164    0.006028
  10 C     6.0000    0    12.011   -4.462279    2.627161    0.002529
  11 C     6.0000    0    12.011   -6.732593    1.312094   -0.000810
  12 C     6.0000    0    12.011   -6.732688   -1.312132   -0.000341
  13 C     6.0000    0    12.011   -4.462305   -2.627178    0.003107
  14 C     6.0000    0    12.011   -2.197259   -1.321200    0.006205
  15 O     8.0000    0    15.999   -0.000009   -2.696606    0.009173
  16 Cl   17.0000    0    35.453   -9.544725   -2.966053   -0.004216
  17 Cl   17.0000    0    35.453   -9.544743    2.966090   -0.005684
  18 H     1.0000    0     1.008    4.435270   -4.661533    0.002020
  19 H     1.0000    0     1.008    4.435284    4.661641    0.003448
  20 H     1.0000    0     1.008   -4.435220    4.661576    0.002329
  21 H     1.0000    0     1.008   -4.435334   -4.661633    0.003492

--------------------------------
INTERNAL COORDINATES (ANGSTROEM)
--------------------------------
 C      0   0   0     0.000000000000     0.00000000     0.00000000
 C      1   0   0     1.383583968657     0.00000000     0.00000000
 C      2   1   0     1.398276572970   119.96540534     0.00000000
 C      3   2   1     1.383586978495   119.96846174     0.00000000
 C      4   3   2     1.388396508575   119.95058483     0.00000000
 C      1   2   3     1.388394482476   119.95230634     0.00000000
 Cl     6   1   2     1.726416099727   119.45660169   180.00565944
 Cl     5   4   3     1.726416964566   119.45742140   179.99638274
 O      3   2   1     1.371746445632   122.04455193   179.98631383
 C      9   3   2     1.371750614978   115.90917983   359.85543741
 C     10   9   3     1.383580438120   117.98745832   180.15736446
 C     11  10   9     1.388395638886   119.95149118   179.99607673
 C     12  11  10     1.388680540788   120.08336886     0.00000000
 C     13  12  11     1.388421876622   120.07810128     0.00000000
 C     14  13  12     1.383575273217   119.95301784     0.00000000
 O      2   1   3     1.371743528593   117.98825459   179.99770088
 Cl    13  12  11     1.726368869781   120.46427436   179.99478416
 Cl    12  11  10     1.726441424157   119.45636781   180.01066437
 H      1   2   3     1.076643990351   119.20504915   180.00613574
 H      4   3   2     1.076678659913   119.20682796   180.00610373
 H     11  10   9     1.076661446363   119.20517239     0.00000000
 H     14  13  12     1.076681669786   120.83969811   180.00054389

---------------------------
INTERNAL COORDINATES (A.U.)
---------------------------
 C      0   0   0     0.000000000000     0.00000000     0.00000000
 C      1   0   0     2.614594784046     0.00000000     0.00000000
 C      2   1   0     2.642359782390   119.96540534     0.00000000
 C      3   2   1     2.614600471816   119.96846174     0.00000000
 C      4   3   2     2.623689166500   119.95058483     0.00000000
 C      1   2   3     2.623685337726   119.95230634     0.00000000
 Cl     6   1   2     3.262453621677   119.45660169   180.00565944
 Cl     5   4   3     3.262455255984   119.45742140   179.99638274
 O      3   2   1     2.592225107424   122.04455193   179.98631383
 C      9   3   2     2.592232986346   115.90917983   359.85543741
 C     10   9   3     2.614588112298   117.98745832   180.15736446
 C     11  10   9     2.623687523025   119.95149118   179.99607673
 C     12  11  10     2.624225909594   120.08336886     0.00000000
 C     13  12  11     2.623737105161   120.07810128     0.00000000
 C     14  13  12     2.614578352046   119.95301784     0.00000000
 O      2   1   3     2.592219595019   117.98825459   179.99770088
 Cl    13  12  11     3.262364370013   120.46427436   179.99478416
 Cl    12  11  10     3.262501477913   119.45636781   180.01066437
 H      1   2   3     2.034562285495   119.20504915   180.00613574
 H      4   3   2     2.034627801472   119.20682796   180.00610373
 H     11  10   9     2.034595272578   119.20517239     0.00000000
 H     14  13  12     2.034633489308   120.83969811   180.00054389

---------------------
BASIS SET INFORMATION
---------------------
There are 4 groups of distinct atoms

 Group   1 Type C   : 7s4p1d contracted to 3s2p1d pattern {511/31/1}
 Group   2 Type Cl  : 10s7p1d contracted to 4s3p1d pattern {5311/511/1}
 Group   3 Type O   : 7s4p1d contracted to 3s2p1d pattern {511/31/1}
 Group   4 Type H   : 4s contracted to 2s pattern {31}

Atom   0C    basis set group =>   1
Atom   1C    basis set group =>   1
Atom   2C    basis set group =>   1
Atom   3C    basis set group =>   1
Atom   4C    basis set group =>   1
Atom   5C    basis set group =>   1
Atom   6Cl   basis set group =>   2
Atom   7Cl   basis set group =>   2
Atom   8O    basis set group =>   3
Atom   9C    basis set group =>   1
Atom  10C    basis set group =>   1
Atom  11C    basis set group =>   1
Atom  12C    basis set group =>   1
Atom  13C    basis set group =>   1
Atom  14C    basis set group =>   1
Atom  15O    basis set group =>   3
Atom  16Cl   basis set group =>   2
Atom  17Cl   basis set group =>   2
Atom  18H    basis set group =>   4
Atom  19H    basis set group =>   4
Atom  20H    basis set group =>   4
Atom  21H    basis set group =>   4
---------------------------------
AUXILIARY/J BASIS SET INFORMATION
---------------------------------
There are 4 groups of distinct atoms

 Group   1 Type C   : 12s5p4d2f1g contracted to 6s4p3d1f1g pattern {711111/2111/211/2/1}
 Group   2 Type Cl  : 14s5p5d2f1g contracted to 8s4p3d1f1g pattern {71111111/2111/311/2/1}
 Group   3 Type O   : 12s5p4d2f1g contracted to 6s4p3d1f1g pattern {711111/2111/211/2/1}
 Group   4 Type H   : 5s2p1d contracted to 3s1p1d pattern {311/2/1}

Atom   0C    basis set group =>   1
Atom   1C    basis set group =>   1
Atom   2C    basis set group =>   1
Atom   3C    basis set group =>   1
Atom   4C    basis set group =>   1
Atom   5C    basis set group =>   1
Atom   6Cl   basis set group =>   2
Atom   7Cl   basis set group =>   2
Atom   8O    basis set group =>   3
Atom   9C    basis set group =>   1
Atom  10C    basis set group =>   1
Atom  11C    basis set group =>   1
Atom  12C    basis set group =>   1
Atom  13C    basis set group =>   1
Atom  14C    basis set group =>   1
Atom  15O    basis set group =>   3
Atom  16Cl   basis set group =>   2
Atom  17Cl   basis set group =>   2
Atom  18H    basis set group =>   4
Atom  19H    basis set group =>   4
Atom  20H    basis set group =>   4
Atom  21H    basis set group =>   4
------------------------------------------------------------------------------
                             ORCA STARTUP CALCULATIONS
                           -- RI-GTO INTEGRALS CHOSEN --
------------------------------------------------------------------------------
------------------------------------------------------------------------------
                   ___                                                        
                  /   \      - P O W E R E D   B Y -                         
                 /     \                                                     
                 |  |  |   _    _      __       _____    __    __             
                 |  |  |  | |  | |    /  \     |  _  \  |  |  /  |          
                  \  \/   | |  | |   /    \    | | | |  |  | /  /          
                 / \  \   | |__| |  /  /\  \   | |_| |  |  |/  /          
                |  |  |   |  __  | /  /__\  \  |    /   |      \           
                |  |  |   | |  | | |   __   |  |    \   |  |\   \          
                \     /   | |  | | |  |  |  |  | |\  \  |  | \   \       
                 \___/    |_|  |_| |__|  |__|  |_| \__\ |__|  \__/        
                                                                              
                      - O R C A' S   B I G   F R I E N D -                    
                                      &                                       
                       - I N T E G R A L  F E E D E R -                       
                                                                              
 v1 FN, 2020, v2 2021, v3 2022-2024                                           
------------------------------------------------------------------------------


----------------------
SHARK INTEGRAL PACKAGE
----------------------

Number of atoms                             ...     22
Number of basis functions                   ...    276
Number of shells                            ...    124
Maximum angular momentum                    ...      2
Integral batch strategy                     ... SHARK/LIBINT Hybrid
RI-J (if used) integral strategy            ... SPLIT-RIJ (Revised 2003 algorithm where possible)
Printlevel                                  ...      1
Contraction scheme used                     ... SEGMENTED contraction
Prescreening option                         ... SCHWARTZ
   Thresh                                   ... 1.000e-09
   Tcut                                     ... 1.000e-10
   Tpresel                                  ... 1.000e-10 
Coulomb Range Separation                    ... NOT USED
Exchange Range Separation                   ... NOT USED
Multipole approximations                    ... NOT USED
Finite Nucleus Model                        ... NOT USED
CABS basis                                  ... NOT available
Auxiliary Coulomb fitting basis             ... AVAILABLE
   # of basis functions in Aux-J            ...    934
   # of shells in Aux-J                     ...    298
   Maximum angular momentum in Aux-J        ...      4
Auxiliary J/K fitting basis                 ... NOT available
Auxiliary Correlation fitting basis         ... NOT available
Auxiliary 'external' fitting basis          ... NOT available

Checking pre-screening integrals            ... done (  0.0 sec) Dimension = 124
Check shell pair data                       ... done (  0.0 sec)
Shell pair information
Shell pair cut-off parameter TPreSel        ...   1.0e-10
Total number of shell pairs                 ...      7750
Shell pairs after pre-screening             ...      5501
Total number of primitive shell pairs       ...     33182
Primitive shell pairs kept                  ...     14531
          la=0 lb=0:   1518 shell pairs
          la=1 lb=0:   1926 shell pairs
          la=1 lb=1:    644 shell pairs
          la=2 lb=0:    790 shell pairs
          la=2 lb=1:    516 shell pairs
          la=2 lb=2:    107 shell pairs

Calculating one electron integrals          ... done (  0.0 sec)
Calculating RI/J V-Matrix + Cholesky decomp.... done (  0.1 sec)
Calculating Nuclear repulsion               ... done (  0.0 sec) ENN=   1669.304966695600 Eh

Diagonalization of the overlap matrix:
Smallest eigenvalue                        ... 1.708e-04
Time for diagonalization                   ...    0.006 sec
Threshold for overlap eigenvalues          ... 1.000e-07
Number of eigenvalues below threshold      ... 0
Time for construction of square roots      ...    0.014 sec
Total time needed                          ...    0.028 sec

-------------------
DFT GRID GENERATION
-------------------

General Integration Accuracy     IntAcc      ... 4.159
Radial Grid Type                 RadialGrid  ... OptM3 with GC (2021)
Angular Grid (max. ang.)         AngularGrid ... 3 (Lebedev-194)
Angular grid pruning method      GridPruning ... 4 (adaptive)
Weight generation scheme         WeightScheme... mBecke (2022)
Basis function cutoff            BFCut       ... 1.0000e-10
Integration weight cutoff        WCut        ... 1.0000e-14
Partially contracted basis set               ... off
Rotationally invariant grid construction     ... off
Angular grids for H and He will be reduced by one unit

Total number of grid points                  ...    67940
Total number of batches                      ...     1074
Average number of points per batch           ...       63
Average number of grid points per atom       ...     3088
Initializing property integral containers    ... done (  0.0 sec)

SHARK setup successfully completed in   1.0 seconds

Maximum memory used throughout the entire STARTUP-calculation: 35.1 MB
-------------------------------------------------------------------------------
                                 ORCA GUESS
                   Start orbitals & Density for SCF / CASSCF
-------------------------------------------------------------------------------

------------
SCF SETTINGS
------------
Hamiltonian:
 Density Functional     Method          .... DFT(GTOs)
 Exchange Functional    Exchange        .... PBE
   PBE kappa parameter   XKappa         ....  0.804000
   PBE mue parameter    XMuePBE         ....  0.219520
 Correlation Functional Correlation     .... PBE
   PBE beta parameter  CBetaPBE         ....  0.066725
 LDA part of GGA corr.  LDAOpt          .... PW91-LDA
 Gradients option       PostSCFGGA      .... off
   NL short-range parameter             ....  6.400000
 RI-approximation to the Coulomb term is turned on
   Number of AuxJ basis functions       .... 934


General Settings:
 Integral files         IntName         .... sp
 Hartree-Fock type      HFTyp           .... RHF
 Total Charge           Charge          ....    0
 Multiplicity           Mult            ....    1
 Number of Electrons    NEL             ....  160
 Basis Dimension        Dim             ....  276
 Nuclear Repulsion      ENuc            ....   1669.3049666956 Eh

Convergence Acceleration:
 AO-DIIS                CNVDIIS         .... on
   Start iteration      DIISMaxIt       ....    12
   Startup error        DIISStart       ....  0.200000
   # of expansion vecs  DIISMaxEq       ....     5
   Bias factor          DIISBfac        ....   1.050
   Max. coefficient     DIISMaxC        ....  10.000
 MO-DIIS                CNVKDIIS        .... off
 Trust-Rad. Augm. Hess. CNVTRAH         .... auto
   Auto Start mean grad. ratio tolernc. ....  1.125000
   Auto Start start iteration           ....    50
   Auto Start num. interpolation iter.  ....    10
   Max. Number of Micro iterations      ....    24
   Max. Number of Macro iterations      .... Maxiter - #DIIS iter
   Number of Davidson start vectors     ....     2
   Converg. threshold    (grad. norm)   ....   1.000e-04
   Grad. Scal. Fac. for Micro threshold ....   0.100
   Minimum threshold for Micro iter.    ....   1.000e-02
   NR start threshold (gradient norm)   ....   1.000e-04
   Initial trust radius                 ....   0.400
   Minimum AH scaling param. (alpha)    ....   1.000
   Maximum AH scaling param. (alpha)    .... 1000.000
   Quad. conv. algorithm                .... NR
   White noise on init. David. guess    .... on
   Maximum white noise                  ....   0.010
   Pseudo random numbers                .... off
   Inactive MOs                         .... canonical
   Orbital update algorithm             .... Taylor
   Preconditioner                       .... Diag
   Full preconditioner red. dimension   ....   250
 SOSCF                  CNVSOSCF        .... on
   Start iteration      SOSCFMaxIt      ....   150
   Startup grad/error   SOSCFStart      ....  0.003300
   Hessian update       SOSCFHessUp     .... L-BFGS
 Level Shifting         CNVShift        .... on
   Level shift para.    LevelShift      ....    0.2500
   Turn off err/grad.   ShiftErr        ....    0.0010
 Zerner damping         CNVZerner       .... off
 Static damping         CNVDamp         .... on
   Fraction old density DampFac         ....    0.7000
   Max. Damping (<1)    DampMax         ....    0.9800
   Min. Damping (>=0)   DampMin         ....    0.0000
   Turn off err/grad.   DampErr         ....    0.1000

SCF Procedure:
 Maximum # iterations   MaxIter         ....   125
 SCF integral mode      SCFMode         .... Direct
   Integral package                     .... SHARK and LIBINT hybrid scheme
 Reset frequency        DirectResetFreq ....    20
 Integral Threshold     Thresh          ....  1.000e-09 Eh
 Primitive CutOff       TCut            ....  1.000e-10 Eh

Convergence Tolerance:
 Convergence Check Mode ConvCheckMode   .... Total+1el-Energy
 Convergence forced     ConvForced      .... 0
 Energy Change          TolE            ....  1.000e-05 Eh
 1-El. energy change                    ....  1.000e-02 Eh
 Orbital Gradient       TolG            ....  1.000e-04
 Orbital Rotation angle TolX            ....  1.000e-04
 DIIS Error             TolErr          ....  5.000e-04

------------------------------
INITIAL GUESS: MODEL POTENTIAL
------------------------------
Loading Hartree-Fock densities                     ... done
Calculating cut-offs                               ... done
Initializing the effective Hamiltonian             ... done
Setting up the integral package (SHARK)            ... done
Starting the Coulomb interaction                   ... done (   0.3 sec)
Making the grid                                    ... done (   0.3 sec)
Mapping shells                                     ... done
Starting the XC term evaluation                    ... done (   0.3 sec)
  promolecular density results
     # of electrons  =    159.992339176
     EX              =   -188.558916594
     EC              =     -5.843069195
     EX+EC           =   -194.401985789
Transforming the Hamiltonian                       ... done (   0.0 sec)
Diagonalizing the Hamiltonian                      ... done (   0.0 sec)
Back transforming the eigenvectors                 ... done (   0.0 sec)
Now organizing SCF variables                       ... done
                      ------------------
                      INITIAL GUESS DONE (   1.0 sec)
                      ------------------
             **** ENERGY FILE WAS UPDATED (sp.en.tmp) ****
Finished Guess after   1.2 sec
Maximum memory used throughout the entire GUESS-calculation: 27.3 MB

-------------------------------------------------------------------------------------------
                                      ORCA LEAN-SCF
                              memory conserving SCF solver
-------------------------------------------------------------------------------------------

----------------------------------------D-I-I-S--------------------------------------------
Iteration    Energy (Eh)           Delta-E    RMSDP     MaxDP     DIISErr   Damp  Time(sec)
-------------------------------------------------------------------------------------------
               ***  Starting incremental Fock matrix formation  ***
    1    -2448.2672447144350372     0.00e+00  2.07e-03  6.06e-02  1.08e-01  0.700   1.6
    2    -2448.3476846251487586    -8.04e-02  1.41e-03  3.48e-02  5.18e-02  0.700   1.5
                               ***Turning on AO-DIIS***
    3    -2448.3759203491563312    -2.82e-02  6.44e-04  1.12e-02  1.86e-02  0.700   1.4
    4    -2448.3932875789942045    -1.74e-02  1.29e-03  3.25e-02  9.29e-03  0.000   1.4
    5    -2448.4321958591435759    -3.89e-02  2.51e-04  6.46e-03  4.36e-03  0.000   1.4
                              *** Initializing SOSCF ***
---------------------------------------S-O-S-C-F--------------------------------------
Iteration    Energy (Eh)           Delta-E    RMSDP     MaxDP     MaxGrad    Time(sec)
--------------------------------------------------------------------------------------
    6    -2448.4324131565690550    -2.17e-04  7.15e-05  1.75e-03  1.61e-03     1.3
               *** Restarting incremental Fock matrix formation ***
    7    -2448.4324353451984280    -2.22e-05  6.02e-05  1.57e-03  3.15e-04     1.6
    8    -2448.4324294224616096     5.92e-06  3.00e-05  1.18e-03  6.65e-04     1.2
                 **** Energy Check signals convergence ****

               *****************************************************
               *                     SUCCESS                       *
               *           SCF CONVERGED AFTER   8 CYCLES          *
               *****************************************************

             **** ENERGY FILE WAS UPDATED (sp.en.tmp) ****

----------------
TOTAL SCF ENERGY
----------------

Total Energy       :      -2448.43242942246161 Eh          -66625.23357 eV

Components:
Nuclear Repulsion  :       1669.30496669559966 Eh           45424.09746 eV
Electronic Energy  :      -4117.73739611806104 Eh         -112049.33103 eV
One Electron Energy:      -6689.51796804873175 Eh         -182031.03819 eV
Two Electron Energy:       2571.78057193067070 Eh           69981.70716 eV

Virial components:
Potential Energy   :      -4888.38136261907221 Eh         -133019.61946 eV
Kinetic Energy     :       2439.94893319661060 Eh           66394.38590 eV
Virial Ratio       :          2.00347691548394

DFT components:
N(Alpha)           :       80.000108345669 electrons
N(Beta)            :       80.000108345669 electrons
N(Total)           :      160.000216691339 electrons
E(X)               :     -189.518077587905 Eh       
E(C)               :       -5.841946708223 Eh       
E(XC)              :     -195.360024296128 Eh       

---------------
SCF CONVERGENCE
---------------

  Last Energy change         ...   -5.9227e-06  Tolerance :   1.0000e-05
  Last MAX-Density change    ...    1.1771e-03  Tolerance :   1.0000e-03
  Last RMS-Density change    ...    2.9993e-05  Tolerance :   1.0000e-04
  Last DIIS Error            ...    1.6084e-03  Tolerance :   5.0000e-04
  Last Orbital Gradient      ...    6.6522e-04  Tolerance :   1.0000e-04
  Last Orbital Rotation      ...    1.3946e-03  Tolerance :   1.0000e-04


----------------
ORBITAL ENERGIES
----------------

  NO   OCC          E(Eh)            E(eV) 
   0   2.0000    -100.654173     -2738.9393 
   1   2.0000    -100.654170     -2738.9392 
   2   2.0000    -100.654093     -2738.9371 
   3   2.0000    -100.654089     -2738.9370 
   4   2.0000     -18.836460      -512.5661 
   5   2.0000     -18.836284      -512.5613 
   6   2.0000      -9.989332      -271.8235 
   7   2.0000      -9.989298      -271.8226 
   8   2.0000      -9.989144      -271.8184 
   9   2.0000      -9.989071      -271.8164 
  10   2.0000      -9.972897      -271.3763 
  11   2.0000      -9.972890      -271.3761 
  12   2.0000      -9.972666      -271.3700 
  13   2.0000      -9.972662      -271.3699 
  14   2.0000      -9.927362      -270.1373 
  15   2.0000      -9.927299      -270.1355 
  16   2.0000      -9.927237      -270.1339 
  17   2.0000      -9.927215      -270.1333 
  18   2.0000      -9.189908      -250.0701 
  19   2.0000      -9.189905      -250.0700 
  20   2.0000      -9.189840      -250.0683 
  21   2.0000      -9.189837      -250.0682 
  22   2.0000      -7.021512      -191.0650 
  23   2.0000      -7.021507      -191.0649 
  24   2.0000      -7.021493      -191.0646 
  25   2.0000      -7.021492      -191.0645 
  26   2.0000      -7.009838      -190.7474 
  27   2.0000      -7.009833      -190.7473 
  28   2.0000      -7.009824      -190.7470 
  29   2.0000      -7.009823      -190.7470 
  30   2.0000      -7.009049      -190.7259 
  31   2.0000      -7.009045      -190.7258 
  32   2.0000      -7.009012      -190.7249 
  33   2.0000      -7.009010      -190.7249 
  34   2.0000      -1.043207       -28.3871 
  35   2.0000      -1.008333       -27.4381 
  36   2.0000      -0.853850       -23.2344 
  37   2.0000      -0.848293       -23.0832 
  38   2.0000      -0.798101       -21.7174 
  39   2.0000      -0.793729       -21.5985 
  40   2.0000      -0.792944       -21.5771 
  41   2.0000      -0.766635       -20.8612 
  42   2.0000      -0.724767       -19.7219 
  43   2.0000      -0.690720       -18.7954 
  44   2.0000      -0.685094       -18.6423 
  45   2.0000      -0.654103       -17.7991 
  46   2.0000      -0.613894       -16.7049 
  47   2.0000      -0.605244       -16.4695 
  48   2.0000      -0.578739       -15.7483 
  49   2.0000      -0.561051       -15.2670 
  50   2.0000      -0.522866       -14.2279 
  51   2.0000      -0.505142       -13.7456 
  52   2.0000      -0.471499       -12.8301 
  53   2.0000      -0.459485       -12.5032 
  54   2.0000      -0.457219       -12.4416 
  55   2.0000      -0.454552       -12.3690 
  56   2.0000      -0.438538       -11.9332 
  57   2.0000      -0.426093       -11.5946 
  58   2.0000      -0.420726       -11.4485 
  59   2.0000      -0.395009       -10.7487 
  60   2.0000      -0.394744       -10.7415 
  61   2.0000      -0.394719       -10.7408 
  62   2.0000      -0.390410       -10.6236 
  63   2.0000      -0.383329       -10.4309 
  64   2.0000      -0.375759       -10.2249 
  65   2.0000      -0.374900       -10.2015 
  66   2.0000      -0.368814       -10.0360 
  67   2.0000      -0.323062        -8.7910 
  68   2.0000      -0.316862        -8.6223 
  69   2.0000      -0.315297        -8.5797 
  70   2.0000      -0.313319        -8.5258 
  71   2.0000      -0.293341        -7.9822 
  72   2.0000      -0.292208        -7.9514 
  73   2.0000      -0.270814        -7.3692 
  74   2.0000      -0.270489        -7.3604 
  75   2.0000      -0.269705        -7.3390 
  76   2.0000      -0.254631        -6.9289 
  77   2.0000      -0.233349        -6.3497 
  78   2.0000      -0.230890        -6.2828 
  79   2.0000      -0.190430        -5.1819 
  80   0.0000      -0.072822        -1.9816 
  81   0.0000      -0.065241        -1.7753 
  82   0.0000      -0.065029        -1.7695 
  83   0.0000      -0.031444        -0.8556 
  84   0.0000      -0.030154        -0.8205 
  85   0.0000      -0.023033        -0.6268 
  86   0.0000       0.031975         0.8701 
  87   0.0000       0.039063         1.0630 
  88   0.0000       0.048207         1.3118 
  89   0.0000       0.075602         2.0572 
  90   0.0000       0.077907         2.1200 
*Only the first 10 virtual orbitals were printed.

                    ********************************
                    * MULLIKEN POPULATION ANALYSIS *
                    ********************************

-----------------------
MULLIKEN ATOMIC CHARGES
-----------------------
   0 C :   -0.229627
   1 C :    0.224217
   2 C :    0.224161
   3 C :   -0.229600
   4 C :    0.102357
   5 C :    0.102394
   6 Cl:   -0.049011
   7 Cl:   -0.049014
   8 O :   -0.204195
   9 C :    0.224189
  10 C :   -0.229614
  11 C :    0.102365
  12 C :    0.102364
  13 C :   -0.229626
  14 C :    0.224211
  15 O :   -0.204190
  16 Cl:   -0.048992
  17 Cl:   -0.049023
  18 H :    0.054145
  19 H :    0.054167
  20 H :    0.054156
  21 H :    0.054166
Sum of atomic charges:   -0.0000000

--------------------------------
MULLIKEN REDUCED ORBITAL CHARGES
--------------------------------
  0 C s       :     3.477304  s :     3.477304
      pz      :     1.034132  p :     2.719895
      px      :     0.941667
      py      :     0.744096
      dz2     :     0.003488  d :     0.032427
      dxz     :     0.007428
      dyz     :     0.002284
      dx2y2   :     0.010549
      dxy     :     0.008678

  1 C s       :     2.936666  s :     2.936666
      pz      :     1.052825  p :     2.769120
      px      :     0.768145
      py      :     0.948149
      dz2     :     0.005207  d :     0.069998
      dxz     :     0.013935
      dyz     :     0.009468
      dx2y2   :     0.020293
      dxy     :     0.021095

  2 C s       :     2.936722  s :     2.936722
      pz      :     1.052827  p :     2.769119
      px      :     0.768159
      py      :     0.948134
      dz2     :     0.005207  d :     0.069998
      dxz     :     0.013935
      dyz     :     0.009468
      dx2y2   :     0.020293
      dxy     :     0.021096

  3 C s       :     3.477276  s :     3.477276
      pz      :     1.034133  p :     2.719897
      px      :     0.941671
      py      :     0.744093
      dz2     :     0.003488  d :     0.032427
      dxz     :     0.007427
      dyz     :     0.002284
      dx2y2   :     0.010549
      dxy     :     0.008678

  4 C s       :     2.931716  s :     2.931716
      pz      :     1.076139  p :     2.914166
      px      :     0.816232
      py      :     1.021794
      dz2     :     0.003654  d :     0.051761
      dxz     :     0.008242
      dyz     :     0.007883
      dx2y2   :     0.016103
      dxy     :     0.015878

  5 C s       :     2.931686  s :     2.931686
      pz      :     1.076142  p :     2.914159
      px      :     0.816222
      py      :     1.021796
      dz2     :     0.003654  d :     0.051761
      dxz     :     0.008242
      dyz     :     0.007883
      dx2y2   :     0.016103
      dxy     :     0.015878

  6 Cls       :     5.943259  s :     5.943259
      pz      :     3.903266  p :    11.066788
      px      :     3.411807
      py      :     3.751715
      dz2     :     0.005246  d :     0.038964
      dxz     :     0.008131
      dyz     :     0.002725
      dx2y2   :     0.008666
      dxy     :     0.014196

  7 Cls       :     5.943260  s :     5.943260
      pz      :     3.903266  p :    11.066790
      px      :     3.411795
      py      :     3.751729
      dz2     :     0.005246  d :     0.038964
      dxz     :     0.008131
      dyz     :     0.002725
      dx2y2   :     0.008666
      dxy     :     0.014196

  8 O s       :     3.717025  s :     3.717025
      pz      :     1.741733  p :     4.469539
      px      :     1.163130
      py      :     1.564675
      dz2     :     0.002297  d :     0.017632
      dxz     :     0.002984
      dyz     :     0.002356
      dx2y2   :     0.002923
      dxy     :     0.007073

  9 C s       :     2.936687  s :     2.936687
      pz      :     1.052824  p :     2.769127
      px      :     0.768154
      py      :     0.948148
      dz2     :     0.005207  d :     0.069997
      dxz     :     0.013935
      dyz     :     0.009468
      dx2y2   :     0.020293
      dxy     :     0.021095

 10 C s       :     3.477300  s :     3.477300
      pz      :     1.034132  p :     2.719887
      px      :     0.941671
      py      :     0.744084
      dz2     :     0.003488  d :     0.032427
      dxz     :     0.007428
      dyz     :     0.002284
      dx2y2   :     0.010549
      dxy     :     0.008678

 11 C s       :     2.931717  s :     2.931717
      pz      :     1.076141  p :     2.914160
      px      :     0.816235
      py      :     1.021784
      dz2     :     0.003654  d :     0.051759
      dxz     :     0.008242
      dyz     :     0.007883
      dx2y2   :     0.016102
      dxy     :     0.015878

 12 C s       :     2.931718  s :     2.931718
      pz      :     1.076144  p :     2.914156
      px      :     0.816217
      py      :     1.021796
      dz2     :     0.003654  d :     0.051762
      dxz     :     0.008243
      dyz     :     0.007883
      dx2y2   :     0.016104
      dxy     :     0.015878

 13 C s       :     3.477285  s :     3.477285
      pz      :     1.034134  p :     2.719915
      px      :     0.941664
      py      :     0.744117
      dz2     :     0.003488  d :     0.032426
      dxz     :     0.007427
      dyz     :     0.002284
      dx2y2   :     0.010549
      dxy     :     0.008678

 14 C s       :     2.936690  s :     2.936690
      pz      :     1.052827  p :     2.769101
      px      :     0.768142
      py      :     0.948131
      dz2     :     0.005207  d :     0.069998
      dxz     :     0.013935
      dyz     :     0.009468
      dx2y2   :     0.020293
      dxy     :     0.021095

 15 O s       :     3.717021  s :     3.717021
      pz      :     1.741734  p :     4.469536
      px      :     1.163129
      py      :     1.564674
      dz2     :     0.002297  d :     0.017632
      dxz     :     0.002984
      dyz     :     0.002356
      dx2y2   :     0.002923
      dxy     :     0.007073

 16 Cls       :     5.943257  s :     5.943257
      pz      :     3.903253  p :    11.066766
      px      :     3.411808
      py      :     3.751705
      dz2     :     0.005246  d :     0.038969
      dxz     :     0.008133
      dyz     :     0.002726
      dx2y2   :     0.008667
      dxy     :     0.014198

 17 Cls       :     5.943261  s :     5.943261
      pz      :     3.903271  p :    11.066801
      px      :     3.411815
      py      :     3.751715
      dz2     :     0.005246  d :     0.038961
      dxz     :     0.008131
      dyz     :     0.002725
      dx2y2   :     0.008665
      dxy     :     0.014196

 18 H s       :     0.945855  s :     0.945855

 19 H s       :     0.945833  s :     0.945833

 20 H s       :     0.945844  s :     0.945844

 21 H s       :     0.945834  s :     0.945834


------------------------
MULLIKEN OVERLAP CHARGES
------------------------
B(  0-C ,  1-C ) :   0.1337 B(  0-C ,  2-C ) :   0.3583 B(  0-C ,  3-C ) :  -0.3056 
B(  0-C ,  4-C ) :   0.3989 B(  0-C ,  5-C ) :   0.2486 B(  0-C ,  6-Cl) :  -0.1239 
B(  0-C , 15-O ) :  -0.1455 B(  0-C , 18-H ) :   0.8759 B(  1-C ,  2-C ) :  -0.3743 
B(  1-C ,  3-C ) :   0.3582 B(  1-C ,  4-C ) :  -0.5419 B(  1-C ,  5-C ) :   0.5889 
B(  1-C ,  8-O ) :  -0.1626 B(  1-C , 14-C ) :  -0.0763 B(  1-C , 15-O ) :   0.7460 
B(  1-C , 18-H ) :  -0.1663 B(  1-C , 19-H ) :   0.0530 B(  2-C ,  3-C ) :   0.1338 
B(  2-C ,  4-C ) :   0.5889 B(  2-C ,  5-C ) :  -0.5419 B(  2-C ,  8-O ) :   0.7459 
B(  2-C ,  9-C ) :  -0.0763 B(  2-C , 15-O ) :  -0.1626 B(  2-C , 18-H ) :   0.0530 
B(  2-C , 19-H ) :  -0.1663 B(  3-C ,  4-C ) :   0.2487 B(  3-C ,  5-C ) :   0.3988 
B(  3-C ,  7-Cl) :  -0.1239 B(  3-C ,  8-O ) :  -0.1455 B(  3-C , 19-H ) :   0.8759 
B(  4-C ,  5-C ) :   0.0716 B(  4-C ,  6-Cl) :  -0.1378 B(  4-C ,  7-Cl) :   0.5401 
B(  4-C , 19-H ) :  -0.1996 B(  5-C ,  6-Cl) :   0.5401 B(  5-C ,  7-Cl) :  -0.1378 
B(  5-C , 18-H ) :  -0.1997 B(  8-O ,  9-C ) :   0.7459 B(  8-O , 10-C ) :  -0.1455 
B(  8-O , 14-C ) :  -0.1626 B(  9-C , 10-C ) :   0.1338 B(  9-C , 11-C ) :   0.5889 
B(  9-C , 12-C ) :  -0.5418 B(  9-C , 13-C ) :   0.3583 B(  9-C , 14-C ) :  -0.3743 
B(  9-C , 15-O ) :  -0.1626 B(  9-C , 20-H ) :  -0.1663 B(  9-C , 21-H ) :   0.0530 
B( 10-C , 11-C ) :   0.2486 B( 10-C , 12-C ) :   0.3988 B( 10-C , 13-C ) :  -0.3056 
B( 10-C , 14-C ) :   0.3583 B( 10-C , 17-Cl) :  -0.1239 B( 10-C , 20-H ) :   0.8759 
B( 11-C , 12-C ) :   0.0717 B( 11-C , 13-C ) :   0.3988 B( 11-C , 14-C ) :  -0.5419 
B( 11-C , 16-Cl) :  -0.1378 B( 11-C , 17-Cl) :   0.5401 B( 11-C , 20-H ) :  -0.1997 
B( 12-C , 13-C ) :   0.2487 B( 12-C , 14-C ) :   0.5889 B( 12-C , 16-Cl) :   0.5401 
B( 12-C , 17-Cl) :  -0.1378 B( 12-C , 21-H ) :  -0.1996 B( 13-C , 14-C ) :   0.1338 
B( 13-C , 15-O ) :  -0.1455 B( 13-C , 16-Cl) :  -0.1239 B( 13-C , 21-H ) :   0.8759 
B( 14-C , 15-O ) :   0.7459 B( 14-C , 20-H ) :   0.0530 B( 14-C , 21-H ) :  -0.1663 



                     *******************************
                     * LOEWDIN POPULATION ANALYSIS *
                     *******************************

----------------------
LOEWDIN ATOMIC CHARGES
----------------------
   0 C :   -0.145071
   1 C :    0.016325
   2 C :    0.016327
   3 C :   -0.145071
   4 C :   -0.160194
   5 C :   -0.160195
   6 Cl:    0.151182
   7 Cl:    0.151181
   8 O :   -0.018715
   9 C :    0.016330
  10 C :   -0.145073
  11 C :   -0.160182
  12 C :   -0.160217
  13 C :   -0.145070
  14 C :    0.016326
  15 O :   -0.018713
  16 Cl:    0.151220
  17 Cl:    0.151161
  18 H :    0.147111
  19 H :    0.147114
  20 H :    0.147114
  21 H :    0.147111

-------------------------------
LOEWDIN REDUCED ORBITAL CHARGES
-------------------------------
  0 C s       :     2.896410  s :     2.896410
      pz      :     1.031652  p :     3.161384
      px      :     1.059988
      py      :     1.069743
      dz2     :     0.007830  d :     0.087277
      dxz     :     0.016560
      dyz     :     0.003544
      dx2y2   :     0.031251
      dxy     :     0.028093

  1 C s       :     2.831819  s :     2.831819
      pz      :     1.031535  p :     2.984225
      px      :     0.923397
      py      :     1.029292
      dz2     :     0.011810  d :     0.167631
      dxz     :     0.027228
      dyz     :     0.019155
      dx2y2   :     0.053172
      dxy     :     0.056265

  2 C s       :     2.831825  s :     2.831825
      pz      :     1.031536  p :     2.984219
      px      :     0.923392
      py      :     1.029291
      dz2     :     0.011810  d :     0.167629
      dxz     :     0.027228
      dyz     :     0.019155
      dx2y2   :     0.053171
      dxy     :     0.056266

  3 C s       :     2.896417  s :     2.896417
      pz      :     1.031655  p :     3.161379
      px      :     1.059986
      py      :     1.069738
      dz2     :     0.007830  d :     0.087275
      dxz     :     0.016559
      dyz     :     0.003544
      dx2y2   :     0.031249
      dxy     :     0.028094

  4 C s       :     2.898712  s :     2.898712
      pz      :     1.069336  p :     3.135041
      px      :     0.995155
      py      :     1.070551
      dz2     :     0.008693  d :     0.126441
      dxz     :     0.016276
      dyz     :     0.016452
      dx2y2   :     0.044025
      dxy     :     0.040995

  5 C s       :     2.898710  s :     2.898710
      pz      :     1.069339  p :     3.135044
      px      :     0.995156
      py      :     1.070550
      dz2     :     0.008693  d :     0.126441
      dxz     :     0.016276
      dyz     :     0.016452
      dx2y2   :     0.044025
      dxy     :     0.040995

  6 Cls       :     5.754459  s :     5.754459
      pz      :     3.886879  p :    11.049079
      px      :     3.419655
      py      :     3.742545
      dz2     :     0.006315  d :     0.045280
      dxz     :     0.008865
      dyz     :     0.002957
      dx2y2   :     0.009708
      dxy     :     0.017436

  7 Cls       :     5.754460  s :     5.754460
      pz      :     3.886879  p :    11.049080
      px      :     3.419644
      py      :     3.742557
      dz2     :     0.006315  d :     0.045279
      dxz     :     0.008865
      dyz     :     0.002957
      dx2y2   :     0.009708
      dxy     :     0.017435

  8 O s       :     3.426695  s :     3.426695
      pz      :     1.730633  p :     4.558113
      px      :     1.228695
      py      :     1.598785
      dz2     :     0.004027  d :     0.033908
      dxz     :     0.005688
      dyz     :     0.002794
      dx2y2   :     0.006466
      dxy     :     0.014932

  9 C s       :     2.831822  s :     2.831822
      pz      :     1.031534  p :     2.984219
      px      :     0.923393
      py      :     1.029292
      dz2     :     0.011810  d :     0.167629
      dxz     :     0.027228
      dyz     :     0.019155
      dx2y2   :     0.053171
      dxy     :     0.056265

 10 C s       :     2.896412  s :     2.896412
      pz      :     1.031653  p :     3.161384
      px      :     1.059989
      py      :     1.069742
      dz2     :     0.007830  d :     0.087277
      dxz     :     0.016560
      dyz     :     0.003544
      dx2y2   :     0.031250
      dxy     :     0.028094

 11 C s       :     2.898722  s :     2.898722
      pz      :     1.069339  p :     3.135025
      px      :     0.995149
      py      :     1.070537
      dz2     :     0.008693  d :     0.126434
      dxz     :     0.016275
      dyz     :     0.016451
      dx2y2   :     0.044022
      dxy     :     0.040993

 12 C s       :     2.898715  s :     2.898715
      pz      :     1.069341  p :     3.135060
      px      :     0.995167
      py      :     1.070552
      dz2     :     0.008693  d :     0.126442
      dxz     :     0.016277
      dyz     :     0.016451
      dx2y2   :     0.044026
      dxy     :     0.040995

 13 C s       :     2.896420  s :     2.896420
      pz      :     1.031656  p :     3.161376
      px      :     1.059983
      py      :     1.069737
      dz2     :     0.007830  d :     0.087274
      dxz     :     0.016559
      dyz     :     0.003544
      dx2y2   :     0.031249
      dxy     :     0.028092

 14 C s       :     2.831822  s :     2.831822
      pz      :     1.031537  p :     2.984223
      px      :     0.923396
      py      :     1.029290
      dz2     :     0.011810  d :     0.167630
      dxz     :     0.027228
      dyz     :     0.019155
      dx2y2   :     0.053172
      dxy     :     0.056266

 15 O s       :     3.426693  s :     3.426693
      pz      :     1.730634  p :     4.558112
      px      :     1.228694
      py      :     1.598784
      dz2     :     0.004027  d :     0.033908
      dxz     :     0.005688
      dyz     :     0.002794
      dx2y2   :     0.006466
      dxy     :     0.014933

 16 Cls       :     5.754436  s :     5.754436
      pz      :     3.886863  p :    11.049057
      px      :     3.419660
      py      :     3.742534
      dz2     :     0.006315  d :     0.045286
      dxz     :     0.008866
      dyz     :     0.002957
      dx2y2   :     0.009709
      dxy     :     0.017438

 17 Cls       :     5.754472  s :     5.754472
      pz      :     3.886885  p :    11.049091
      px      :     3.419662
      py      :     3.742544
      dz2     :     0.006314  d :     0.045276
      dxz     :     0.008864
      dyz     :     0.002957
      dx2y2   :     0.009707
      dxy     :     0.017435

 18 H s       :     0.852889  s :     0.852889

 19 H s       :     0.852886  s :     0.852886

 20 H s       :     0.852886  s :     0.852886

 21 H s       :     0.852889  s :     0.852889


---------------------------------
LOEWDIN BOND ORDERS (THRESH 0.050000)
---------------------------------
B(  0-C ,  1-C ) :   1.4451 B(  0-C ,  2-C ) :   0.0912 B(  0-C ,  3-C ) :   0.0992 
B(  0-C ,  4-C ) :   0.0908 B(  0-C ,  5-C ) :   1.4335 B(  0-C ,  6-Cl) :   0.1100 
B(  0-C , 15-O ) :   0.0955 B(  0-C , 18-H ) :   0.8698 B(  1-C ,  2-C ) :   1.3189 
B(  1-C ,  3-C ) :   0.0912 B(  1-C ,  4-C ) :   0.0897 B(  1-C ,  5-C ) :   0.0940 
B(  1-C ,  8-O ) :   0.0808 B(  1-C , 14-C ) :   0.0708 B(  1-C , 15-O ) :   1.2051 
B(  2-C ,  3-C ) :   1.4451 B(  2-C ,  4-C ) :   0.0940 B(  2-C ,  5-C ) :   0.0897 
B(  2-C ,  8-O ) :   1.2051 B(  2-C ,  9-C ) :   0.0708 B(  2-C , 15-O ) :   0.0808 
B(  3-C ,  4-C ) :   1.4335 B(  3-C ,  5-C ) :   0.0908 B(  3-C ,  7-Cl) :   0.1100 
B(  3-C ,  8-O ) :   0.0955 B(  3-C , 19-H ) :   0.8698 B(  4-C ,  5-C ) :   1.4002 
B(  4-C ,  6-Cl) :   0.1075 B(  4-C ,  7-Cl) :   1.2662 B(  5-C ,  6-Cl) :   1.2662 
B(  5-C ,  7-Cl) :   0.1075 B(  8-O ,  9-C ) :   1.2051 B(  8-O , 10-C ) :   0.0955 
B(  8-O , 14-C ) :   0.0808 B(  9-C , 10-C ) :   1.4451 B(  9-C , 11-C ) :   0.0940 
B(  9-C , 12-C ) :   0.0897 B(  9-C , 13-C ) :   0.0912 B(  9-C , 14-C ) :   1.3188 
B(  9-C , 15-O ) :   0.0808 B( 10-C , 11-C ) :   1.4335 B( 10-C , 12-C ) :   0.0908 
B( 10-C , 13-C ) :   0.0992 B( 10-C , 14-C ) :   0.0912 B( 10-C , 17-Cl) :   0.1100 
B( 10-C , 20-H ) :   0.8698 B( 11-C , 12-C ) :   1.4002 B( 11-C , 13-C ) :   0.0908 
B( 11-C , 14-C ) :   0.0897 B( 11-C , 16-Cl) :   0.1075 B( 11-C , 17-Cl) :   1.2661 
B( 12-C , 13-C ) :   1.4334 B( 12-C , 14-C ) :   0.0940 B( 12-C , 16-Cl) :   1.2662 
B( 12-C , 17-Cl) :   0.1075 B( 13-C , 14-C ) :   1.4451 B( 13-C , 15-O ) :   0.0955 
B( 13-C , 16-Cl) :   0.1100 B( 13-C , 21-H ) :   0.8698 B( 14-C , 15-O ) :   1.2051 


------------------------------------------
LOEWDIN REDUCED ORBITAL POPULATIONS PER MO
-------------------------------------------
THRESHOLD FOR PRINTING IS 0.1%%
                      0         1         2         3         4         5   
                 -100.65417 -100.65417 -100.65409 -100.65409 -18.83646 -18.83628
                   2.00000   2.00000   2.00000   2.00000   2.00000   2.00000
                  --------  --------  --------  --------  --------  --------
 6 Cl s               1.4      48.6      10.7      39.3       0.0       0.0
 7 Cl s               1.4      48.7      10.7      39.3       0.0       0.0
 8 O  s               0.0       0.0       0.0       0.0      49.5      50.4
15 O  s               0.0       0.0       0.0       0.0      50.4      49.5
16 Cl s              53.8       1.5      35.0       9.6       0.0       0.0
17 Cl s              43.4       1.2      43.6      11.8       0.0       0.0

                      6         7         8         9        10        11   
                  -9.98933  -9.98930  -9.98914  -9.98907  -9.97290  -9.97289
                   2.00000   2.00000   2.00000   2.00000   2.00000   2.00000
                  --------  --------  --------  --------  --------  --------
 1 C  s              24.5      25.2      24.7      25.1       0.0       0.0
 2 C  s              24.5      25.3      24.7      25.0       0.0       0.0
 4 C  s               0.0       0.0       0.0       0.0      14.5      35.4
 5 C  s               0.0       0.0       0.0       0.0      14.5      35.2
 9 C  s              25.3      24.4      25.1      24.7       0.0       0.0
11 C  s               0.0       0.0       0.0       0.0      35.3      14.5
12 C  s               0.0       0.0       0.0       0.0      35.3      14.5
14 C  s              25.3      24.5      25.1      24.7       0.0       0.0

                     12        13        14        15        16        17   
                  -9.97267  -9.97266  -9.92736  -9.92730  -9.92724  -9.92721
                   2.00000   2.00000   2.00000   2.00000   2.00000   2.00000
                  --------  --------  --------  --------  --------  --------
 0 C  s               0.0       0.0      23.6      23.9      24.5      27.5
 3 C  s               0.0       0.0      25.0      27.0      21.8      25.8
 4 C  s               1.4      48.3       0.0       0.0       0.0       0.0
 5 C  s               1.4      48.5       0.0       0.0       0.0       0.0
10 C  s               0.0       0.0      25.1      23.3      27.8      23.4
11 C  s              48.4       1.4       0.0       0.0       0.0       0.0
12 C  s              48.4       1.4       0.0       0.0       0.0       0.0
13 C  s               0.0       0.0      25.8      25.3      25.5      22.9

                     18        19        20        21        22        23   
                  -9.18991  -9.18990  -9.18984  -9.18984  -7.02151  -7.02151
                   2.00000   2.00000   2.00000   2.00000   2.00000   2.00000
                  --------  --------  --------  --------  --------  --------
 6 Cl s               0.5      49.4       6.2      43.8       0.0       0.0
 6 Cl px              0.0       0.0       0.0       0.0       0.0      36.6
 6 Cl py              0.0       0.0       0.0       0.0       0.0      13.2
 7 Cl s               0.5      49.5       6.1      43.7       0.0       0.0
 7 Cl px              0.0       0.0       0.0       0.0       0.0      36.8
 7 Cl py              0.0       0.0       0.0       0.0       0.0      13.3
16 Cl s              56.6       0.5      37.4       5.3       0.0       0.0
16 Cl px              0.0       0.0       0.0       0.0      55.9       0.0
16 Cl py              0.0       0.0       0.0       0.0      20.2       0.0
17 Cl s              42.3       0.4      50.1       7.0       0.0       0.0
17 Cl px              0.0       0.0       0.0       0.0      17.5       0.0
17 Cl py              0.0       0.0       0.0       0.0       6.3       0.0

                     24        25        26        27        28        29   
                  -7.02149  -7.02149  -7.00984  -7.00983  -7.00982  -7.00982
                   2.00000   2.00000   2.00000   2.00000   2.00000   2.00000
                  --------  --------  --------  --------  --------  --------
 6 Cl pz              0.0       0.0       0.0      49.6       0.0      50.4
 6 Cl px              3.0      33.9       0.0       0.0       0.0       0.0
 6 Cl py              1.1      12.2       0.0       0.0       0.0       0.0
 7 Cl pz              0.0       0.0       0.0      50.4       0.0      49.6
 7 Cl px              2.9      33.8       0.0       0.0       0.0       0.0
 7 Cl py              1.0      12.2       0.0       0.0       0.0       0.0
16 Cl pz              0.0       0.0      84.9       0.0      15.1       0.0
16 Cl px             16.0       1.5       0.0       0.0       0.0       0.0
16 Cl py              5.7       0.5       0.0       0.0       0.0       0.0
17 Cl pz              0.0       0.0      15.1       0.0      84.9       0.0
17 Cl px             51.7       4.3       0.0       0.0       0.0       0.0
17 Cl py             18.6       1.6       0.0       0.0       0.0       0.0

                     30        31        32        33        34        35   
                  -7.00905  -7.00905  -7.00901  -7.00901  -1.04321  -1.00833
                   2.00000   2.00000   2.00000   2.00000   2.00000   2.00000
                  --------  --------  --------  --------  --------  --------
 0 C  s               0.0       0.0       0.0       0.0       0.4       0.2
 0 C  px              0.0       0.0       0.0       0.0       0.6       0.4
 1 C  s               0.0       0.0       0.0       0.0       6.0       2.6
 1 C  px              0.0       0.0       0.0       0.0       3.8       2.8
 1 C  py              0.0       0.0       0.0       0.0       0.1       3.1
 1 C  dz2             0.0       0.0       0.0       0.0       0.2       0.1
 1 C  dx2y2           0.0       0.0       0.0       0.0       0.0       0.2
 1 C  dxy             0.0       0.0       0.0       0.0       0.2       0.3
 2 C  s               0.0       0.0       0.0       0.0       6.0       2.6
 2 C  px              0.0       0.0       0.0       0.0       3.8       2.8
 2 C  py              0.0       0.0       0.0       0.0       0.1       3.1
 2 C  dz2             0.0       0.0       0.0       0.0       0.2       0.1
 2 C  dx2y2           0.0       0.0       0.0       0.0       0.0       0.2
 2 C  dxy             0.0       0.0       0.0       0.0       0.2       0.3
 3 C  s               0.0       0.0       0.0       0.0       0.4       0.2
 3 C  px              0.0       0.0       0.0       0.0       0.6       0.4
 6 Cl px              0.2      13.1       0.2      13.1       0.0       0.0
 6 Cl py              0.5      36.2       0.4      36.4       0.0       0.0
 7 Cl px              0.2      13.1       0.1      13.1       0.0       0.0
 7 Cl py              0.5      36.3       0.4      36.3       0.0       0.0
 8 O  s               0.0       0.0       0.0       0.0      24.9      28.9
 8 O  py              0.0       0.0       0.0       0.0       1.9       1.4
 9 C  s               0.0       0.0       0.0       0.0       6.0       2.6
 9 C  px              0.0       0.0       0.0       0.0       3.8       2.8
 9 C  py              0.0       0.0       0.0       0.0       0.1       3.1
 9 C  dz2             0.0       0.0       0.0       0.0       0.2       0.1
 9 C  dx2y2           0.0       0.0       0.0       0.0       0.0       0.2
 9 C  dxy             0.0       0.0       0.0       0.0       0.2       0.3
10 C  s               0.0       0.0       0.0       0.0       0.4       0.2
10 C  px              0.0       0.0       0.0       0.0       0.6       0.4
13 C  s               0.0       0.0       0.0       0.0       0.4       0.2
13 C  px              0.0       0.0       0.0       0.0       0.6       0.4
14 C  s               0.0       0.0       0.0       0.0       6.0       2.6
14 C  px              0.0       0.0       0.0       0.0       3.8       2.8
14 C  py              0.0       0.0       0.0       0.0       0.1       3.1
14 C  dz2             0.0       0.0       0.0       0.0       0.2       0.1
14 C  dx2y2           0.0       0.0       0.0       0.0       0.0       0.2
14 C  dxy             0.0       0.0       0.0       0.0       0.2       0.3
15 O  s               0.0       0.0       0.0       0.0      24.9      28.9
15 O  py              0.0       0.0       0.0       0.0       1.9       1.4
16 Cl px             16.5       0.2       9.6       0.1       0.0       0.0
16 Cl py             45.7       0.7      26.8       0.3       0.0       0.0
17 Cl px              9.7       0.1      16.5       0.2       0.0       0.0
17 Cl py             26.7       0.4      45.9       0.5       0.0       0.0

                     36        37        38        39        40        41   
                  -0.85385  -0.84829  -0.79810  -0.79373  -0.79294  -0.76663
                   2.00000   2.00000   2.00000   2.00000   2.00000   2.00000
                  --------  --------  --------  --------  --------  --------
 0 C  s               3.6       2.6       1.9       1.3       1.0       3.5
 0 C  px              0.2       0.8       1.7       0.4       0.5       0.2
 0 C  py              0.9       0.6       0.4       0.0       0.0       1.0
 1 C  s               2.4       0.6       6.9       0.2       0.0       2.9
 1 C  px              0.9       1.0       0.5       0.1       0.1       2.8
 1 C  py              0.1       0.1       0.4       0.2       0.1       0.9
 2 C  s               2.4       0.6       6.9       0.2       0.0       2.9
 2 C  px              0.9       1.0       0.5       0.1       0.1       2.8
 2 C  py              0.1       0.1       0.4       0.2       0.1       0.9
 3 C  s               3.6       2.6       1.9       1.3       1.0       3.5
 3 C  px              0.2       0.8       1.7       0.4       0.5       0.2
 3 C  py              0.9       0.6       0.4       0.0       0.0       1.0
 4 C  s               8.8       9.6       0.4       2.6       2.6       0.2
 4 C  px              0.1       0.3       3.5       0.8       0.9       5.1
 4 C  py              0.2       0.2       0.0       3.4       3.4       0.3
 4 C  dz2             0.1       0.1       0.0       0.0       0.0       0.0
 5 C  s               8.8       9.6       0.4       2.6       2.6       0.2
 5 C  px              0.1       0.3       3.5       0.8       0.9       5.1
 5 C  py              0.2       0.2       0.0       3.4       3.4       0.3
 5 C  dz2             0.1       0.1       0.0       0.0       0.0       0.0
 6 Cl s               5.9       7.7       6.4      14.7      15.4       6.8
 6 Cl px              0.5       0.6       0.1       0.5       0.5       0.0
 6 Cl py              0.2       0.3       0.1       0.1       0.1       0.0
 7 Cl s               5.9       7.7       6.4      14.7      15.4       6.8
 7 Cl px              0.5       0.6       0.1       0.5       0.5       0.0
 7 Cl py              0.2       0.3       0.1       0.1       0.1       0.0
 8 O  s               0.0       0.3       0.0       0.0       0.0       1.6
 8 O  px              0.9       0.0       4.0       0.2       0.0       0.0
 9 C  s               2.4       0.6       6.9       0.2       0.0       2.9
 9 C  px              0.9       1.0       0.5       0.1       0.1       2.8
 9 C  py              0.1       0.1       0.4       0.2       0.1       0.9
10 C  s               3.6       2.6       1.9       1.3       1.0       3.5
10 C  px              0.2       0.8       1.7       0.4       0.5       0.2
10 C  py              0.9       0.6       0.4       0.0       0.0       1.0
11 C  s               8.8       9.6       0.4       2.7       2.6       0.2
11 C  px              0.1       0.3       3.5       0.8       0.9       5.1
11 C  py              0.2       0.2       0.0       3.4       3.3       0.3
11 C  dz2             0.1       0.1       0.0       0.0       0.0       0.0
12 C  s               8.8       9.6       0.4       2.7       2.6       0.2
12 C  px              0.1       0.3       3.5       0.8       0.9       5.1
12 C  py              0.2       0.2       0.0       3.4       3.3       0.3
12 C  dz2             0.1       0.1       0.0       0.0       0.0       0.0
13 C  s               3.6       2.6       1.9       1.3       1.0       3.5
13 C  px              0.2       0.8       1.7       0.4       0.5       0.2
13 C  py              0.9       0.6       0.4       0.0       0.0       1.0
14 C  s               2.4       0.6       6.9       0.2       0.0       2.9
14 C  px              0.9       1.0       0.5       0.1       0.1       2.8
14 C  py              0.1       0.1       0.4       0.2       0.1       0.9
15 O  s               0.0       0.3       0.0       0.0       0.0       1.6
15 O  px              0.9       0.0       4.0       0.2       0.0       0.0
16 Cl s               5.9       7.7       6.5      14.9      15.2       6.8
16 Cl px              0.5       0.6       0.1       0.5       0.5       0.0
16 Cl py              0.2       0.3       0.1       0.1       0.1       0.0
17 Cl s               5.9       7.7       6.4      14.9      15.2       6.8
17 Cl px              0.5       0.6       0.1       0.5       0.5       0.0
17 Cl py              0.2       0.3       0.1       0.1       0.1       0.0
18 H  s               0.5       0.4       0.2       0.3       0.2       0.3
19 H  s               0.5       0.4       0.2       0.3       0.2       0.3
20 H  s               0.5       0.4       0.2       0.3       0.2       0.3
21 H  s               0.5       0.4       0.2       0.3       0.2       0.3

                     42        43        44        45        46        47   
                  -0.72477  -0.69072  -0.68509  -0.65410  -0.61389  -0.60524
                   2.00000   2.00000   2.00000   2.00000   2.00000   2.00000
                  --------  --------  --------  --------  --------  --------
 0 C  s               5.9       0.6       9.1       0.1       2.6       3.4
 0 C  px              0.8       2.7       0.0       2.0       3.4       0.7
 0 C  py              0.1       0.3       0.1       0.1       0.0       1.4
 0 C  dxy             0.0       0.1       0.0       0.2       0.1       0.0
 1 C  s               4.0       3.1       1.1       4.0       1.4       0.1
 1 C  px              0.5       0.8       2.7       0.2       1.3       2.0
 1 C  py              3.7       0.2       1.2       5.6       1.1       5.2
 1 C  dx2y2           0.0       0.1       0.0       0.1       0.0       0.0
 1 C  dxy             0.0       0.0       0.2       0.1       0.2       0.0
 2 C  s               4.0       3.1       1.1       4.0       1.4       0.1
 2 C  px              0.5       0.8       2.7       0.2       1.3       2.0
 2 C  py              3.7       0.2       1.2       5.6       1.1       5.2
 2 C  dx2y2           0.0       0.1       0.0       0.1       0.0       0.0
 2 C  dxy             0.0       0.0       0.2       0.1       0.2       0.0
 3 C  s               5.9       0.6       9.1       0.1       2.6       3.4
 3 C  px              0.8       2.7       0.0       2.0       3.4       0.7
 3 C  py              0.1       0.3       0.1       0.1       0.0       1.4
 3 C  dxy             0.0       0.1       0.0       0.2       0.1       0.0
 4 C  s               0.2       3.9       1.0       3.6       1.9       1.6
 4 C  px              1.7       2.3       2.9       0.5       1.6       0.4
 4 C  py              0.2       1.8       0.9       1.6       1.5       4.3
 4 C  dxy             0.1       0.0       0.2       0.0       0.1       0.0
 5 C  s               0.2       3.9       1.0       3.6       1.9       1.6
 5 C  px              1.7       2.3       2.9       0.5       1.6       0.4
 5 C  py              0.2       1.8       0.9       1.6       1.6       4.3
 5 C  dxy             0.1       0.0       0.2       0.0       0.1       0.0
 6 Cl s               2.2       5.6       3.0       3.7       2.4       1.1
 6 Cl px              0.0       0.2       0.1       0.4       0.6       0.1
 6 Cl py              0.0       0.1       0.0       0.1       0.1       0.4
 7 Cl s               2.2       5.6       3.0       3.7       2.4       1.1
 7 Cl px              0.0       0.2       0.1       0.4       0.6       0.1
 7 Cl py              0.0       0.1       0.0       0.1       0.1       0.4
 8 O  s               0.0       0.0       0.7       3.7       0.0       0.8
 8 O  px              8.0       6.1       0.0       0.0      11.9       0.0
 8 O  py              0.0       0.0       0.1       1.7       0.0       3.1
 8 O  dxy             0.1       0.1       0.0       0.0       0.1       0.0
 9 C  s               4.0       3.1       1.1       4.0       1.4       0.1
 9 C  px              0.5       0.8       2.7       0.2       1.3       2.0
 9 C  py              3.7       0.2       1.2       5.6       1.1       5.2
 9 C  dx2y2           0.0       0.1       0.0       0.1       0.0       0.0
 9 C  dxy             0.0       0.0       0.2       0.1       0.2       0.0
10 C  s               5.9       0.6       9.1       0.1       2.6       3.4
10 C  px              0.8       2.7       0.0       2.0       3.4       0.7
10 C  py              0.1       0.3       0.1       0.1       0.0       1.4
10 C  dxy             0.0       0.1       0.0       0.2       0.1       0.0
11 C  s               0.2       3.9       1.0       3.6       1.9       1.6
11 C  px              1.7       2.3       2.9       0.5       1.6       0.4
11 C  py              0.2       1.8       0.9       1.6       1.6       4.3
11 C  dxy             0.1       0.0       0.2       0.0       0.1       0.0
12 C  s               0.2       3.9       1.0       3.6       1.9       1.6
12 C  px              1.7       2.3       2.9       0.5       1.6       0.4
12 C  py              0.2       1.8       0.9       1.6       1.5       4.3
12 C  dxy             0.1       0.0       0.2       0.0       0.1       0.0
13 C  s               5.9       0.6       9.1       0.1       2.6       3.4
13 C  px              0.8       2.7       0.0       2.0       3.4       0.7
13 C  py              0.1       0.3       0.1       0.1       0.0       1.4
13 C  dxy             0.0       0.1       0.0       0.2       0.1       0.0
14 C  s               4.0       3.1       1.1       4.0       1.4       0.1
14 C  px              0.5       0.8       2.7       0.2       1.3       2.0
14 C  py              3.7       0.2       1.2       5.6       1.1       5.2
14 C  dx2y2           0.0       0.1       0.0       0.1       0.0       0.0
14 C  dxy             0.0       0.0       0.2       0.1       0.2       0.0
15 O  s               0.0       0.0       0.7       3.7       0.0       0.8
15 O  px              8.0       6.1       0.0       0.0      11.9       0.0
15 O  py              0.0       0.0       0.1       1.7       0.0       3.1
15 O  dxy             0.1       0.1       0.0       0.0       0.1       0.0
16 Cl s               2.2       5.6       3.0       3.7       2.4       1.1
16 Cl px              0.0       0.2       0.1       0.4       0.6       0.1
16 Cl py              0.0       0.1       0.0       0.1       0.1       0.4
17 Cl s               2.2       5.6       3.0       3.7       2.4       1.1
17 Cl px              0.0       0.2       0.1       0.4       0.6       0.1
17 Cl py              0.0       0.1       0.0       0.1       0.1       0.4
18 H  s               1.2       0.0       1.9       0.1       0.6       2.1
19 H  s               1.2       0.0       1.9       0.1       0.6       2.1
20 H  s               1.2       0.0       1.9       0.1       0.6       2.1
21 H  s               1.2       0.0       1.9       0.1       0.6       2.1

                     48        49        50        51        52        53   
                  -0.57874  -0.56105  -0.52287  -0.50514  -0.47150  -0.45949
                   2.00000   2.00000   2.00000   2.00000   2.00000   2.00000
                  --------  --------  --------  --------  --------  --------
 0 C  s               4.5       0.0       0.2       0.6       1.3       0.0
 0 C  px              0.0       0.0       8.3       5.6       2.8       4.4
 0 C  py              2.1       1.5       0.0       1.8       0.2       0.8
 0 C  dx2y2           0.0       0.0       0.0       0.0       0.1       0.0
 0 C  dxy             0.0       0.1       0.2       0.1       0.1       0.0
 1 C  s               0.8       0.2       1.3       0.2       0.0       0.3
 1 C  px              1.1       3.5       2.0       3.0       3.5       2.8
 1 C  py              3.1       7.8       1.2       1.4       0.1       5.0
 1 C  dx2y2           0.1       0.0       0.0       0.0       0.0       0.1
 1 C  dxy             0.0       0.0       0.2       0.0       0.5       0.0
 2 C  s               0.8       0.2       1.3       0.2       0.0       0.3
 2 C  px              1.1       3.5       2.0       3.0       3.5       2.8
 2 C  py              3.1       7.8       1.2       1.4       0.1       5.0
 2 C  dx2y2           0.1       0.0       0.0       0.0       0.0       0.1
 2 C  dxy             0.0       0.0       0.2       0.0       0.5       0.0
 3 C  s               4.5       0.0       0.2       0.6       1.2       0.0
 3 C  px              0.0       0.0       8.3       5.6       2.8       4.4
 3 C  py              2.1       1.5       0.0       1.8       0.2       0.8
 3 C  dx2y2           0.0       0.0       0.0       0.0       0.1       0.0
 3 C  dxy             0.0       0.1       0.2       0.1       0.1       0.0
 4 C  s               0.9       1.0       2.9       0.1       2.1       0.2
 4 C  px              1.4       0.5       0.1       0.8       0.4       0.1
 4 C  py              6.3       0.5       2.0       5.8       1.2       5.8
 5 C  s               0.9       1.0       2.9       0.1       2.1       0.2
 5 C  px              1.4       0.5       0.1       0.8       0.3       0.1
 5 C  py              6.3       0.5       2.0       5.8       1.2       5.8
 6 Cl s               0.5       1.2       2.6       0.2       2.0       1.0
 6 Cl px              0.0       0.5       2.9       0.9       4.7       4.1
 6 Cl py              0.6       0.3       0.4       0.3       1.2       0.0
 7 Cl s               0.5       1.2       2.6       0.2       2.0       1.0
 7 Cl px              0.0       0.5       2.9       0.9       4.7       4.1
 7 Cl py              0.6       0.3       0.4       0.3       1.2       0.0
 8 O  s               0.0       0.0       0.8       0.8       0.0       0.0
 8 O  px              0.5      14.6       0.0       0.0       7.5       0.0
 8 O  py              0.0       0.0       0.3       5.1       0.0       0.0
 9 C  s               0.8       0.2       1.3       0.2       0.0       0.3
[...]
15 O  dyz             0.0      34.4       0.0       0.0       0.0       0.0
15 O  dx2y2           0.0       0.0       0.0       0.0       7.4       0.0
15 O  dxy             0.0       0.0       0.2       0.0       0.0       0.0

                    270       271       272       273       274       275   
                   3.06124   3.14367   3.21145   3.37476   3.55207   3.66613
                   0.00000   0.00000   0.00000   0.00000   0.00000   0.00000
                  --------  --------  --------  --------  --------  --------
 0 C  s               0.6       0.0       0.3       0.0       0.1       0.1
 0 C  px              0.0       0.3       0.1       0.0       0.3       0.0
 0 C  dz2             0.6       0.0       0.2       0.0       0.0       0.0
 0 C  dx2y2           5.0       0.2       6.7       0.5       0.2       2.0
 0 C  dxy             0.3       0.9       0.3       0.0       0.7       0.1
 1 C  s               1.3       0.1       0.3       1.2       0.2       0.2
 1 C  px              0.2       0.7       0.0       1.1       0.2       0.6
 1 C  py              0.4       0.5       0.1       0.1       0.1       0.8
 1 C  dz2             1.1       0.3       0.1       0.3       0.2       0.1
 1 C  dx2y2           0.0       1.4       5.3       1.4       2.4       2.7
 1 C  dxy             2.0       1.4       2.4       1.1       7.4       4.3
 2 C  s               1.3       0.1       0.3       1.2       0.2       0.2
 2 C  px              0.2       0.7       0.0       1.1       0.2       0.6
 2 C  py              0.4       0.5       0.1       0.1       0.1       0.8
 2 C  dz2             1.1       0.3       0.1       0.3       0.2       0.1
 2 C  dx2y2           0.0       1.4       5.3       1.4       2.4       2.7
 2 C  dxy             2.0       1.4       2.4       1.1       7.4       4.3
 3 C  s               0.6       0.0       0.3       0.0       0.1       0.1
 3 C  px              0.0       0.3       0.1       0.0       0.3       0.0
 3 C  dz2             0.6       0.0       0.2       0.0       0.0       0.0
 3 C  dx2y2           5.0       0.2       6.7       0.5       0.2       2.0
 3 C  dxy             0.3       0.9       0.3       0.0       0.7       0.1
 4 C  s               0.6       0.1       0.7       0.0       0.0       0.1
 4 C  dz2             0.6       0.0       0.4       0.0       0.0       0.0
 4 C  dx2y2           2.4       0.0       1.1       0.0       0.2       0.2
 4 C  dxy             4.5       0.1       5.1       0.0       0.0       0.7
 5 C  s               0.6       0.1       0.7       0.0       0.0       0.1
 5 C  dz2             0.6       0.0       0.4       0.0       0.0       0.0
 5 C  dx2y2           2.4       0.0       1.1       0.0       0.2       0.2
 5 C  dxy             4.5       0.1       5.1       0.0       0.0       0.7
 8 O  s               0.0       2.9       0.2       0.0       1.0       0.0
 8 O  px              1.2       0.0       0.0       3.4       0.0       3.3
 8 O  py              0.0       0.1       0.3       0.0       0.2       0.0
 8 O  dz2             0.0      12.0       0.7       0.0       2.2       0.0
 8 O  dx2y2           0.0      22.5       1.1       0.0      22.3       0.0
 8 O  dxy             8.5       0.0       0.0      34.8       0.0      22.7
 9 C  s               1.3       0.1       0.3       1.2       0.2       0.2
 9 C  px              0.2       0.7       0.0       1.1       0.2       0.6
 9 C  py              0.4       0.5       0.1       0.1       0.1       0.8
 9 C  dz2             1.1       0.3       0.1       0.3       0.2       0.1
 9 C  dx2y2           0.0       1.4       5.3       1.4       2.4       2.7
 9 C  dxy             2.0       1.4       2.4       1.1       7.4       4.3
10 C  s               0.6       0.0       0.3       0.0       0.1       0.1
10 C  px              0.0       0.3       0.1       0.0       0.3       0.0
10 C  dz2             0.6       0.0       0.2       0.0       0.0       0.0
10 C  dx2y2           5.0       0.2       6.7       0.5       0.2       2.0
10 C  dxy             0.3       0.9       0.3       0.0       0.7       0.1
11 C  s               0.6       0.1       0.7       0.0       0.0       0.1
11 C  dz2             0.6       0.0       0.4       0.0       0.0       0.0
11 C  dx2y2           2.4       0.0       1.1       0.0       0.2       0.2
11 C  dxy             4.5       0.1       5.1       0.0       0.0       0.7
12 C  s               0.6       0.1       0.7       0.0       0.0       0.1
12 C  dz2             0.6       0.0       0.4       0.0       0.0       0.0
12 C  dx2y2           2.4       0.0       1.1       0.0       0.2       0.2
12 C  dxy             4.5       0.1       5.1       0.0       0.0       0.7
13 C  s               0.6       0.0       0.3       0.0       0.1       0.1
13 C  px              0.0       0.3       0.1       0.0       0.3       0.0
13 C  dz2             0.6       0.0       0.2       0.0       0.0       0.0
13 C  dx2y2           5.0       0.2       6.7       0.5       0.2       2.0
13 C  dxy             0.3       0.9       0.3       0.0       0.7       0.1
14 C  s               1.3       0.1       0.3       1.2       0.2       0.2
14 C  px              0.2       0.7       0.0       1.1       0.2       0.6
14 C  py              0.4       0.5       0.1       0.1       0.1       0.8
14 C  dz2             1.1       0.3       0.1       0.3       0.2       0.1
14 C  dx2y2           0.0       1.4       5.3       1.4       2.4       2.7
14 C  dxy             2.0       1.4       2.4       1.1       7.4       4.3
15 O  s               0.0       2.9       0.2       0.0       1.0       0.0
15 O  px              1.2       0.0       0.0       3.4       0.0       3.3
15 O  py              0.0       0.1       0.3       0.0       0.2       0.0
15 O  dz2             0.0      12.0       0.7       0.0       2.2       0.0
15 O  dx2y2           0.0      22.5       1.1       0.0      22.3       0.0
15 O  dxy             8.5       0.0       0.0      34.8       0.0      22.7
18 H  s               0.2       0.0       0.3       0.0       0.0       0.1
19 H  s               0.2       0.0       0.3       0.0       0.0       0.1
20 H  s               0.2       0.0       0.3       0.0       0.0       0.1
21 H  s               0.2       0.0       0.3       0.0       0.0       0.1



                      *****************************
                      * MAYER POPULATION ANALYSIS *
                      *****************************

  NA   - Mulliken gross atomic population
  ZA   - Total nuclear charge
  QA   - Mulliken gross atomic charge
  VA   - Mayer's total valence
  BVA  - Mayer's bonded valence
  FA   - Mayer's free valence

  ATOM       NA         ZA         QA         VA         BVA        FA
  0 C      6.2296     6.0000    -0.2296     3.8466     3.8466    -0.0000
  1 C      5.7758     6.0000     0.2242     3.8301     3.8301     0.0000
  2 C      5.7758     6.0000     0.2242     3.8301     3.8301    -0.0000
  3 C      6.2296     6.0000    -0.2296     3.8466     3.8466     0.0000
  4 C      5.8976     6.0000     0.1024     3.9354     3.9354    -0.0000
  5 C      5.8976     6.0000     0.1024     3.9353     3.9353    -0.0000
  6 Cl    17.0490    17.0000    -0.0490     1.2122     1.2122     0.0000
  7 Cl    17.0490    17.0000    -0.0490     1.2122     1.2122     0.0000
  8 O      8.2042     8.0000    -0.2042     2.3047     2.3047    -0.0000
  9 C      5.7758     6.0000     0.2242     3.8301     3.8301     0.0000
 10 C      6.2296     6.0000    -0.2296     3.8466     3.8466     0.0000
 11 C      5.8976     6.0000     0.1024     3.9353     3.9353    -0.0000
 12 C      5.8976     6.0000     0.1024     3.9354     3.9354    -0.0000
 13 C      6.2296     6.0000    -0.2296     3.8466     3.8466    -0.0000
 14 C      5.7758     6.0000     0.2242     3.8301     3.8301     0.0000
 15 O      8.2042     8.0000    -0.2042     2.3047     2.3047     0.0000
 16 Cl    17.0490    17.0000    -0.0490     1.2123     1.2123    -0.0000
 17 Cl    17.0490    17.0000    -0.0490     1.2122     1.2122     0.0000
 18 H      0.9459     1.0000     0.0541     0.9870     0.9870    -0.0000
 19 H      0.9458     1.0000     0.0542     0.9870     0.9870     0.0000
 20 H      0.9458     1.0000     0.0542     0.9870     0.9870     0.0000
 21 H      0.9458     1.0000     0.0542     0.9870     0.9870    -0.0000

  Mayer bond orders larger than 0.100000
B(  0-C ,  1-C ) :   1.3270 B(  0-C ,  3-C ) :   0.1248 B(  0-C ,  5-C ) :   1.3064 
B(  0-C , 18-H ) :   0.9824 B(  1-C ,  2-C ) :   1.2691 B(  1-C , 15-O ) :   1.0582 
B(  2-C ,  3-C ) :   1.3270 B(  2-C ,  8-O ) :   1.0582 B(  3-C ,  4-C ) :   1.3064 
B(  3-C , 19-H ) :   0.9824 B(  4-C ,  5-C ) :   1.4292 B(  4-C ,  7-Cl) :   1.0311 
B(  5-C ,  6-Cl) :   1.0312 B(  8-O ,  9-C ) :   1.0582 B(  9-C , 10-C ) :   1.3270 
B(  9-C , 14-C ) :   1.2691 B( 10-C , 11-C ) :   1.3064 B( 10-C , 13-C ) :   0.1248 
B( 10-C , 20-H ) :   0.9824 B( 11-C , 12-C ) :   1.4292 B( 11-C , 17-Cl) :   1.0311 
B( 12-C , 13-C ) :   1.3064 B( 12-C , 16-Cl) :   1.0312 B( 13-C , 14-C ) :   1.3270 
B( 13-C , 21-H ) :   0.9824 B( 14-C , 15-O ) :   1.0582 

-------
TIMINGS
-------

Total SCF time: 0 days 0 hours 0 min 11 sec 

Total time                  ....      11.903 sec
Sum of individual times     ....      11.496 sec  ( 96.6%)

SCF preparation             ....       0.196 sec  (  1.6%)
Fock matrix formation       ....      10.457 sec  ( 87.9%)
  Startup                   ....       0.051 sec  (  0.5% of F)
  Split-RI-J                ....       5.499 sec  ( 52.6% of F)
  XC integration            ....       4.477 sec  ( 42.8% of F)
    XC Preparation          ....       0.000 sec  (  0.0% of XC)
    Basis function eval.    ....       1.498 sec  ( 33.5% of XC)
    Density eval.           ....       0.881 sec  ( 19.7% of XC)
    XC-Functional eval.     ....       0.307 sec  (  6.9% of XC)
    XC-Potential eval.      ....       1.227 sec  ( 27.4% of XC)
Diagonalization             ....       0.000 sec  (  0.0%)
Density matrix formation    ....       0.181 sec  (  1.5%)
Total Energy calculation    ....       0.025 sec  (  0.2%)
Population analysis         ....       0.133 sec  (  1.1%)
Orbital Transformation      ....       0.064 sec  (  0.5%)
Orbital Orthonormalization  ....       0.000 sec  (  0.0%)
DIIS solution               ....       0.340 sec  (  2.9%)
  MO trafo                  ....       0.000 sec  (  0.0 % of DIIS)
  Orb grad                  ....       0.000 sec  (  0.0 % of DIIS)
  Energy W gradient         ....       0.000 sec  (  0.0 % of DIIS)
  DIIS error                ....       0.011 sec  (  3.3 % of DIIS)
  DIIS work                 ....       0.284 sec  ( 83.5 % of DIIS)
  Form Q                    ....       0.000 sec  (  0.0 % of DIIS)
  Form QpQm                 ....       0.000 sec  (  0.0 % of DIIS)
  Exp/Cayley                ....       0.000 sec  (  0.0 % of DIIS)
  Orb update                ....       0.000 sec  (  0.0 % of DIIS)
  Wake-sleep                ....       0.013 sec  (  3.9 % of DIIS)
SOSCF solution              ....       0.100 sec  (  0.8%)
  MO trafo                  ....       0.053 sec  ( 52.8 % of SOSCF)
  Orb grad                  ....       0.001 sec  (  1.0 % of SOSCF)
  Rot update                ....       0.019 sec  ( 18.8 % of SOSCF)
  Step                      ....       0.027 sec  ( 27.2 % of SOSCF)
Finished LeanSCF after  12.0 sec

Maximum memory used throughout the entire LEANSCF-calculation: 24.1 MB


-------------------------------------------------------------------------------
                          DFT DISPERSION CORRECTION                            
                                                                               
                                DFTD4 V3.4.0                                   
-------------------------------------------------------------------------------
The PBE functional is recognized
Active option DFTDOPT                   ...         5   

-------------------------   ----------------
Dispersion correction           -0.039459374
-------------------------   ----------------

------------------   -----------------
gCP correction             0.079993685
------------------   -----------------

-------------------------   --------------------
FINAL SINGLE POINT ENERGY     -2448.391895111115
-------------------------   --------------------


------------------------------------------------------------------------------
                              ORCA PROPERTY CALCULATIONS
------------------------------------------------------------------------------

GBWName                                 ... sp.gbw
Number of atoms                         ...     22
Number of basis functions               ...    276
Max core memory                         ...   1024 MB

Electric properties:
Dipole moment                           ... YES
Quadrupole moment                       ...  NO
Static polarizability (Dipole/Dipole)   ...  NO
Static polarizability (Dipole/Quad.)    ...  NO
Static polarizability (Quad./Quad.)     ...  NO
Static polarizability (Velocity)        ...  NO

Atomic electric properties:
Dipole moment                           ...  NO
Quadrupole moment                       ...  NO
Static polarizability                   ...  NO

Choice of electric origin               ... Center of mass
Position of electric origin             ...    -0.000000     0.000000    -0.000000

General magnetic properties:
Magnetizability                         ...  NO

EPR properties:
g-Tensor (aka g-matrix)                 ...  NO
Zero-Field splitting spin-orbit         ...  NO
Zero-field splitting spin-spin          ...  NO
Hyperfine couplings                     ...  NO (   0 nuclei)
Quadrupole couplings                    ...  NO (   0 nuclei)
Contact density                         ...  NO (   0 nuclei)

NMR properties:
Chemical shifts                         ...  NO (   0 nuclei)
Spin-rotation constants                 ...  NO (   0 nuclei)
Spin-spin couplings                     ...  NO (   0 nuclei,    0 pairs)

Choice of magnetic origin               ... GIAO
Position of magnetic origin             ...     0.000000     0.000000     0.000000

Properties with geometric perturbations:
SCF Hessian                             ...  NO
IR spectrum                             ...  NO
VCD spectrum                            ...  NO
X-ray spectroscopy properties:
SCF XES/XAS/RIXS spectra                ...  NO


-------------
DIPOLE MOMENT
-------------

Method             : SCF
Type of density    : Electron Density
Multiplicity       :   1
Irrep              :   0
Energy             : -2448.4324294224616096 Eh
Relativity type    : 
Basis              : AO
                                X                 Y                 Z
Electronic contribution:     -0.000070053      -0.000072300      -0.019145010
Nuclear contribution   :     -0.000014405       0.000008718       0.019769295
                        -----------------------------------------
Total Dipole Moment    :     -0.000084458      -0.000063582       0.000624286
                        -----------------------------------------
Magnitude (a.u.)       :      0.000633173
Magnitude (Debye)      :      0.001609399



--------------------
Rotational spectrum 
--------------------
 
Rotational constants in cm-1:             0.029137             0.003679             0.003266 
Rotational constants in MHz :           873.519954           110.280368            97.918437 

Dipole components along the rotational axes: 
x,y,z [a.u.] :    -0.000084    -0.000064     0.000624 
x,y,z [Debye]:    -0.000215    -0.000162     0.001587 

 

Dipole moment calculation done in   0.0 sec 

Maximum memory used throughout the entire PROP-calculation: 16.8 MB

--------------------------------
SUGGESTED CITATIONS FOR THIS RUN
--------------------------------

Below you find a list of papers that are relevant to this ORCA run
We neither can nor want to force you to cite these papers, but we appreciate if you do
You receive ORCA, which is the product of decades of hard work by many enthusiastic individuals, for free
The only thing we kindly ask in return is that you cite our papers,
We deeply appreciate it, if you show your appreciation for ORCA by not just citing the generic ORCA reference.

Please note that relegating all ORCA citations to the supporting information does *not* help us.
SI sections are not indexed - citations you put there will not count into any citation statistics
But we need these citations in order to attract the funding resources that allow us to do what we are doing

Therefore, if you are a happy ORCA user, please consider citing a few of the papers listed below in the main body of your paper

In addition to the list printed below, the program has created the file sp.bibtex that contains the list in bibtex format
You can import this file easily into all common literature databanks and citation aid programs


List of essential papers. We consider these as the minimum necessary citations

  1. Neese,F.
     Software update: the ORCA program system, version 5.0
     WIRES Comput. Molec. Sci., 2022 12(1)e1606
     doi.org/10.1002/wcms.1606

List of papers to cite with high priority. The work reported in these papers was absolutely
necessary for this run to complete.
Our perspective: the developers of density functionals and basis sets usually get cited in chemistry papers
Good! But without the algorithms to do something with them, the functionals or basis sets would not do anything.
Hence, in our opinion, the algorithm design and method developments papers are equally worthy of getting cited

  1. Neese,F.
     An improvement of the resolution of the identity approximation for the formation of the Coulomb matrix
     J. Comp. Chem., 2003 24(14)1740-1747
     doi.org/10.1002/jcc.10318
  2. Neese,F.
     The SHARK Integral Generation and Digestion System
     J. Comp. Chem., 2022  1-16
     doi.org/10.1002/jcc.26942
  3. Caldeweyher,E.; Bannwarth,C.; Grimme,S.
     Extension of the D3 dispersion coefficient model
     J. Chem. Phys., 2017 147 034112-XXXX
     doi.org/10.1063/1.4993215
  4. Caldeweyher,E.; Ehlert,S.; Hansen,A.; Neugebauer,H.; Spicher,S.; Bannwarth,C.; Grimme,S.
     A generally applicable atomic-charge dependent London dispersion correction
     J. Chem. Phys., 2019 150 154122-XXXX
     doi.org/10.1063/1.5090222
  5. Caldeweyher,E.; Mewes,J.; Ehlert,S.; Grimme,S.
     Extension and evaluation of the D4 London-dispersion model for periodic systems
     Phys. Chem. Chem. Phys., 2020 22(16)8499-8512
     doi.org/10.1039/D0CP00502A

List of suggested additional citations. These are papers that are important in the 'surrounding' of 
of this run, or papers that preceded the highly important papers. If you like your results we are grateful for a citation.

  1. Neese,F.
     The ORCA program system
     WIRES Comput. Molec. Sci., 2012 2(1)73-78
     doi.org/10.1002/wcms.81
  2. Neese,F.
     Software update: the ORCA program system, version 4.0
     WIRES Comput. Molec. Sci., 2018 8(1)1-6
     doi.org/10.1002/wcms.1327
  3. Neese,F.; Wennmohs,F.; Becker,U.; Riplinger,C.
     The ORCA quantum chemistry program package
     J. Chem. Phys., 2020 152 Art. No. L224108
     doi.org/10.1063/5.0004608

List of optional additional citations

  1. Neese,F.
     Approximate second-order SCF convergence for spin unrestricted wavefunctions
     Chem. Phys. Lett., 2000 325(1-3)93-98
     doi.org/10.1016/s0009-2614(00)00662-x

Timings for individual modules:

Sum of individual times          ...       14.307 sec (=   0.238 min)
Startup calculation              ...        0.992 sec (=   0.017 min)   6.9 %
SCF iterations                   ...       13.215 sec (=   0.220 min)  92.4 %
Property calculations            ...        0.100 sec (=   0.002 min)   0.7 %
                             ****ORCA TERMINATED NORMALLY****
TOTAL RUN TIME: 0 days 0 hours 0 minutes 15 seconds 307 msec
