 Entering Gaussian System
 *********************************************
 Gaussian 98:
 frequency output generated by the xtb code
 *********************************************
                         Standard orientation:
 --------------------------------------------------------------------
  Center     Atomic     Atomic              Coordinates (Angstroms)
  Number     Number      Type              X           Y           Z
 --------------------------------------------------------------------
    1          6             0       -1.697319    0.408715   -0.019584
    2          6             0       -0.620664   -0.653865    0.072682
    3         16             0        1.041146    0.139278   -0.027044
    4          1             0       -2.678489   -0.055903    0.038937
    5          1             0       -1.597043    1.122949    0.795043
    6          1             0       -1.619053    0.948181   -0.961214
    7          1             0       -0.691306   -1.359134   -0.753955
    8          1             0       -0.669027   -1.182199    1.023577
    9          1             0        1.739599   -0.983854    0.078344
 --------------------------------------------------------------------
     1 basis functions        1 primitive gaussians
     1 alpha electrons        1 beta electrons
 
 Harmonic frequencies (cm**-1), IR intensities (km*mol⁻¹),
 Raman scattering activities (A**4/amu), Raman depolarization ratios,
 reduced masses (AMU), force constants (mDyne/A) and normal coordinates:
                      1                      2                      3
                        a                      a                      a 
 Frequencies --   146.9334               220.4779               288.4237
 Red. masses --     2.3031                 2.3258                14.3911
 Frc consts  --     0.0000                 0.0000                 0.0000
 IR Inten    --    55.0626                 0.0010                 5.9562
 Raman Activ --     0.0000                 0.0000                 0.0000
 Depolar     --     0.0000                 0.0000                 0.0000
 Atom AN      X      Y      Z        X      Y      Z        X      Y      Z
   1   6    -0.00  -0.01  -0.13     0.00  -0.00  -0.03    -0.55  -0.10   0.02
   2   6     0.00   0.01   0.14     0.00   0.02   0.25    -0.05   0.39  -0.04
   3  16     0.00   0.02   0.17    -0.00  -0.01  -0.14     0.50  -0.14   0.01
   4   1     0.00   0.00   0.02    -0.01  -0.06  -0.58    -0.07  -0.22   0.02
   5   1     0.01   0.07  -0.10    -0.37  -0.26   0.26    -0.29  -0.02   0.01
   6   1    -0.01  -0.09  -0.09     0.37   0.31   0.20    -0.28  -0.02   0.00
   7   1     0.02  -0.03   0.07     0.00  -0.04   0.11     0.01   0.10  -0.01
   8   1    -0.02   0.04   0.06     0.00   0.06   0.10     0.01   0.10  -0.01
   9   1    -0.01  -0.09  -0.94    -0.00  -0.01  -0.09    -0.10  -0.14   0.01
                      4                      5                      6
                        a                      a                      a 
 Frequencies --   674.7577               800.8388               810.6999
 Red. masses --    15.2633                 2.3822                 3.0131
 Frc consts  --     0.0000                 0.0000                 0.0000
 IR Inten    --     1.6188                 2.9919                 8.8696
 Raman Activ --     0.0000                 0.0000                 0.0000
 Depolar     --     0.0000                 0.0000                 0.0000
 Atom AN      X      Y      Z        X      Y      Z        X      Y      Z
   1   6    -0.18   0.04  -0.00    -0.00  -0.01  -0.08     0.10  -0.16   0.02
   2   6    -0.57  -0.44   0.05    -0.00  -0.03  -0.32    -0.08  -0.05   0.01
   3  16     0.46   0.22  -0.03     0.00   0.01   0.08     0.08   0.21  -0.02
   4   1    -0.16   0.24  -0.02     0.00   0.01   0.13    -0.05   0.12  -0.01
   5   1     0.09  -0.00  -0.00     0.23  -0.25   0.18     0.12  -0.05  -0.00
   6   1     0.09  -0.00   0.00    -0.22   0.28   0.13     0.13  -0.05   0.01
   7   1    -0.11  -0.10   0.00     0.01  -0.45   0.30     0.05  -0.01  -0.00
   8   1    -0.11  -0.10   0.02    -0.00   0.50   0.20     0.05  -0.02   0.00
   9   1     0.17   0.10  -0.01    -0.01  -0.01  -0.02    -0.80  -0.45   0.06
                      7                      8                      9
                        a                      a                      a 
 Frequencies --  1022.5844              1023.2486              1098.8810
 Red. masses --     5.2496                 2.7901                 8.6414
 Frc consts  --     0.0000                 0.0000                 0.0000
 IR Inten    --     6.8963                 3.4900                 0.0850
 Raman Activ --     0.0000                 0.0000                 0.0000
 Depolar     --     0.0000                 0.0000                 0.0000
 Atom AN      X      Y      Z        X      Y      Z        X      Y      Z
   1   6     0.47  -0.03   0.00    -0.01   0.02   0.21    -0.17   0.50  -0.05
   2   6    -0.36   0.01  -0.01     0.01  -0.03  -0.30     0.33  -0.54   0.05
   3  16     0.06   0.09  -0.01    -0.00   0.01   0.09     0.01   0.07  -0.01
   4   1     0.34  -0.49   0.04    -0.01   0.00  -0.15     0.09  -0.16   0.01
   5   1    -0.20  -0.01   0.03    -0.20   0.22  -0.12    -0.28   0.14   0.00
   6   1    -0.19  -0.03  -0.03     0.21  -0.24  -0.08    -0.28   0.14  -0.02
   7   1    -0.32   0.04  -0.01    -0.52  -0.16   0.09     0.00  -0.14   0.01
   8   1    -0.29   0.05   0.01     0.54   0.17   0.04     0.00  -0.14   0.01
   9   1    -0.05  -0.02   0.00     0.00   0.00  -0.00    -0.17  -0.10   0.01
                     10                     11                     12
                        a                      a                      a 
 Frequencies --  1222.8980              1243.6470              1401.7493
 Red. masses --     3.4361                 3.4790                 2.9169
 Frc consts  --     0.0000                 0.0000                 0.0000
 IR Inten    --     0.0003                39.8885                 4.5719
 Raman Activ --     0.0000                 0.0000                 0.0000
 Depolar     --     0.0000                 0.0000                 0.0000
 Atom AN      X      Y      Z        X      Y      Z        X      Y      Z
   1   6    -0.00  -0.04  -0.38     0.12   0.15  -0.02     0.31  -0.27   0.02
   2   6     0.00   0.03   0.27    -0.42  -0.01   0.01    -0.02  -0.08   0.01
   3  16     0.00   0.00   0.03    -0.03  -0.05   0.01    -0.01  -0.01   0.00
   4   1     0.00   0.01   0.15     0.13  -0.18   0.02    -0.20   0.46  -0.04
   5   1     0.21  -0.26   0.11    -0.07  -0.01   0.04    -0.42   0.20  -0.14
   6   1    -0.21   0.28   0.06    -0.07  -0.01  -0.04    -0.41   0.22   0.11
   7   1    -0.46   0.20  -0.06     0.60  -0.01  -0.04     0.04   0.17  -0.15
   8   1     0.46  -0.21  -0.03     0.60  -0.00   0.03     0.04   0.20   0.11
   9   1    -0.00   0.00   0.00     0.03   0.01  -0.00     0.01   0.00  -0.00
                     13                     14                     15
                        a                      a                      a 
 Frequencies --  1441.2925              1479.6842              1492.8616
 Red. masses --     2.1502                 1.4908                 1.5645
 Frc consts  --     0.0000                 0.0000                 0.0000
 IR Inten    --     1.0685                 5.1041                 1.0878
 Raman Activ --     0.0000                 0.0000                 0.0000
 Depolar     --     0.0000                 0.0000                 0.0000
 Atom AN      X      Y      Z        X      Y      Z        X      Y      Z
   1   6    -0.14   0.07  -0.00     0.00   0.02   0.20     0.12   0.18  -0.02
   2   6     0.05  -0.28   0.03     0.00   0.00   0.05     0.04   0.02  -0.00
   3  16    -0.01  -0.01   0.00    -0.00   0.00   0.00    -0.00  -0.00   0.00
   4   1     0.05  -0.15   0.01    -0.01  -0.07  -0.71    -0.11   0.27  -0.02
   5   1     0.16  -0.06   0.04     0.46   0.05  -0.09    -0.20  -0.45   0.43
   6   1     0.16  -0.07  -0.03    -0.47  -0.07  -0.07    -0.20  -0.53  -0.33
   7   1    -0.01   0.48  -0.42    -0.02   0.02  -0.00    -0.02   0.02  -0.01
   8   1    -0.01   0.55   0.32     0.02  -0.02  -0.00    -0.02   0.02   0.01
   9   1    -0.01  -0.00   0.00     0.00  -0.00  -0.00     0.01   0.00  -0.00
                     16                     17                     18
                        a                      a                      a 
 Frequencies --  2481.0394              2986.7318              2992.1454
 Red. masses --     1.9589                 2.0337                 1.4572
 Frc consts  --     0.0000                 0.0000                 0.0000
 IR Inten    --    79.7938                16.8022                12.9541
 Raman Activ --     0.0000                 0.0000                 0.0000
 Depolar     --     0.0000                 0.0000                 0.0000
 Atom AN      X      Y      Z        X      Y      Z        X      Y      Z
   1   6    -0.00  -0.00   0.00     0.00   0.00   0.04    -0.01  -0.02   0.00
   2   6    -0.00  -0.00   0.00    -0.00  -0.03  -0.30     0.01   0.20  -0.03
   3  16    -0.09   0.15  -0.01    -0.00  -0.00  -0.00     0.00   0.00  -0.00
   4   1     0.00  -0.00   0.00    -0.00   0.00   0.01     0.04   0.02  -0.00
   5   1     0.00   0.00   0.00    -0.01  -0.07  -0.08     0.00   0.03   0.04
   6   1     0.00   0.00  -0.00     0.01   0.05  -0.09     0.00   0.03  -0.05
   7   1    -0.00   0.00   0.00     0.04   0.45   0.51    -0.04  -0.41  -0.54
   8   1    -0.00   0.00  -0.00    -0.02  -0.33   0.56    -0.03  -0.31   0.63
   9   1     0.51  -0.84   0.08     0.00   0.00   0.00     0.00  -0.00   0.00
                     19                     20                     21
                        a                      a                      a 
 Frequencies --  3030.2050              3032.5552              3038.7757
 Red. masses --     1.9627                 1.9518                 1.2441
 Frc consts  --     0.0000                 0.0000                 0.0000
 IR Inten    --    46.5913                48.8144                16.0800
 Raman Activ --     0.0000                 0.0000                 0.0000
 Depolar     --     0.0000                 0.0000                 0.0000
 Atom AN      X      Y      Z        X      Y      Z        X      Y      Z
   1   6    -0.00  -0.03  -0.29    -0.21  -0.20   0.02     0.10  -0.11   0.01
   2   6    -0.00  -0.01  -0.05    -0.01  -0.02   0.00     0.00  -0.01   0.00
   3  16    -0.00  -0.00  -0.00     0.00  -0.00   0.00     0.00  -0.00   0.00
   4   1    -0.00  -0.01  -0.04     0.72   0.34  -0.04    -0.49  -0.25   0.03
   5   1     0.07   0.45   0.49     0.01   0.22   0.30     0.07   0.37   0.44
   6   1    -0.06  -0.34   0.57     0.00   0.16  -0.34     0.06   0.27  -0.51
   7   1     0.01   0.06   0.08     0.00   0.03   0.05     0.00   0.01   0.02
   8   1    -0.01  -0.05   0.09     0.00   0.02  -0.05     0.00   0.01  -0.02
   9   1     0.00   0.00   0.00    -0.00   0.00  -0.00    -0.00   0.00  -0.00
