
                                 *****************
                                 * O   R   C   A *
                                 *****************

                                            #,                                       
                                            ###                                      
                                            ####                                     
                                            #####                                    
                                            ######                                   
                                           ########,                                 
                                     ,,################,,,,,                         
                               ,,#################################,,                 
                          ,,##########################################,,             
                       ,#########################################, ''#####,          
                    ,#############################################,,   '####,        
                  ,##################################################,,,,####,       
                ,###########''''           ''''###############################       
              ,#####''   ,,,,##########,,,,          '''####'''          '####       
            ,##' ,,,,###########################,,,                        '##       
           ' ,,###''''                  '''############,,,                           
         ,,##''                                '''############,,,,        ,,,,,,###''
      ,#''                                            '''#######################'''  
     '                                                          ''''####''''         
             ,#######,   #######,   ,#######,      ##                                
            ,#'     '#,  ##    ##  ,#'     '#,    #''#        ,####,   ,####,        
            ##       ##  ##   ,#'  ##            #'  '#       #'       #'  '#        
            ##       ##  #######   ##           ,######,      #####,   #    #        
            '#,     ,#'  ##    ##  '#,     ,#' ,#      #,     #,   #   #,  ,#        
             '#######'   ##     ##  '#######'  #'      '#     '####' # '####'        



                #########################################################
                #                        -***-                          #
                #          Department of theory and spectroscopy        #
                #                                                       #
                #                      Frank Neese                      #
                #                                                       #
                #     Directorship, Architecture, Infrastructure        #
                #                    SHARK, DRIVERS                     #
                #        Core code/Algorithms in most modules           #
                #                                                       #
                #        Max Planck Institute fuer Kohlenforschung      #
                #                Kaiser Wilhelm Platz 1                 #
                #                 D-45470 Muelheim/Ruhr                 #
                #                      Germany                          #
                #                                                       #
                #                  All rights reserved                  #
                #                        -***-                          #
                #########################################################


                         Program Version 6.0.0  -   RELEASE  -


 With contributions from (in alphabetic order):
   Daniel Aravena         : Magnetic Suceptibility
   Michael Atanasov       : Ab Initio Ligand Field Theory (pilot matlab implementation)
   Alexander A. Auer      : GIAO ZORA, VPT2 properties, NMR spectrum
   Ute Becker             : All parallelization in ORCA, NUMFREQ, NUMCALC
   Giovanni Bistoni       : ED, misc. LED, open-shell LED, HFLD
   Martin Brehm           : Molecular dynamics
   Dmytro Bykov           : pre 5.0 version of the SCF Hessian
   Marcos Casanova-Páez   : Triplet and SCS-CIS(D). UHF-(DLPNO)-IP/EA/STEOM-CCSD. UHF-CVS-IP/STEOM-CCSD
   Vijay G. Chilkuri      : MRCI spin determinant printing, contributions to CSF-ICE
   Pauline Colinet        : FMM embedding
   Dipayan Datta          : RHF DLPNO-CCSD density
   Achintya Kumar Dutta   : EOM-CC, STEOM-CC
   Nicolas Foglia         : Exact transition moments, OPA infrastructure, MCD improvements
   Dmitry Ganyushin       : Spin-Orbit,Spin-Spin,Magnetic field MRCI
   Miquel Garcia          : C-PCM and meta-GGA Hessian, CCSD/C-PCM, Gaussian charge scheme
   Tiago L. C. Gouveia    : GS-ROHF, GS-ROCIS
   Yang Guo               : DLPNO-NEVPT2, F12-NEVPT2, CIM, IAO-localization
   Andreas Hansen         : Spin unrestricted coupled pair/coupled cluster methods
   Ingolf Harden          : AUTO-CI MPn and infrastructure 
   Benjamin Helmich-Paris : MC-RPA, TRAH-(SCF,CASSCF), AVAS, COSX integrals, SCF dyn. polar.
   Lee Huntington         : MR-EOM, pCC
   Robert Izsak           : Overlap fitted RIJCOSX, COSX-SCS-MP3, EOM
   Riya Kayal             : Wick's Theorem for AUTO-CI, AUTO-CI UHF-CCSDT
   Emily Kempfer          : AUTO-CI, RHF CISDT and CCSDT
   Christian Kollmar      : KDIIS, OOCD, Brueckner-CCSD(T), CCSD density, CASPT2, CASPT2-K, improved NEVPT2
   Axel Koslowski         : Symmetry handling
   Simone Kossmann        : Meta GGA functionals, TD-DFT gradient, OOMP2, (MP2 Hessian; deprecated post 5.0)
   Lucas Lang             : DCDCAS
   Marvin Lechner         : AUTO-CI (C++ implementation), FIC-MRCC
   Spencer Leger          : CASSCF response
   Dagmar Lenk            : GEPOL surface, SMD, ORCA-2-JSON
   Dimitrios Liakos       : Extrapolation schemes; Compound Job, initial MDCI parallelization
   Dimitrios Manganas     : Further ROCIS development; embedding schemes. LFT, Crystal Embedding
   Dimitrios Pantazis     : SARC Basis sets
   Anastasios Papadopoulos: AUTO-CI, single reference methods and gradients
   Taras Petrenko         : pre 6.0 DFT Hessian and TD-DFT gradient, (ASA, deprecated), ECA, 1-Electron XAS/XES, NRVS
   Peter Pinski           : DLPNO-MP2, DLPNO-MP2 Gradient
   Christoph Reimann      : Effective Core Potentials
   Marius Retegan         : Local ZFS, SOC
   Christoph Riplinger    : Optimizer, TS searches, QM/MM, DLPNO-CCSD(T), (RO)-DLPNO pert. Triples
   Michael Roemelt        : Original ROCIS implementation
   Masaaki Saitow         : Open-shell DLPNO-CCSD energy and density
   Barbara Sandhoefer     : DKH picture change effects
   Kantharuban Sivalingam : CASSCF convergence/infrastructure, NEVPT2 and variants, FIC-MRCI
   Bernardo de Souza      : ESD, SOC TD-DFT
   Georgi Stoychev        : AutoAux, RI-MP2 NMR, DLPNO-MP2 response, X2C
   Van Anh Tran           : RI-MP2 g-tensors
   Willem Van den Heuvel  : Paramagnetic NMR
   Zikuan Wang            : NOTCH, Electric field optimization 
   Frank Wennmohs         : Technical directorship and infrastructure
   Hang Xu                : AUTO-CI-Response properties 


 We gratefully acknowledge several colleagues who have allowed us to
 interface, adapt or use parts of their codes:
   Stefan Grimme, W. Hujo, H. Kruse, P. Pracht,  : VdW corrections, initial TS optimization,
                  C. Bannwarth, S. Ehlert,         DFT functionals, gCP, sTDA/sTD-DF
                  L. Wittmann, M. Mueller
   Ed Valeev, F. Pavosevic, A. Kumar             : LibInt (2-el integral package), F12 methods
   Garnet Chan, S. Sharma, J. Yang, R. Olivares  : DMRG
   Ulf Ekstrom                                   : XCFun DFT Library
   Mihaly Kallay                                 : mrcc  (arbitrary order and MRCC methods)
   Frank Weinhold                                : gennbo (NPA and NBO analysis)
   Simon Mueller                                 : openCOSMO-RS
   Christopher J. Cramer and Donald G. Truhlar   : smd solvation model
   Lars Goerigk                                  : TD-DFT with DH, B97 family of functionals
   V. Asgeirsson, H. Jonsson                     : NEB implementation
   FAccTs GmbH                                   : IRC, NEB, NEB-TS, DLPNO-Multilevel, CI-OPT
                                                   MM, QMMM, 2- and 3-layer-ONIOM, Crystal-QMMM,
                                                   LR-CPCM, SF, NACMEs, symmetry and pop. for TD-DFT,
                                                   nearIR, NL-DFT gradient (VV10), updates on ESD,
                                                   ML-optimized integration grids, MBIS, APM,
                                                   GOAT, DOCKER, SOLVATOR, interface openCOSMO-RS
   S Lehtola, MJT Oliveira, MAL Marques          : LibXC Library
   Liviu Ungur et al                             : ANISO software


 Your calculation uses the libint2 library for the computation of 2-el integrals
 For citations please refer to: http://libint.valeyev.net

 Your ORCA version has been built with support for libXC version: 6.2.2
 For citations please refer to: https://libxc.gitlab.io

 This ORCA versions uses:
   CBLAS   interface :  Fast vector & matrix operations
   LAPACKE interface :  Fast linear algebra routines
   SCALAPACK package :  Parallel linear algebra routines
   Shared memory     :  Shared parallel matrices
   BLAS/LAPACK       :  OpenBLAS 0.3.27  USE64BITINT DYNAMIC_ARCH NO_AFFINITY SkylakeX SINGLE_THREADED
        Core in use  :  SkylakeX
   Copyright (c) 2011-2014, The OpenBLAS Project


Your calculation utilizes the geometrical counterpoise correction gCP
Please cite in your paper:
H.Kruse, S. Grimme J.Chem.Phys., 136, (2012), 154101 
   

Your calculation utilizes the atom-pairwise dispersion correction
based on EEQ partial charges (D4)


================================================================================

----- Orbital basis set information -----
Your calculation utilizes the basis: def2-SV(P)
   F. Weigend and R. Ahlrichs, Phys. Chem. Chem. Phys. 7, 3297 (2005).

----- AuxJ basis set information -----
Your calculation utilizes the auxiliary basis: def2/J
   F. Weigend, Phys. Chem. Chem. Phys. 8, 1057 (2006).

================================================================================
                                        WARNINGS
                       Please study these warnings very carefully!
================================================================================


================================================================================
                                       INPUT FILE
================================================================================
NAME = sp.inp
|  1> ! pbe def2-sv(p) def2/J RI DEFGRID1 loosescf d4 GCP(DFT/SV(P)) printgap
|  2> %output
|  3>     printlevel normal
|  4> end
|  5> * xyz 0 1
|  6> C 0.6035008351 1.4402940409 0.0082954614
|  7> C 1.5266073496 0.2015483993 0.0778776247
|  8> H 2.3955839868 0.3311495321 -0.5752907023
|  9> C 0.7434488636 -1.0391905153 -0.410479379
| 10> H 1.2161755002 -1.9337693295 0.0073118687
| 11> C -0.7042620818 -0.9544896404 0.1110088865
| 12> H -1.2581884956 -1.8518541276 -0.200935329
| 13> C -1.3855493151 0.2849173178 -0.5225270394
| 14> H -1.9016317648 -0.009390035 -1.4474418044
| 15> O -0.4441339861 1.2479766908 -0.9341547771
| 16> O -2.2847553454 0.7986300821 0.4084527444
| 17> O -0.6536415945 -0.8773889283 1.5120160519
| 18> O 0.7879871825 -1.1917237759 -1.8052150403
| 19> O 2.0466153823 0.0179474998 1.3679594388
| 20> H 1.1424424369 2.3252866867 -0.3261898046
| 21> H 0.182424552 1.6287724837 1.0021118875
| 22> H -2.7514385222 1.5621338372 0.0381921272
| 23> H -1.5142184449 -0.5590590774 1.8305591657
| 24> H 0.5265111031 -0.3576613314 -2.2248781378
| 25> H 1.3203672364 -0.2657673189 1.9495244894
| 26> *
| 27> 
| 28>                          ****END OF INPUT****
================================================================================

                       ****************************
                       * Single Point Calculation *
                       ****************************

---------------------------------
CARTESIAN COORDINATES (ANGSTROEM)
---------------------------------
  C      0.603501    1.440294    0.008295
  C      1.526607    0.201548    0.077878
  H      2.395584    0.331150   -0.575291
  C      0.743449   -1.039191   -0.410479
  H      1.216176   -1.933769    0.007312
  C     -0.704262   -0.954490    0.111009
  H     -1.258188   -1.851854   -0.200935
  C     -1.385549    0.284917   -0.522527
  H     -1.901632   -0.009390   -1.447442
  O     -0.444134    1.247977   -0.934155
  O     -2.284755    0.798630    0.408453
  O     -0.653642   -0.877389    1.512016
  O      0.787987   -1.191724   -1.805215
  O      2.046615    0.017947    1.367959
  H      1.142442    2.325287   -0.326190
  H      0.182425    1.628772    1.002112
  H     -2.751439    1.562134    0.038192
  H     -1.514218   -0.559059    1.830559
  H      0.526511   -0.357661   -2.224878
  H      1.320367   -0.265767    1.949524

----------------------------
CARTESIAN COORDINATES (A.U.)
----------------------------
  NO LB      ZA    FRAG     MASS         X           Y           Z
   0 C     6.0000    0    12.011    1.140451    2.721761    0.015676
   1 C     6.0000    0    12.011    2.884870    0.380871    0.147167
   2 H     1.0000    0     1.008    4.526998    0.625782   -1.087142
   3 C     6.0000    0    12.011    1.404915   -1.963785   -0.775694
   4 H     1.0000    0     1.008    2.298239   -3.654294    0.013817
   5 C     6.0000    0    12.011   -1.330862   -1.803724    0.209776
   6 H     1.0000    0     1.008   -2.377632   -3.499497   -0.379713
   7 C     6.0000    0    12.011   -2.618309    0.538416   -0.987433
   8 H     1.0000    0     1.008   -3.593563   -0.017745   -2.735269
   9 O     8.0000    0    15.999   -0.839292    2.358334   -1.765297
  10 O     8.0000    0    15.999   -4.317562    1.509192    0.771864
  11 O     8.0000    0    15.999   -1.235204   -1.658025    2.857296
  12 O     8.0000    0    15.999    1.489080   -2.252032   -3.411362
  13 O     8.0000    0    15.999    3.867543    0.033916    2.585069
  14 H     1.0000    0     1.008    2.158903    4.394155   -0.616409
  15 H     1.0000    0     1.008    0.344732    3.077934    1.893717
  16 H     1.0000    0     1.008   -5.199465    2.952005    0.072173
  17 H     1.0000    0     1.008   -2.861458   -1.056469    3.459255
  18 H     1.0000    0     1.008    0.994962   -0.675882   -4.204410
  19 H     1.0000    0     1.008    2.495132   -0.502227    3.684067

--------------------------------
INTERNAL COORDINATES (ANGSTROEM)
--------------------------------
 C      0   0   0     0.000000000000     0.00000000     0.00000000
 C      1   0   0     1.546433987969     0.00000000     0.00000000
 H      2   1   0     1.094781125622   110.61793391     0.00000000
 C      2   1   3     1.546370858319   109.03774769   241.40776725
 H      4   2   1     1.094664905083   108.44888313   202.85087514
 C      4   2   1     1.541100655601   108.95314950   321.07006822
 H      6   4   2     1.099730279831   109.41066272   182.06934747
 C      6   4   2     1.549725676272   108.57821013    63.96996488
 H      8   6   4     1.099283964822   109.64745615    92.21307284
 O      8   6   4     1.408255506662   111.87218957   336.71340620
 O      8   6   4     1.392550051875   107.79430004   213.13991829
 O      6   4   2     1.404039896528   107.86681748   302.00573110
 O      4   2   1     1.403758391726   112.63718710    85.77521635
 O      2   1   3     1.403007031857   111.55797099   117.30329205
 H      1   2   3     1.088829842740   111.68072342   337.31808973
 H      1   2   3     1.095673513587   109.04953418   216.52870476
 H     11   8   6     0.968413184653   110.26810884   181.66443567
 H     12   6   4     0.971285810031   108.25853029   163.18175541
 H     13   4   2     0.969611786658   109.14787834   308.53406256
 H     14   2   1     0.972701586229   108.13178613    70.19386854

---------------------------
INTERNAL COORDINATES (A.U.)
---------------------------
 C      0   0   0     0.000000000000     0.00000000     0.00000000
 C      1   0   0     2.922336721449     0.00000000     0.00000000
 H      2   1   0     2.068836504012   110.61793391     0.00000000
 C      2   1   3     2.922217423700   109.03774769   241.40776725
 H      4   2   1     2.068616879023   108.44888313   202.85087514
 C      4   2   1     2.912258183892   108.95314950   321.07006822
 H      6   4   2     2.078189050061   109.41066272   182.06934747
 C      6   4   2     2.928557110861   108.57821013    63.96996488
 H      8   6   4     2.077345636925   109.64745615    92.21307284
 O      8   6   4     2.661217234177   111.87218957   336.71340620
 O      8   6   4     2.631538225821   107.79430004   213.13991829
 O      6   4   2     2.653250885537   107.86681748   302.00573110
 O      4   2   1     2.652718918556   112.63718710    85.77521635
 O      2   1   3     2.651299054176   111.55797099   117.30329205
 H      1   2   3     2.057590209220   111.68072342   337.31808973
 H      1   2   3     2.070522872870   109.04953418   216.52870476
 H     11   8   6     1.830035703472   110.26810884   181.66443567
 H     12   6   4     1.835464178723   108.25853029   163.18175541
 H     13   4   2     1.832300733007   109.14787834   308.53406256
 H     14   2   1     1.838139608004   108.13178613    70.19386854

---------------------
BASIS SET INFORMATION
---------------------
There are 3 groups of distinct atoms

 Group   1 Type C   : 7s4p1d contracted to 3s2p1d pattern {511/31/1}
 Group   2 Type H   : 4s contracted to 2s pattern {31}
 Group   3 Type O   : 7s4p1d contracted to 3s2p1d pattern {511/31/1}

Atom   0C    basis set group =>   1
Atom   1C    basis set group =>   1
Atom   2H    basis set group =>   2
Atom   3C    basis set group =>   1
Atom   4H    basis set group =>   2
Atom   5C    basis set group =>   1
Atom   6H    basis set group =>   2
Atom   7C    basis set group =>   1
Atom   8H    basis set group =>   2
Atom   9O    basis set group =>   3
Atom  10O    basis set group =>   3
Atom  11O    basis set group =>   3
Atom  12O    basis set group =>   3
Atom  13O    basis set group =>   3
Atom  14H    basis set group =>   2
Atom  15H    basis set group =>   2
Atom  16H    basis set group =>   2
Atom  17H    basis set group =>   2
Atom  18H    basis set group =>   2
Atom  19H    basis set group =>   2
---------------------------------
AUXILIARY/J BASIS SET INFORMATION
---------------------------------
There are 3 groups of distinct atoms

 Group   1 Type C   : 12s5p4d2f1g contracted to 6s4p3d1f1g pattern {711111/2111/211/2/1}
 Group   2 Type H   : 5s2p1d contracted to 3s1p1d pattern {311/2/1}
 Group   3 Type O   : 12s5p4d2f1g contracted to 6s4p3d1f1g pattern {711111/2111/211/2/1}

Atom   0C    basis set group =>   1
Atom   1C    basis set group =>   1
Atom   2H    basis set group =>   2
Atom   3C    basis set group =>   1
Atom   4H    basis set group =>   2
Atom   5C    basis set group =>   1
Atom   6H    basis set group =>   2
Atom   7C    basis set group =>   1
Atom   8H    basis set group =>   2
Atom   9O    basis set group =>   3
Atom  10O    basis set group =>   3
Atom  11O    basis set group =>   3
Atom  12O    basis set group =>   3
Atom  13O    basis set group =>   3
Atom  14H    basis set group =>   2
Atom  15H    basis set group =>   2
Atom  16H    basis set group =>   2
Atom  17H    basis set group =>   2
Atom  18H    basis set group =>   2
Atom  19H    basis set group =>   2
------------------------------------------------------------------------------
                             ORCA STARTUP CALCULATIONS
                           -- RI-GTO INTEGRALS CHOSEN --
------------------------------------------------------------------------------
------------------------------------------------------------------------------
                   ___                                                        
                  /   \      - P O W E R E D   B Y -                         
                 /     \                                                     
                 |  |  |   _    _      __       _____    __    __             
                 |  |  |  | |  | |    /  \     |  _  \  |  |  /  |          
                  \  \/   | |  | |   /    \    | | | |  |  | /  /          
                 / \  \   | |__| |  /  /\  \   | |_| |  |  |/  /          
                |  |  |   |  __  | /  /__\  \  |    /   |      \           
                |  |  |   | |  | | |   __   |  |    \   |  |\   \          
                \     /   | |  | | |  |  |  |  | |\  \  |  | \   \       
                 \___/    |_|  |_| |__|  |__|  |_| \__\ |__|  \__/        
                                                                              
                      - O R C A' S   B I G   F R I E N D -                    
                                      &                                       
                       - I N T E G R A L  F E E D E R -                       
                                                                              
 v1 FN, 2020, v2 2021, v3 2022-2024                                           
------------------------------------------------------------------------------


----------------------
SHARK INTEGRAL PACKAGE
----------------------

Number of atoms                             ...     20
Number of basis functions                   ...    160
Number of shells                            ...     80
Maximum angular momentum                    ...      2
Integral batch strategy                     ... SHARK/LIBINT Hybrid
RI-J (if used) integral strategy            ... SPLIT-RIJ (Revised 2003 algorithm where possible)
Printlevel                                  ...      1
Contraction scheme used                     ... SEGMENTED contraction
Prescreening option                         ... SCHWARTZ
   Thresh                                   ... 1.000e-09
   Tcut                                     ... 1.000e-10
   Tpresel                                  ... 1.000e-10 
Coulomb Range Separation                    ... NOT USED
Exchange Range Separation                   ... NOT USED
Multipole approximations                    ... NOT USED
Finite Nucleus Model                        ... NOT USED
CABS basis                                  ... NOT available
Auxiliary Coulomb fitting basis             ... AVAILABLE
   # of basis functions in Aux-J            ...    600
   # of shells in Aux-J                     ...    200
   Maximum angular momentum in Aux-J        ...      4
Auxiliary J/K fitting basis                 ... NOT available
Auxiliary Correlation fitting basis         ... NOT available
Auxiliary 'external' fitting basis          ... NOT available

Checking pre-screening integrals            ... done (  0.0 sec) Dimension = 80
Check shell pair data                       ... done (  0.0 sec)
Shell pair information
Shell pair cut-off parameter TPreSel        ...   1.0e-10
Total number of shell pairs                 ...      3240
Shell pairs after pre-screening             ...      3082
Total number of primitive shell pairs       ...     13040
Primitive shell pairs kept                  ...      8678
          la=0 lb=0:   1197 shell pairs
          la=1 lb=0:    965 shell pairs
          la=1 lb=1:    208 shell pairs
          la=2 lb=0:    463 shell pairs
          la=2 lb=1:    196 shell pairs
          la=2 lb=2:     53 shell pairs

Calculating one electron integrals          ... done (  0.0 sec)
Calculating RI/J V-Matrix + Cholesky decomp.... done (  0.1 sec)
Calculating Nuclear repulsion               ... done (  0.0 sec) ENN=    638.809812574742 Eh

Diagonalization of the overlap matrix:
Smallest eigenvalue                        ... 8.782e-04
Time for diagonalization                   ...    0.002 sec
Threshold for overlap eigenvalues          ... 1.000e-07
Number of eigenvalues below threshold      ... 0
Time for construction of square roots      ...    0.012 sec
Total time needed                          ...    0.022 sec

-------------------
DFT GRID GENERATION
-------------------

General Integration Accuracy     IntAcc      ... 4.159
Radial Grid Type                 RadialGrid  ... OptM3 with GC (2021)
Angular Grid (max. ang.)         AngularGrid ... 3 (Lebedev-194)
Angular grid pruning method      GridPruning ... 4 (adaptive)
Weight generation scheme         WeightScheme... mBecke (2022)
Basis function cutoff            BFCut       ... 1.0000e-10
Integration weight cutoff        WCut        ... 1.0000e-14
Partially contracted basis set               ... off
Rotationally invariant grid construction     ... off
Angular grids for H and He will be reduced by one unit

Total number of grid points                  ...    46486
Total number of batches                      ...      736
Average number of points per batch           ...       63
Average number of grid points per atom       ...     2324
Initializing property integral containers    ... done (  0.0 sec)

SHARK setup successfully completed in   0.8 seconds

Maximum memory used throughout the entire STARTUP-calculation: 23.3 MB
-------------------------------------------------------------------------------
                                 ORCA GUESS
                   Start orbitals & Density for SCF / CASSCF
-------------------------------------------------------------------------------

------------
SCF SETTINGS
------------
Hamiltonian:
 Density Functional     Method          .... DFT(GTOs)
 Exchange Functional    Exchange        .... PBE
   PBE kappa parameter   XKappa         ....  0.804000
   PBE mue parameter    XMuePBE         ....  0.219520
 Correlation Functional Correlation     .... PBE
   PBE beta parameter  CBetaPBE         ....  0.066725
 LDA part of GGA corr.  LDAOpt          .... PW91-LDA
 Gradients option       PostSCFGGA      .... off
   NL short-range parameter             ....  6.400000
 RI-approximation to the Coulomb term is turned on
   Number of AuxJ basis functions       .... 600


General Settings:
 Integral files         IntName         .... sp
 Hartree-Fock type      HFTyp           .... RHF
 Total Charge           Charge          ....    0
 Multiplicity           Mult            ....    1
 Number of Electrons    NEL             ....   80
 Basis Dimension        Dim             ....  160
 Nuclear Repulsion      ENuc            ....    638.8098125747 Eh

Convergence Acceleration:
 AO-DIIS                CNVDIIS         .... on
   Start iteration      DIISMaxIt       ....    12
   Startup error        DIISStart       ....  0.200000
   # of expansion vecs  DIISMaxEq       ....     5
   Bias factor          DIISBfac        ....   1.050
   Max. coefficient     DIISMaxC        ....  10.000
 MO-DIIS                CNVKDIIS        .... off
 Trust-Rad. Augm. Hess. CNVTRAH         .... auto
   Auto Start mean grad. ratio tolernc. ....  1.125000
   Auto Start start iteration           ....    50
   Auto Start num. interpolation iter.  ....    10
   Max. Number of Micro iterations      ....    24
   Max. Number of Macro iterations      .... Maxiter - #DIIS iter
   Number of Davidson start vectors     ....     2
   Converg. threshold    (grad. norm)   ....   1.000e-04
   Grad. Scal. Fac. for Micro threshold ....   0.100
   Minimum threshold for Micro iter.    ....   1.000e-02
   NR start threshold (gradient norm)   ....   1.000e-04
   Initial trust radius                 ....   0.400
   Minimum AH scaling param. (alpha)    ....   1.000
   Maximum AH scaling param. (alpha)    .... 1000.000
   Quad. conv. algorithm                .... NR
   White noise on init. David. guess    .... on
   Maximum white noise                  ....   0.010
   Pseudo random numbers                .... off
   Inactive MOs                         .... canonical
   Orbital update algorithm             .... Taylor
   Preconditioner                       .... Diag
   Full preconditioner red. dimension   ....   250
 SOSCF                  CNVSOSCF        .... on
   Start iteration      SOSCFMaxIt      ....   150
   Startup grad/error   SOSCFStart      ....  0.003300
   Hessian update       SOSCFHessUp     .... L-BFGS
 Level Shifting         CNVShift        .... on
   Level shift para.    LevelShift      ....    0.2500
   Turn off err/grad.   ShiftErr        ....    0.0010
 Zerner damping         CNVZerner       .... off
 Static damping         CNVDamp         .... on
   Fraction old density DampFac         ....    0.7000
   Max. Damping (<1)    DampMax         ....    0.9800
   Min. Damping (>=0)   DampMin         ....    0.0000
   Turn off err/grad.   DampErr         ....    0.1000

SCF Procedure:
 Maximum # iterations   MaxIter         ....   125
 SCF integral mode      SCFMode         .... Direct
   Integral package                     .... SHARK and LIBINT hybrid scheme
 Reset frequency        DirectResetFreq ....    20
 Integral Threshold     Thresh          ....  1.000e-09 Eh
 Primitive CutOff       TCut            ....  1.000e-10 Eh

Convergence Tolerance:
 Convergence Check Mode ConvCheckMode   .... Total+1el-Energy
 Convergence forced     ConvForced      .... 0
 Energy Change          TolE            ....  1.000e-05 Eh
 1-El. energy change                    ....  1.000e-02 Eh
 Orbital Gradient       TolG            ....  1.000e-04
 Orbital Rotation angle TolX            ....  1.000e-04
 DIIS Error             TolErr          ....  5.000e-04

------------------------------
INITIAL GUESS: MODEL POTENTIAL
------------------------------
Loading Hartree-Fock densities                     ... done
Calculating cut-offs                               ... done
Initializing the effective Hamiltonian             ... done
Setting up the integral package (SHARK)            ... done
Starting the Coulomb interaction                   ... done (   0.2 sec)
Making the grid                                    ... done (   0.2 sec)
Mapping shells                                     ... done
Starting the XC term evaluation                    ... done (   0.2 sec)
  promolecular density results
     # of electrons  =     79.994653184
     EX              =    -69.363462851
     EC              =     -2.727407712
     EX+EC           =    -72.090870563
Transforming the Hamiltonian                       ... done (   0.0 sec)
Diagonalizing the Hamiltonian                      ... done (   0.0 sec)
Back transforming the eigenvectors                 ... done (   0.0 sec)
Now organizing SCF variables                       ... done
                      ------------------
                      INITIAL GUESS DONE (   0.7 sec)
                      ------------------
             **** ENERGY FILE WAS UPDATED (sp.en.tmp) ****
Finished Guess after   0.9 sec
Maximum memory used throughout the entire GUESS-calculation: 18.2 MB

-------------------------------------------------------------------------------------------
                                      ORCA LEAN-SCF
                              memory conserving SCF solver
-------------------------------------------------------------------------------------------

----------------------------------------D-I-I-S--------------------------------------------
Iteration    Energy (Eh)           Delta-E    RMSDP     MaxDP     DIISErr   Damp  Time(sec)
-------------------------------------------------------------------------------------------
               ***  Starting incremental Fock matrix formation  ***
    1    -571.2888650471030587     0.00e+00  4.96e-03  1.35e-01  2.20e-01  0.700   1.4
    2    -571.4071336449400178    -1.18e-01  3.21e-03  9.56e-02  8.19e-02  0.700   1.1
                               ***Turning on AO-DIIS***
    3    -571.4450904650146867    -3.80e-02  1.17e-03  2.91e-02  1.63e-02  0.700   1.0
    4    -571.4702250741073613    -2.51e-02  1.57e-03  2.40e-02  9.97e-03  0.000   1.0
    5    -571.5280610318205845    -5.78e-02  4.88e-04  1.55e-02  4.01e-03  0.000   1.0
                              *** Initializing SOSCF ***
---------------------------------------S-O-S-C-F--------------------------------------
Iteration    Energy (Eh)           Delta-E    RMSDP     MaxDP     MaxGrad    Time(sec)
--------------------------------------------------------------------------------------
    6    -571.5283068404679625    -2.46e-04  1.51e-04  3.27e-03  1.04e-03     1.2
               *** Restarting incremental Fock matrix formation ***
    7    -571.5283296186092912    -2.28e-05  1.04e-04  2.39e-03  1.51e-04     1.1
    8    -571.5283297426495892    -1.24e-07  3.71e-05  6.22e-04  1.84e-04     1.0
                 **** Energy Check signals convergence ****

               *****************************************************
               *                     SUCCESS                       *
               *           SCF CONVERGED AFTER   8 CYCLES          *
               *****************************************************

             **** ENERGY FILE WAS UPDATED (sp.en.tmp) ****

----------------
TOTAL SCF ENERGY
----------------

Total Energy       :       -571.52832974264959 Eh          -15552.07650 eV

Components:
Nuclear Repulsion  :        638.80981257474207 Eh           17382.89873 eV
Electronic Energy  :      -1210.33814231739166 Eh          -32934.97523 eV
One Electron Energy:      -2051.69174147504737 Eh          -55829.37060 eV
Two Electron Energy:        841.35359915765571 Eh           22894.39536 eV

Virial components:
Potential Energy   :      -1139.07599022160366 Eh          -30995.83349 eV
Kinetic Energy     :        567.54766047895407 Eh           15443.75699 eV
Virial Ratio       :          2.00701380613627

DFT components:
N(Alpha)           :       40.000078220485 electrons
N(Beta)            :       40.000078220485 electrons
N(Total)           :       80.000156440969 electrons
E(X)               :      -70.499756843485 Eh       
E(C)               :       -2.737740951583 Eh       
E(XC)              :      -73.237497795068 Eh       

---------------
SCF CONVERGENCE
---------------

  Last Energy change         ...    1.2404e-07  Tolerance :   1.0000e-05
  Last MAX-Density change    ...    6.2186e-04  Tolerance :   1.0000e-03
  Last RMS-Density change    ...    3.7093e-05  Tolerance :   1.0000e-04
  Last DIIS Error            ...    1.0377e-03  Tolerance :   5.0000e-04
  Last Orbital Gradient      ...    1.8391e-04  Tolerance :   1.0000e-04
  Last Orbital Rotation      ...    1.7457e-04  Tolerance :   1.0000e-04


----------------
ORBITAL ENERGIES
----------------

  NO   OCC          E(Eh)            E(eV) 
   0   2.0000     -18.785007      -511.1660 
   1   2.0000     -18.782083      -511.0865 
   2   2.0000     -18.769344      -510.7398 
   3   2.0000     -18.749026      -510.1869 
   4   2.0000     -18.734938      -509.8036 
   5   2.0000      -9.999103      -272.0894 
   6   2.0000      -9.948935      -270.7243 
   7   2.0000      -9.939408      -270.4650 
   8   2.0000      -9.934393      -270.3286 
   9   2.0000      -9.933784      -270.3120 
  10   2.0000      -0.998281       -27.1646 
  11   2.0000      -0.943709       -25.6796 
  12   2.0000      -0.938190       -25.5294 
  13   2.0000      -0.919977       -25.0338 
  14   2.0000      -0.911736       -24.8096 
  15   2.0000      -0.691117       -18.8062 
  16   2.0000      -0.682419       -18.5696 
  17   2.0000      -0.598836       -16.2951 
  18   2.0000      -0.582086       -15.8394 
  19   2.0000      -0.532384       -14.4869 
  20   2.0000      -0.501504       -13.6466 
  21   2.0000      -0.495155       -13.4739 
  22   2.0000      -0.483699       -13.1621 
  23   2.0000      -0.459554       -12.5051 
  24   2.0000      -0.425576       -11.5805 
  25   2.0000      -0.400105       -10.8874 
  26   2.0000      -0.393155       -10.6983 
  27   2.0000      -0.386733       -10.5235 
  28   2.0000      -0.374271       -10.1844 
  29   2.0000      -0.354888        -9.6570 
  30   2.0000      -0.339812        -9.2468 
  31   2.0000      -0.323266        -8.7965 
  32   2.0000      -0.309891        -8.4326 
  33   2.0000      -0.283549        -7.7158 
  34   2.0000      -0.270294        -7.3551 
  35   2.0000      -0.267631        -7.2826 
  36   2.0000      -0.251963        -6.8563 
  37   2.0000      -0.234951        -6.3934 
  38   2.0000      -0.223331        -6.0771 
  39   2.0000      -0.196223        -5.3395 
  40   0.0000       0.004197         0.1142 
  41   0.0000       0.028155         0.7661 
  42   0.0000       0.047954         1.3049 
  43   0.0000       0.064233         1.7479 
  44   0.0000       0.069750         1.8980 
  45   0.0000       0.083304         2.2668 
  46   0.0000       0.093570         2.5462 
  47   0.0000       0.103742         2.8230 
  48   0.0000       0.114429         3.1138 
  49   0.0000       0.125586         3.4174 
  50   0.0000       0.133902         3.6437 
*Only the first 10 virtual orbitals were printed.

                    ********************************
                    * MULLIKEN POPULATION ANALYSIS *
                    ********************************

-----------------------
MULLIKEN ATOMIC CHARGES
-----------------------
   0 C :    0.066737
   1 C :    0.025421
   2 H :    0.071919
   3 C :    0.041500
   4 H :    0.086756
   5 C :    0.017108
   6 H :    0.076125
   7 C :    0.156563
   8 H :    0.072833
   9 O :   -0.325775
  10 O :   -0.403814
  11 O :   -0.430278
  12 O :   -0.421872
  13 O :   -0.432660
  14 H :    0.098462
  15 H :    0.061891
  16 H :    0.314905
  17 H :    0.317650
  18 H :    0.302053
  19 H :    0.304478
Sum of atomic charges:    0.0000000

--------------------------------
MULLIKEN REDUCED ORBITAL CHARGES
--------------------------------
  0 C s       :     3.003178  s :     3.003178
      pz      :     0.921451  p :     2.871020
      px      :     0.868777
      py      :     1.080791
      dz2     :     0.013076  d :     0.059066
      dxz     :     0.016194
      dyz     :     0.006894
      dx2y2   :     0.010339
      dxy     :     0.012563

  1 C s       :     3.072804  s :     3.072804
      pz      :     0.824676  p :     2.833761
      px      :     1.022932
      py      :     0.986152
      dz2     :     0.016013  d :     0.068015
      dxz     :     0.018699
      dyz     :     0.013886
      dx2y2   :     0.008206
      dxy     :     0.011211

  2 H s       :     0.928081  s :     0.928081

  3 C s       :     3.055147  s :     3.055147
      pz      :     0.757782  p :     2.835777
      px      :     1.000657
      py      :     1.077339
      dz2     :     0.019266  d :     0.067576
      dxz     :     0.016838
      dyz     :     0.014215
      dx2y2   :     0.008104
      dxy     :     0.009153

  4 H s       :     0.913244  s :     0.913244

  5 C s       :     3.058046  s :     3.058046
      pz      :     0.740318  p :     2.858628
      px      :     1.077614
      py      :     1.040696
      dz2     :     0.020376  d :     0.066218
      dxz     :     0.012998
      dyz     :     0.016744
      dx2y2   :     0.005725
      dxy     :     0.010375

  6 H s       :     0.923875  s :     0.923875

  7 C s       :     3.016114  s :     3.016114
      pz      :     0.949517  p :     2.727804
      px      :     0.862019
      py      :     0.916267
      dz2     :     0.016145  d :     0.099519
      dxz     :     0.024742
      dyz     :     0.016995
      dx2y2   :     0.019168
      dxy     :     0.022469

  8 H s       :     0.927167  s :     0.927167

  9 O s       :     3.761795  s :     3.761795
      pz      :     1.590609  p :     4.548426
      px      :     1.365793
      py      :     1.592025
      dz2     :     0.002856  d :     0.015554
      dxz     :     0.004341
      dyz     :     0.002843
      dx2y2   :     0.002323
      dxy     :     0.003191

 10 O s       :     3.759987  s :     3.759987
      pz      :     1.588769  p :     4.628965
      px      :     1.558176
      py      :     1.482019
      dz2     :     0.002837  d :     0.014862
      dxz     :     0.003905
      dyz     :     0.003985
      dx2y2   :     0.001451
      dxy     :     0.002684

 11 O s       :     3.779903  s :     3.779903
      pz      :     1.311031  p :     4.635401
      px      :     1.479831
      py      :     1.844539
      dz2     :     0.004737  d :     0.014974
      dxz     :     0.003133
      dyz     :     0.001866
      dx2y2   :     0.002992
      dxy     :     0.002246

 12 O s       :     3.784678  s :     3.784678
      pz      :     1.263212  p :     4.621634
      px      :     1.851030
      py      :     1.507391
      dz2     :     0.003840  d :     0.015561
      dxz     :     0.001926
      dyz     :     0.004445
      dx2y2   :     0.003226
      dxy     :     0.002124

 13 O s       :     3.785099  s :     3.785099
      pz      :     1.240253  p :     4.632100
      px      :     1.555436
      py      :     1.836410
      dz2     :     0.001960  d :     0.015461
      dxz     :     0.007012
      dyz     :     0.001546
      dx2y2   :     0.002714
      dxy     :     0.002228

 14 H s       :     0.901538  s :     0.901538

 15 H s       :     0.938109  s :     0.938109

 16 H s       :     0.685095  s :     0.685095

 17 H s       :     0.682350  s :     0.682350

 18 H s       :     0.697947  s :     0.697947

 19 H s       :     0.695522  s :     0.695522


------------------------
MULLIKEN OVERLAP CHARGES
------------------------
B(  0-C ,  1-C ) :   0.4498 B(  0-C ,  2-H ) :  -0.0639 B(  0-C ,  3-C ) :  -0.0571 
B(  0-C ,  7-C ) :  -0.0678 B(  0-C ,  9-O ) :   0.5737 B(  0-C , 13-O ) :  -0.0899 
B(  0-C , 14-H ) :   0.6618 B(  0-C , 15-H ) :   0.5802 B(  1-C ,  2-H ) :   0.6368 
B(  1-C ,  3-C ) :   0.4060 B(  1-C ,  4-H ) :  -0.0763 B(  1-C ,  7-C ) :  -0.0962 
B(  1-C ,  9-O ) :  -0.1288 B(  1-C , 12-O ) :  -0.0584 B(  1-C , 13-O ) :   0.5592 
B(  1-C , 19-H ) :  -0.1043 B(  2-H ,  3-C ) :  -0.0717 B(  3-C ,  4-H ) :   0.6691 
B(  3-C ,  5-C ) :   0.2256 B(  3-C ,  6-H ) :  -0.0508 B(  3-C ,  9-O ) :   0.0644 
B(  3-C , 11-O ) :  -0.1222 B(  3-C , 12-O ) :   0.5497 B(  3-C , 18-H ) :  -0.1113 
B(  4-H ,  5-C ) :  -0.0750 B(  5-C ,  6-H ) :   0.6283 B(  5-C ,  7-C ) :   0.2518 
B(  5-C ,  8-H ) :  -0.0688 B(  5-C ,  9-O ) :  -0.1166 B(  5-C , 10-O ) :  -0.1742 
B(  5-C , 11-O ) :   0.5108 B(  5-C , 12-O ) :  -0.1196 B(  5-C , 17-H ) :  -0.0836 
B(  6-H ,  7-C ) :  -0.0562 B(  6-H , 11-O ) :  -0.0544 B(  7-C ,  8-H ) :   0.7298 
B(  7-C ,  9-O ) :   0.6158 B(  7-C , 10-O ) :   0.7501 B(  7-C , 16-H ) :  -0.0525 
B(  8-H ,  9-O ) :  -0.0937 B(  8-H , 10-O ) :  -0.0698 B(  9-O , 10-O ) :  -0.1353 
B(  9-O , 15-H ) :  -0.0630 B( 10-O , 16-H ) :   0.5165 B( 10-O , 17-H ) :   0.0700 
B( 11-O , 17-H ) :   0.5212 B( 11-O , 19-H ) :   0.0814 B( 12-O , 18-H ) :   0.5448 
B( 13-O , 19-H ) :   0.5485 B( 14-H , 15-H ) :  -0.0501 


                     *******************************
                     * LOEWDIN POPULATION ANALYSIS *
                     *******************************

----------------------
LOEWDIN ATOMIC CHARGES
----------------------
   0 C :   -0.130422
   1 C :   -0.081969
   2 H :    0.115876
   3 C :   -0.072211
   4 H :    0.123102
   5 C :   -0.083664
   6 H :    0.108733
   7 C :   -0.014781
   8 H :    0.099557
   9 O :   -0.163028
  10 O :   -0.308908
  11 O :   -0.312507
  12 O :   -0.314365
  13 O :   -0.320370
  14 H :    0.118427
  15 H :    0.103767
  16 H :    0.295380
  17 H :    0.287676
  18 H :    0.276049
  19 H :    0.273657

-------------------------------
LOEWDIN REDUCED ORBITAL CHARGES
-------------------------------
  0 C s       :     2.935964  s :     2.935964
      pz      :     1.014060  p :     3.059799
      px      :     0.950381
      py      :     1.095358
      dz2     :     0.031678  d :     0.134660
      dxz     :     0.036114
      dyz     :     0.014188
      dx2y2   :     0.020498
      dxy     :     0.032182

  1 C s       :     2.895992  s :     2.895992
      pz      :     0.916354  p :     3.028044
      px      :     1.056189
      py      :     1.055500
      dz2     :     0.036471  d :     0.157934
      dxz     :     0.042173
      dyz     :     0.029734
      dx2y2   :     0.016850
      dxy     :     0.032706

  2 H s       :     0.884124  s :     0.884124

  3 C s       :     2.894294  s :     2.894294
      pz      :     0.874637  p :     3.020132
      px      :     1.055151
      py      :     1.090345
      dz2     :     0.044840  d :     0.157785
      dxz     :     0.039132
      dyz     :     0.030765
      dx2y2   :     0.021038
      dxy     :     0.022010

  4 H s       :     0.876898  s :     0.876898

  5 C s       :     2.902590  s :     2.902590
      pz      :     0.857859  p :     3.025051
      px      :     1.091786
      py      :     1.075407
      dz2     :     0.047593  d :     0.156024
      dxz     :     0.028922
      dyz     :     0.038736
      dx2y2   :     0.016558
      dxy     :     0.024214

  6 H s       :     0.891267  s :     0.891267

  7 C s       :     2.887627  s :     2.887627
      pz      :     1.016353  p :     2.903132
      px      :     0.922035
      py      :     0.964744
      dz2     :     0.034190  d :     0.224021
      dxz     :     0.058752
      dyz     :     0.040300
      dx2y2   :     0.038708
      dxy     :     0.052070

  8 H s       :     0.900443  s :     0.900443

  9 O s       :     3.480391  s :     3.480391
      pz      :     1.625114  p :     4.652728
      px      :     1.411317
      py      :     1.616298
      dz2     :     0.004700  d :     0.029909
      dxz     :     0.008754
      dyz     :     0.004320
      dx2y2   :     0.004959
      dxy     :     0.007176

 10 O s       :     3.525496  s :     3.525496
      pz      :     1.646526  p :     4.756651
      px      :     1.587956
      py      :     1.522169
      dz2     :     0.004500  d :     0.026760
      dxz     :     0.007344
      dyz     :     0.006659
      dx2y2   :     0.002866
      dxy     :     0.005391

 11 O s       :     3.523608  s :     3.523608
      pz      :     1.381108  p :     4.762346
      px      :     1.532187
      py      :     1.849052
      dz2     :     0.009822  d :     0.026553
      dxz     :     0.005905
      dyz     :     0.003139
      dx2y2   :     0.004410
      dxy     :     0.003276

 12 O s       :     3.529130  s :     3.529130
      pz      :     1.341294  p :     4.757968
      px      :     1.850599
      py      :     1.566074
      dz2     :     0.008362  d :     0.027267
      dxz     :     0.003360
      dyz     :     0.008127
      dx2y2   :     0.004616
      dxy     :     0.002801

 13 O s       :     3.530857  s :     3.530857
      pz      :     1.316665  p :     4.762621
      px      :     1.611814
      py      :     1.834142
      dz2     :     0.004719  d :     0.026893
      dxz     :     0.012785
      dyz     :     0.003021
      dx2y2   :     0.003451
      dxy     :     0.002916

 14 H s       :     0.881573  s :     0.881573

 15 H s       :     0.896233  s :     0.896233

 16 H s       :     0.704620  s :     0.704620

 17 H s       :     0.712324  s :     0.712324

 18 H s       :     0.723951  s :     0.723951

 19 H s       :     0.726343  s :     0.726343


---------------------------------
LOEWDIN BOND ORDERS (THRESH 0.050000)
---------------------------------
B(  0-C ,  1-C ) :   1.0423 B(  0-C ,  3-C ) :   0.0535 B(  0-C ,  7-C ) :   0.0652 
B(  0-C ,  9-O ) :   1.1396 B(  0-C , 13-O ) :   0.0842 B(  0-C , 14-H ) :   0.9181 
B(  0-C , 15-H ) :   0.9019 B(  1-C ,  2-H ) :   0.8796 B(  1-C ,  3-C ) :   1.0158 
B(  1-C ,  5-C ) :   0.0541 B(  1-C ,  9-O ) :   0.0613 B(  1-C , 12-O ) :   0.0759 
B(  1-C , 13-O ) :   1.2389 B(  3-C ,  4-H ) :   0.8735 B(  3-C ,  5-C ) :   1.0164 
B(  3-C ,  7-C ) :   0.0538 B(  3-C , 11-O ) :   0.0598 B(  3-C , 12-O ) :   1.2321 
B(  3-C , 13-O ) :   0.0806 B(  5-C ,  6-H ) :   0.8728 B(  5-C ,  7-C ) :   1.0066 
B(  5-C ,  9-O ) :   0.0550 B(  5-C , 10-O ) :   0.0583 B(  5-C , 11-O ) :   1.2152 
B(  5-C , 12-O ) :   0.0820 B(  7-C ,  8-H ) :   0.8861 B(  7-C ,  9-O ) :   1.1925 
B(  7-C , 10-O ) :   1.2602 B(  7-C , 11-O ) :   0.0663 B(  9-O , 10-O ) :   0.0941 
B( 10-O , 16-H ) :   0.8702 B( 11-O , 17-H ) :   0.8585 B( 11-O , 19-H ) :   0.0646 
B( 12-O , 18-H ) :   0.8729 B( 13-O , 19-H ) :   0.8630 

------------------------------------------
LOEWDIN REDUCED ORBITAL POPULATIONS PER MO
-------------------------------------------
THRESHOLD FOR PRINTING IS 0.1%%
                      0         1         2         3         4         5   
                 -18.78501 -18.78208 -18.76934 -18.74903 -18.73494  -9.99910
                   2.00000   2.00000   2.00000   2.00000   2.00000   2.00000
                  --------  --------  --------  --------  --------  --------
 7 C  s               0.0       0.0       0.0       0.0       0.0      99.6
 9 O  s               0.0      99.9       0.0       0.0       0.0       0.0
10 O  s              99.9       0.0       0.0       0.0       0.0       0.0
11 O  s               0.0       0.0      99.9       0.0       0.0       0.0
12 O  s               0.0       0.0       0.0      99.9       0.0       0.0
13 O  s               0.0       0.0       0.0       0.0      99.9       0.0

                      6         7         8         9        10        11   
                  -9.94893  -9.93941  -9.93439  -9.93378  -0.99828  -0.94371
                   2.00000   2.00000   2.00000   2.00000   2.00000   2.00000
                  --------  --------  --------  --------  --------  --------
 0 C  s               0.0       0.0       0.8      98.9       3.3       0.3
 0 C  pz              0.0       0.0       0.0       0.0       1.1       0.4
 0 C  px              0.0       0.0       0.0       0.0       2.0       0.6
 0 C  py              0.0       0.0       0.1       0.0       0.3       0.1
 0 C  dxz             0.0       0.0       0.0       0.0       0.2       0.0
 1 C  s               0.0       0.0      98.8       0.8       0.6       0.7
 1 C  pz              0.0       0.0       0.0       0.0       0.0       0.3
 1 C  px              0.0       0.0       0.0       0.0       0.4       0.0
 1 C  py              0.0       0.1       0.0       0.1       0.0       0.4
 3 C  s               0.0      99.6       0.0       0.0       0.8       2.2
 3 C  px              0.1       0.0       0.0       0.0       0.3       0.4
 3 C  py              0.0       0.0       0.1       0.0       0.2       0.0
 4 H  s               0.0       0.1       0.0       0.0       0.1       0.4
 5 C  s              99.6       0.0       0.0       0.0       3.1       7.9
 5 C  pz              0.0       0.0       0.0       0.0       0.1       7.3
 5 C  px              0.0       0.1       0.0       0.0       0.1       0.2
 5 C  py              0.0       0.0       0.0       0.0       1.5       0.0
 5 C  dz2             0.0       0.0       0.0       0.0       0.0       0.7
 6 H  s               0.1       0.0       0.0       0.0       0.4       0.9
 7 C  s               0.0       0.0       0.0       0.0      15.5       0.5
 7 C  pz              0.0       0.0       0.0       0.0       1.0       0.3
 7 C  py              0.1       0.0       0.0       0.0       3.0       2.5
 7 C  dxz             0.0       0.0       0.0       0.0       0.3       0.1
 8 H  s               0.0       0.0       0.0       0.0       1.8       0.1
 9 O  s               0.0       0.0       0.0       0.0      23.0       4.8
 9 O  pz              0.0       0.0       0.0       0.0       1.2       0.2
 9 O  px              0.0       0.0       0.0       0.1       0.2       0.0
 9 O  py              0.0       0.0       0.0       0.0       0.7       0.1
10 O  s               0.0       0.0       0.0       0.0      24.0       2.1
10 O  pz              0.0       0.0       0.0       0.0       1.6       0.2
10 O  px              0.0       0.0       0.0       0.0       0.4       0.0
11 O  s               0.0       0.0       0.0       0.0       3.6      46.8
11 O  pz              0.1       0.0       0.0       0.0       0.2       1.2
11 O  px              0.0       0.0       0.0       0.0       0.1       1.2
11 O  py              0.0       0.0       0.0       0.0       0.0       0.1
12 O  s               0.0       0.0       0.0       0.0       0.6       3.0
12 O  pz              0.0       0.1       0.0       0.0       0.0       0.1
13 O  s               0.0       0.0       0.0       0.0       0.2       2.2
13 O  px              0.0       0.0       0.0       0.0       0.0       0.2
14 H  s               0.0       0.0       0.0       0.1       0.4       0.0
15 H  s               0.0       0.0       0.0       0.1       0.6       0.0
16 H  s               0.0       0.0       0.0       0.0       4.7       0.5
17 H  s               0.0       0.0       0.0       0.0       1.2       8.7
18 H  s               0.0       0.0       0.0       0.0       0.3       0.5
19 H  s               0.0       0.0       0.0       0.0       0.1       1.1

                     12        13        14        15        16        17   
                  -0.93819  -0.91998  -0.91174  -0.69112  -0.68242  -0.59884
                   2.00000   2.00000   2.00000   2.00000   2.00000   2.00000
                  --------  --------  --------  --------  --------  --------
 0 C  s               3.3       1.9       0.1       0.4      18.7       7.2
 0 C  pz              0.8       0.6       0.4       0.3       0.0       1.1
 0 C  px              0.6       1.0       1.0       0.5       1.2       1.3
 0 C  py              0.4       0.0       0.4       1.0       0.3       0.0
 0 C  dxz             0.1       0.1       0.0       0.0       0.0       0.1
 1 C  s               2.7       0.0       8.1       2.0      11.5       0.6
 1 C  pz              0.1       0.2       8.2       0.4       2.0       0.0
 1 C  px              0.3       0.0       1.1       0.8       2.1       0.0
 1 C  py              0.0       0.7       0.1       1.4       1.2       7.3
 1 C  dz2             0.0       0.0       0.6       0.1       0.2       0.0
 1 C  dxz             0.0       0.0       0.2       0.0       0.0       0.0
 1 C  dxy             0.0       0.0       0.0       0.1       0.0       0.1
 2 H  s               0.4       0.0       0.9       0.3       2.6       0.3
 3 C  s               4.3       4.6       0.0      10.7       3.1       8.9
 3 C  pz              2.5       6.4       1.4       2.8       0.7       0.8
 3 C  px              0.0       0.1       0.6       2.2       0.9       0.1
 3 C  py              0.2       0.1       0.4       0.2       1.3       1.5
 3 C  dz2             0.2       0.5       0.1       0.2       0.0       0.0
 4 H  s               0.5       0.5       0.0       2.1       0.6       4.3
 5 C  s               0.0       0.1       0.4      17.4       0.2       0.1
 5 C  pz              1.2       1.4       0.2       3.8       0.3       0.3
 5 C  px              1.0       0.2       0.0       0.7       2.0       7.7
 5 C  py              0.0       0.0       0.0       0.3       0.3       2.9
 5 C  dz2             0.0       0.1       0.0       0.2       0.0       0.0
 5 C  dx2y2           0.0       0.0       0.0       0.0       0.0       0.1
 6 H  s               0.0       0.0       0.1       3.6       0.1       0.1
 7 C  s               0.1       0.0       0.0       6.6       7.5       5.4
 7 C  pz              3.0       1.1       0.2       0.1       1.5       1.4
 7 C  px              6.4       3.7       0.7       0.5       0.3       0.9
 7 C  py              0.0       0.2       0.0       5.4       0.1       3.7
 7 C  dyz             0.2       0.1       0.0       0.0       0.1       0.0
 7 C  dxy             0.4       0.3       0.0       0.1       0.1       0.1
 8 H  s               0.0       0.0       0.0       1.6       2.4       1.6
 9 O  s              13.6      12.2       1.5       2.3       0.9       3.6
 9 O  pz              0.4       0.4       0.0       0.0       1.1       0.7
 9 O  px              0.3       0.1       0.0       0.9       9.6       0.4
 9 O  py              0.1       0.1       0.0       1.6       2.6       0.1
 9 O  dxz             0.0       0.0       0.0       0.0       0.1       0.0
10 O  s              21.0      11.8       1.9       0.8       1.6       0.5
10 O  pz              0.7       0.4       0.1       0.2       0.4       0.2
10 O  px              0.0       0.0       0.0       1.0       1.4       5.5
10 O  py              0.1       0.1       0.0       1.4       1.0       8.8
11 O  s               2.0       4.0       2.3       4.6       0.0       0.3
11 O  pz              0.0       0.0       0.0       4.5       0.0       0.0
11 O  px              0.1       0.1       0.1       1.3       0.0       1.0
11 O  py              0.0       0.0       0.0       0.2       0.0       0.4
12 O  s              17.2      34.4       2.6       4.1       0.8       0.8
12 O  pz              0.4       0.6       0.0       2.5       0.7       5.1
12 O  px              0.1       0.1       0.0       0.0       0.1       0.1
12 O  py              0.7       1.2       0.1       0.4       0.0       1.2
13 O  s               3.5       0.0      51.4       1.1       4.1       0.0
13 O  pz              0.1       0.0       0.5       0.5       2.4       0.3
13 O  px              0.2       0.0       2.5       0.0       0.1       0.0
13 O  py              0.0       0.0       0.0       0.0       0.2       0.6
14 H  s               0.4       0.2       0.0       0.2       4.5       2.5
15 H  s               0.3       0.2       0.1       0.1       3.3       2.6
16 H  s               4.0       2.4       0.4       0.9       1.1       4.4
17 H  s               0.7       0.6       0.4       2.9       0.0       0.1
18 H  s               3.9       6.4       0.5       1.8       0.5       2.0
19 H  s               0.6       0.0       9.8       0.4       1.6       0.2

                     18        19        20        21        22        23   
                  -0.58209  -0.53238  -0.50150  -0.49516  -0.48370  -0.45955
                   2.00000   2.00000   2.00000   2.00000   2.00000   2.00000
                  --------  --------  --------  --------  --------  --------
 0 C  s               2.7       0.4       2.2       1.8       1.8       0.0
 0 C  pz              0.2       0.0       0.1       9.1       4.5       8.3
 0 C  px              2.3       1.4       2.1       0.3       0.6       1.2
 0 C  py              2.9       1.2       2.4       1.1       4.5       0.3
 0 C  dxz             0.0       0.0       0.0       0.3       0.1       0.0
 0 C  dx2y2           0.0       0.0       0.0       0.1       0.0       0.1
 1 C  s              11.4       1.7       0.2       0.5       0.0       0.1
 1 C  pz              1.5       0.1       0.0       0.3       1.5       5.1
 1 C  px              1.4       0.4       0.4      13.7       1.3       1.5
 1 C  py              0.7       1.0       2.5       0.4       0.9       1.0
 2 H  s               5.4       1.0       0.0       3.0       0.0       0.1
 3 C  s               0.5       4.2       0.0       0.2       0.0       0.3
 3 C  pz              0.0       1.3       2.5       0.3       0.1       1.8
 3 C  px              7.2       1.9       0.6       0.6       0.6       1.7
 3 C  py              2.1       3.7       2.4       1.8       6.2       1.2
 4 H  s               0.1       3.4       0.1       0.1       1.2       0.3
 5 C  s               7.1       2.4       0.3       1.5       0.1       0.6
 5 C  pz              0.0       0.5       6.7       0.1       6.6       0.7
 5 C  px              0.0       0.0       2.1       5.3       0.7       0.1
 5 C  py              1.2       0.4       2.6       4.2       2.9       0.3
 5 C  dz2             0.0       0.1       0.0       0.0       0.2       0.0
 6 H  s               3.0       0.8       3.1       4.2       0.0       0.2
 7 C  s               1.9       0.3       1.0       0.6       0.4       0.5
 7 C  pz              2.2       4.3      13.5       1.5       1.3       5.1
 7 C  px              0.1       1.7       0.6       1.4       3.1      12.0
 7 C  py              2.3       0.1       3.0       0.9       7.4       0.6
 7 C  dxz             0.0       0.1       0.2       0.0       0.0       0.0
 8 H  s               1.2       0.2       7.3       0.4       0.8       6.8
 9 O  s               0.0       0.1       0.1       3.5       0.0       0.3
 9 O  pz              1.1       1.7       1.6       0.7       0.0       4.8
 9 O  px              7.0       0.5       0.1       4.0       8.9       3.7
 9 O  py              3.1       1.5       0.0       5.8       0.9       2.0
10 O  s               0.3       0.0       0.4       0.3       1.0       0.1
10 O  pz              0.4       0.0       0.3       0.2       5.2       4.6
10 O  px              0.6       8.6       8.1       0.2       1.8       0.2
10 O  py              0.2       9.6       3.4       2.6       0.0       3.1
11 O  s               0.9       0.0       0.1       0.5       0.6       0.6
11 O  pz              5.7       5.0       6.5       2.0       6.4       0.0
11 O  px              1.8       1.9       4.5       1.7       6.8       2.8
11 O  py              0.5       1.1       0.0       1.1       2.7       0.7
12 O  s               0.2       0.0       0.1       0.1       1.0       0.4
12 O  pz              0.3      12.4       4.4       0.0       0.0       1.3
12 O  px              0.4       0.8       0.1       0.1       0.3       0.1
12 O  py              0.0       4.8       2.2       0.4       2.1       2.5
12 O  dz2             0.0       0.1       0.0       0.0       0.0       0.0
13 O  s               1.5       0.1       0.2       0.7       0.1       0.1
13 O  pz              8.6       2.9       0.1       8.6       1.8       7.9
13 O  px              0.4       0.1       0.1       4.1       0.1       1.3
13 O  py              0.3       0.5       0.3       0.2       0.5       2.7
14 H  s               1.3       0.2       3.2       0.0       2.5       1.1
15 H  s               1.1       0.5       0.6       4.9       3.2       2.7
16 H  s               0.3       5.3       3.1       0.5       0.2       0.3
17 H  s               2.4       2.2       2.7       0.0       4.7       0.6
18 H  s               0.1       5.3       1.6       0.1       0.3       1.3
19 H  s               2.9       1.0       0.0       3.6       0.6       3.6

                     24        25        26        27        28        29   
                  -0.42558  -0.40011  -0.39315  -0.38673  -0.37427  -0.35489
                   2.00000   2.00000   2.00000   2.00000   2.00000   2.00000
                  --------  --------  --------  --------  --------  --------
 0 C  s               0.0       0.0       0.1       0.2       0.1       0.1
 0 C  pz              1.3       0.2       3.3       0.4       0.4       2.7
 0 C  px              3.2       5.6       5.3       2.5       3.5       0.3
 0 C  py              1.6       0.1       0.1      22.5       1.8       2.6
 0 C  dxz             0.0       0.1       0.1       0.2       0.0       0.0
 0 C  dxy             0.0       0.0       0.0       0.2       0.0       0.0
 1 C  s               0.2       0.6       0.2       0.8       0.0       0.0
 1 C  pz              6.3       4.5       2.8       1.7       2.7       1.1
 1 C  px              0.4       0.1       0.0       5.9       4.1       2.5
 1 C  py              5.2       2.4       6.5       1.5       1.0       3.5
 1 C  dxz             0.1       0.2       0.2       0.0       0.0       0.1
 1 C  dyz             0.0       0.0       0.0       0.0       0.0       0.1
 1 C  dx2y2           0.0       0.0       0.0       0.0       0.2       0.0
 1 C  dxy             0.0       0.0       0.0       0.1       0.1       0.1
 2 H  s               2.8       1.9       0.8       1.8       2.6       2.6
 3 C  s               1.4       0.1       0.1       0.5       0.1       0.5
 3 C  pz             13.1       0.4       0.3       1.0       1.0       3.4
 3 C  px              0.3       0.9      17.9       0.2       2.9       0.3
 3 C  py              1.0       0.1       0.2       0.1       3.8      13.3
 3 C  dz2             0.2       0.1       0.0       0.0       0.0       0.2
 3 C  dxz             0.1       0.0       0.0       0.0       0.0       0.0
 3 C  dyz             0.1       0.1       0.0       0.1       0.0       0.0
 3 C  dx2y2           0.0       0.0       0.1       0.1       0.2       0.0
 3 C  dxy             0.0       0.1       0.0       0.1       0.1       0.1
 4 H  s               3.9       0.1       1.1       1.0       3.5       7.9
 5 C  s               0.1       0.5       0.2       0.1       0.2       0.1
 5 C  pz              3.4       0.9       0.9       0.0       2.0       0.6
 5 C  px              1.6       0.0      13.7       1.0       1.3       0.3
 5 C  py              1.7      15.9       0.2       8.1       0.0       0.3
 5 C  dz2             0.3       0.2       0.0       0.0       0.0       0.0
 5 C  dxz             0.0       0.1       0.0       0.0       0.0       0.1
 5 C  dx2y2           0.1       0.0       0.1       0.0       0.0       0.1
 5 C  dxy             0.0       0.1       0.0       0.1       0.0       0.1
 6 H  s               0.5       8.4       2.8       3.8       0.0       0.1
 7 C  s               0.0       1.0       0.1       0.2       0.2       0.9
 7 C  pz              0.2       1.4       0.2       0.2       0.8       0.2
 7 C  px              1.1       0.4       0.4       5.2       0.4       1.1
 7 C  py              0.0       8.6       0.4       0.4       0.7       0.5
 7 C  dz2             0.0       0.0       0.0       0.0       0.2       0.0
 7 C  dxz             0.0       0.5       0.2       0.0       0.1       0.0
 7 C  dyz             0.1       0.0       0.0       0.1       0.2       0.1
 7 C  dx2y2           0.0       0.1       0.2       0.0       0.0       0.1
 7 C  dxy             0.0       0.0       0.1       0.0       0.3       0.0
 8 H  s               0.4       5.2       0.2       0.4       0.1       0.0
 9 O  s               0.0       0.1       0.4       0.0       1.7       1.5
 9 O  pz              0.1       0.7       5.2       2.1      11.7       7.4
 9 O  px              0.0       6.7       0.9       2.4       0.1       2.9
 9 O  py              2.2       0.4       0.1       0.0       2.0       6.8
10 O  s               0.0       0.3       0.9       0.4       3.6       0.1
10 O  pz              0.1       0.4       0.0       7.1      17.6       0.3
10 O  px              0.1       5.6       0.8       0.0       2.4       0.0
10 O  py              0.3       0.1       3.1       0.3       6.3       0.7
11 O  s               0.0       0.4       1.2       0.2       1.0       0.7
11 O  pz              8.3       1.8       2.7       0.5       3.2       3.3
11 O  px              1.1       2.7       4.6       0.0       0.8       3.2
11 O  py              0.1       2.5       0.1       3.8       0.1       0.0
12 O  s               0.1       0.5       0.1       0.3       0.8       1.6
12 O  pz             13.5       1.0       1.3       0.5       1.3      10.7
12 O  px              1.8       0.5       6.5       0.0       1.2       0.4
12 O  py              2.7       1.5       0.2       1.4       3.5       8.7
13 O  s               0.3       0.1       0.2       0.4       0.9       0.0
13 O  pz              7.6       7.8       2.1       0.6       0.1       1.2
13 O  px              0.1       0.4       0.4       3.0       5.2       1.3
13 O  py              0.1       0.0       3.9       1.2       0.3       0.0
14 H  s               0.0       0.4       0.6      13.7       0.0       0.1
15 H  s               1.5       0.1       3.6       0.1       0.0       1.7
16 H  s               0.1       0.9       1.2       0.0       0.9       0.2
17 H  s               2.3       1.0       0.0       0.1       0.2       0.1
18 H  s               4.6       0.8       0.0       0.6       0.2       0.1
19 H  s               1.4       1.8       0.8       0.0       0.1       0.4

                     30        31        32        33        34        35   
                  -0.33981  -0.32327  -0.30989  -0.28355  -0.27029  -0.26763
                   2.00000   2.00000   2.00000   2.00000   2.00000   2.00000
                  --------  --------  --------  --------  --------  --------
 0 C  s               0.0       0.5       0.4       0.1       0.0       0.0
 0 C  pz              4.8       0.5       3.1       1.4       1.9       0.1
 0 C  px              5.1       0.4       1.7       0.1       0.3       0.2
 0 C  py              0.0       1.5       2.0       0.8       0.3       0.6
 0 C  dz2             0.1       0.0       0.1       0.2       0.0       0.0
 0 C  dyz             0.1       0.1       0.0       0.0       0.0       0.0
 0 C  dxy             0.0       0.0       0.5       0.0       0.0       0.0
 1 C  s               0.0       1.0       0.7       0.5       0.1       0.0
 1 C  pz              1.8       0.6       2.6       0.3       0.2       0.2
 1 C  px              3.9       0.1       1.4       0.2       0.8       5.0
 1 C  py              0.2       0.9       1.8       2.2       0.7       0.3
 1 C  dz2             0.0       0.1       0.0       0.0       0.1       0.1
 1 C  dxz             0.1       0.2       0.5       0.0       0.0       0.3
 1 C  dyz             0.0       0.1       0.0       0.1       0.1       0.1
 1 C  dx2y2           0.1       0.0       0.1       0.0       0.0       0.0
 2 H  s               3.7       0.2       6.7       0.1       0.5       3.0
 3 C  s               0.2       1.1       0.0       0.0       0.0       0.0
 3 C  pz              0.7       0.1       0.7       0.4       0.4       0.4
 3 C  px              0.0       0.1       2.8       3.3       0.0       0.3
 3 C  py              0.1       1.0       0.4       4.6       2.5       3.2
 3 C  dxz             0.0       0.0       0.0       0.0       0.1       0.1
 3 C  dyz             0.0       0.3       0.0       0.5       0.1       0.1
 3 C  dxy             0.0       0.1       0.0       0.2       0.0       0.0
 4 H  s               0.4       2.5       0.0       5.8       0.8       0.8
 5 C  s               0.4       0.6       0.5       0.1       0.5       0.0
 5 C  pz              0.5       3.1       0.1       0.4       0.9       0.2
 5 C  px              0.1       1.6       2.0       3.7       0.0       0.0
 5 C  py              1.9       0.2       0.8       0.8       0.3       0.1
 5 C  dz2             0.0       0.1       0.0       0.0       0.2       0.0
 5 C  dxz             0.2       0.3       0.0       0.1       0.0       0.0
 5 C  dyz             0.0       0.0       0.3       0.0       0.0       0.0
 6 H  s               0.4       1.7       0.4       0.2       0.2       0.3
 7 C  s               0.1       0.0       0.6       0.0       0.2       0.1
 7 C  pz              1.5       1.4       0.0       2.8       3.0       0.6
 7 C  px              0.0       0.8       2.1       0.5       0.5       0.4
 7 C  py              1.0       0.7       0.3       1.7       0.0       0.2
 7 C  dz2             0.1       0.0       0.0       0.0       0.5       0.3
 7 C  dxz             0.0       0.0       0.1       0.0       0.4       0.1
 7 C  dyz             0.0       0.0       0.0       0.0       0.6       0.2
 7 C  dx2y2           0.0       0.3       0.1       0.1       0.1       0.2
 7 C  dxy             0.3       0.0       0.0       0.2       0.0       0.1
 8 H  s               1.1       0.9       0.4       1.6       7.8       1.9
 9 O  s               0.0       0.4       1.6       1.0       1.0       0.0
 9 O  pz              0.2       0.5       2.5      10.4       3.5       3.2
 9 O  px              0.0       1.4       1.3       1.4       0.9       0.1
 9 O  py              0.2       5.6      16.9       0.1       0.5       2.0
10 O  s               3.9       0.0       0.2       0.6       0.1       0.1
10 O  pz             16.1       0.2       0.3       2.9      13.3       6.7
10 O  px              1.6       1.0       0.3       1.7      15.6      16.3
10 O  py              6.7       2.0       0.1       2.8      11.1      10.0
11 O  s               2.5       1.4       1.0       0.6       0.1       0.1
11 O  pz              4.1       6.3       1.3       1.4       2.7       0.6
11 O  px             15.9      11.2       0.8       4.4       0.3       0.5
11 O  py              3.1       0.8      16.2       1.9       0.9       0.4
12 O  s               0.4       1.9       0.5       3.0       0.9       0.9
12 O  pz              0.8       0.5       2.4       2.5       1.8       1.6
12 O  px              0.1       0.9       0.7       1.7       9.3       8.5
12 O  py              1.2       6.6       4.7      16.1       2.2       2.9
13 O  s               0.0       5.0       0.1       0.0       0.9       2.9
13 O  pz              0.2       2.9       4.0       0.1       0.4       0.8
13 O  px              1.4      21.0       0.0       0.0       7.9      18.8
13 O  py              0.1       1.9       1.2       7.7       0.0       0.8
14 H  s               2.2       0.8       6.2       1.4       0.2       0.1
15 H  s               5.6       0.7       2.2       1.2       0.6       0.1
16 H  s               1.9       0.1       0.1       0.6       0.1       0.1
17 H  s               1.7       0.6       0.6       0.7       0.0       0.0
18 H  s               0.0       1.2       0.1       2.1       0.5       0.6
19 H  s               0.6       1.8       0.5       0.2       0.6       1.8

                     36        37        38        39        40        41   
                  -0.25196  -0.23495  -0.22333  -0.19622   0.00420   0.02816
                   2.00000   2.00000   2.00000   2.00000   0.00000   0.00000
                  --------  --------  --------  --------  --------  --------
 0 C  s               0.2       0.2       0.3       0.7       0.9       0.2
 0 C  pz              2.5       0.6       0.2       0.3       0.4       1.1
 0 C  px              0.3       0.2       1.7       0.9       0.1       2.6
 0 C  py              0.0       0.2       2.0       3.8       0.2       0.2
 0 C  dz2             0.5       0.0       0.2       0.0       0.0       0.0
 0 C  dxz             0.1       0.0       0.0       0.0       0.1       0.5
 0 C  dyz             0.2       0.0       0.1       0.0       0.0       0.0
 0 C  dx2y2           0.1       0.0       0.0       0.0       0.0       0.2
 0 C  dxy             0.0       0.1       0.1       0.2       0.1       0.0
 1 C  s               0.0       0.1       0.7       0.1       0.2       0.1
 1 C  pz              0.2       0.0       0.5       0.5       0.1       1.5
 1 C  px              0.6       0.2       4.2       0.0       0.0       1.6
 1 C  py              1.7       0.1       0.2       6.7       0.0       0.0
 1 C  dz2             0.0       0.0       0.3       0.0       0.0       0.7
 1 C  dyz             0.2       0.1       0.0       0.6       0.0       0.0
 1 C  dx2y2           0.0       0.0       0.1       0.0       0.1       0.1
 1 C  dxy             0.2       0.1       0.1       0.6       0.0       0.1
 2 H  s               0.4       0.5       2.4       0.0       0.4       0.7
 3 C  s               0.4       0.2       0.0       0.4       0.0       0.5
 3 C  pz              0.1       0.2       0.2       0.5       0.7       4.9
 3 C  px              0.0       0.1       3.2       3.4       0.3       0.0
 3 C  py              0.0       0.0       0.1       2.7       0.0       0.6
 3 C  dz2             0.0       0.0       0.0       0.0       0.3       1.1
 3 C  dxz             0.3       0.0       0.8       0.3       0.0       0.0
 3 C  dx2y2           0.0       0.0       0.3       0.0       0.1       0.1
 3 C  dxy             0.0       0.0       0.0       0.1       0.0       0.0
 4 H  s               0.1       0.2       1.7       0.2       0.1       0.8
 5 C  s               0.2       0.0       0.4       0.4       0.2       0.4
 5 C  pz              0.1       0.1       0.0       0.3       4.0       0.8
 5 C  px              0.3       0.1       7.2       1.3       0.2       0.5
 5 C  py              0.0       5.3       1.0       0.4       0.2       0.5
 5 C  dz2             0.0       0.0       0.0       0.0       1.0       0.3
 5 C  dyz             0.0       1.3       0.0       0.0       0.0       0.1
 5 C  dx2y2           0.0       0.0       0.0       0.0       0.0       0.4
 5 C  dxy             0.0       0.3       0.0       0.1       0.0       0.1
 6 H  s               0.0       7.7       0.1       1.4       2.2       2.2
 7 C  s               0.1       0.6       0.0       0.1       0.2       1.3
 7 C  pz              0.4       0.9       0.7       0.0       3.3       1.7
 7 C  px              0.6       0.7       0.2       0.0       1.0       2.8
 7 C  py              0.0       3.4       0.4       0.3       0.8       1.5
 7 C  dz2             0.1       0.0       0.0       0.0       0.1       0.1
 7 C  dxz             0.3       0.0       0.0       0.1       0.3       0.0
 7 C  dyz             0.0       0.0       0.2       0.0       0.2       0.1
 7 C  dx2y2           0.1       0.0       0.3       0.0       0.0       0.0
 7 C  dxy             0.2       0.1       0.1       0.0       0.3       0.2
 8 H  s               0.4       0.1       0.4       0.0       4.5       9.5
 9 O  s               0.1       0.2       0.1       0.0       0.1       2.8
 9 O  pz             17.9       0.8       1.1       0.0       0.2       0.1
 9 O  px              7.8       0.0       7.5       1.3       0.2       0.8
 9 O  py              8.9       4.0       8.3       4.2       0.6       0.7
10 O  s               0.0       0.0       0.1       0.0       9.9       0.1
10 O  pz              2.3       0.0       0.2       0.2       0.9       0.0
10 O  px              3.9       0.2       1.7       0.0       0.6       0.0
10 O  py              1.3       0.6       0.2       0.0       2.3       1.4
10 O  dxy             0.0       0.0       0.0       0.0       0.1       0.0
11 O  s               0.0       0.0       0.5       0.1       4.0       2.0
11 O  pz              0.2       0.4       0.2       0.0       0.3       0.0
11 O  px              0.2       5.0       2.2       0.5       1.4       0.3
11 O  py              0.1      54.1       0.0       1.5       0.8       0.0
12 O  s               0.0       0.0       0.1       0.0       0.1       6.4
12 O  pz              0.0       0.2       0.2       0.6       0.5       0.1
12 O  px             12.2       1.4      31.2      13.9       0.0       0.7
12 O  py              5.3       0.7       0.1       4.7       0.0       3.3
13 O  s               0.0       0.1       0.4       0.0       0.1       1.9
13 O  pz              0.7       0.8       0.2       2.6       0.2       0.2
13 O  px              0.5       2.4       8.6       0.5       0.2       1.2
13 O  py             21.1       3.9       3.1      41.1       0.0       0.0
14 H  s               0.3       0.5       0.0       1.0       1.3       1.3
15 H  s               5.2       0.2       1.3       0.3       1.4       0.0
16 H  s               0.2       0.1       0.2       0.1      38.9       0.7
17 H  s               0.1       0.0       0.7       0.1      11.9       4.8
18 H  s               0.3       0.0       0.3       0.1       0.0      25.2
19 H  s               0.0       0.1       0.5       0.0       1.2       4.9

                     42        43        44        45        46        47   
                   0.04795   0.06423   0.06975   0.08330   0.09357   0.10374
                   0.00000   0.00000   0.00000   0.00000   0.00000   0.00000
                  --------  --------  --------  --------  --------  --------
 0 C  s               1.1       1.3       1.7       0.0       7.1       4.9
 0 C  pz              0.5       8.0       1.2       0.1       1.3       3.0
[...]
11 O  dxz            12.8       0.1       0.1       7.7       0.5       0.8
11 O  dyz             0.0       1.1       0.7       0.9       0.0       0.0
11 O  dx2y2           4.1       0.2       0.4       0.8       0.0       0.2
11 O  dxy             4.5       0.2       0.7       0.5       0.0       0.1
12 O  s               0.3       0.5       0.6       0.2       0.0       0.4
12 O  pz              0.1       0.1       0.0       0.0       0.0       0.6
12 O  px              0.0       0.3       0.0       0.2       0.0       0.1
12 O  py              0.4       0.2       0.3       0.0       0.0       0.0
12 O  dz2             0.1       0.0       0.0       0.1       0.1       9.9
12 O  dxz            12.0       1.4       5.4       6.6       0.1       0.5
12 O  dyz             8.8      22.9       0.0       1.7       0.1       0.8
12 O  dx2y2           8.3       8.1       4.7       0.0       0.0       0.0
12 O  dxy             2.0       8.0       1.2       1.0       0.0       0.2
13 O  s               0.2       0.1       1.3       0.0       0.0       0.0
13 O  pz              0.0       0.0       0.2       0.0       0.0       0.0
13 O  px              0.1       0.0       0.6       0.0       0.0       0.0
13 O  py              0.0       0.2       0.0       0.0       0.0       0.0
13 O  dz2             0.8       0.8       3.7       0.1       0.8       0.0
13 O  dxz             2.0       0.0      23.3       1.5       0.6       0.0
13 O  dyz             2.9       5.4      18.0       3.3       0.8       0.1
13 O  dx2y2           1.5       1.1       8.3       0.0       0.0       0.0
13 O  dxy             0.6       3.4       3.5       0.4       0.5       0.0
16 H  s               0.8       0.7       0.1       0.1       0.0       0.2
17 H  s               1.3       0.0       0.1       0.3       0.0       0.4
18 H  s               2.2       3.2       0.6       0.1       0.0       0.1
19 H  s               0.6       0.0       4.9       0.1       0.0       0.0

                    156       157       158       159   
                   3.30394   3.31807   3.36742   3.37619
                   0.00000   0.00000   0.00000   0.00000
                  --------  --------  --------  --------
 0 C  s               0.1       0.0       0.6       1.0
 0 C  pz              0.0       0.0       0.4       0.5
 0 C  px              0.0       0.0       0.5       1.0
 0 C  py              0.0       0.0       0.0       0.2
 0 C  dz2             0.0       0.1       0.0       0.1
 0 C  dxz             0.2       0.0       2.1       1.6
 0 C  dyz             0.1       0.0       0.1       0.6
 0 C  dx2y2           0.1       0.0       0.8       0.6
 0 C  dxy             0.0       0.0       0.1       0.5
 1 C  s               1.5       0.2       0.4       0.8
 1 C  pz              1.5       0.2       0.6       0.9
 1 C  px              0.3       0.1       0.1       0.2
 1 C  dz2             4.0       0.6       0.9       1.9
 1 C  dxz             2.8       0.2       0.5       0.9
 1 C  dyz             0.0       0.0       0.7       0.2
 1 C  dx2y2           0.2       0.1       0.0       0.0
 1 C  dxy             0.1       0.0       0.2       0.0
 3 C  s               0.9       0.0       1.0       0.5
 3 C  pz              1.0       0.1       1.6       0.9
 3 C  dz2             3.8       0.0       4.6       2.2
 3 C  dxz             0.1       0.7       0.0       0.0
 3 C  dyz             0.8       0.1       0.0       0.0
 5 C  s               0.0       0.9       0.2       0.0
 5 C  pz              0.0       2.0       0.4       0.1
 5 C  py              0.0       0.0       0.0       0.1
 5 C  dz2             0.0       7.4       0.8       0.2
 5 C  dxz             0.3       0.0       0.3       0.2
 5 C  dxy             0.0       0.2       0.0       0.0
 7 C  s               0.5       0.4       0.7       1.3
 7 C  pz              0.2       0.7       0.1       0.1
 7 C  px              0.1       1.1       0.7       0.5
 7 C  py              0.1       0.1       0.5       0.9
 7 C  dz2             0.0       0.1       0.8       0.6
 7 C  dxz             1.1       1.8       0.1       1.1
 7 C  dyz             0.2       2.6       0.1       0.1
 7 C  dx2y2           0.3       0.4       0.0       0.2
 7 C  dxy             0.1       1.9       2.3       2.1
 9 O  s               0.0       0.2       0.2       0.0
 9 O  pz              0.1       0.0       0.0       0.2
 9 O  px              0.0       0.1       2.0       2.7
 9 O  py              0.1       0.1       0.8       0.7
 9 O  dz2             0.4       0.3       3.7       3.3
 9 O  dxz             0.5       0.0      15.9      20.0
 9 O  dyz             0.2       0.6       4.0       2.7
 9 O  dx2y2           0.4       0.7       1.9       4.4
 9 O  dxy             0.0       2.1       3.3       9.4
10 O  s               0.6       1.7       0.0       0.1
10 O  pz              0.1       0.4       0.0       0.0
10 O  px              0.3       1.0       0.0       0.0
10 O  py              0.2       0.4       0.0       0.1
10 O  dz2             0.3       1.2       0.0       0.0
10 O  dxz             4.3      15.8       0.3       0.2
10 O  dyz             1.8       3.7       0.0       0.5
10 O  dx2y2           0.5       3.4       0.0       0.0
10 O  dxy             1.0       1.6       0.3       0.1
11 O  s               0.0       2.4       0.5       0.1
11 O  pz              0.0       2.2       0.4       0.1
11 O  px              0.1       0.1       0.1       0.0
11 O  dz2             0.0      31.9       4.8       0.9
11 O  dxz             0.2       0.3       0.3       0.1
11 O  dyz             0.0       0.2       0.0       0.0
12 O  s               1.1       0.0       2.7       1.3
12 O  pz              1.5       0.0       1.7       0.9
12 O  dz2            20.4       0.1      20.0       9.6
12 O  dxz             0.8       0.8       0.2       0.1
12 O  dyz             0.4       0.0       2.2       1.6
12 O  dx2y2           0.3       0.0       0.0       0.0
13 O  s               1.8       0.3       0.9       1.6
13 O  pz              2.4       0.2       0.7       1.0
13 O  py              0.2       0.0       0.0       0.0
13 O  dz2            20.1       2.1       5.6       6.9
13 O  dxz            14.8       2.1       4.1       7.9
13 O  dyz             2.0       0.3       0.0       0.3
13 O  dx2y2           0.0       0.0       0.4       0.3
13 O  dxy             1.4       0.2       0.0       0.0
16 H  s               0.1       0.3       0.0       0.0
17 H  s               0.0       0.4       0.0       0.0
18 H  s               0.2       0.0       0.2       0.1
19 H  s               0.5       0.1       0.1       0.2


                      *****************************
                      * MAYER POPULATION ANALYSIS *
                      *****************************

  NA   - Mulliken gross atomic population
  ZA   - Total nuclear charge
  QA   - Mulliken gross atomic charge
  VA   - Mayer's total valence
  BVA  - Mayer's bonded valence
  FA   - Mayer's free valence

  ATOM       NA         ZA         QA         VA         BVA        FA
  0 C      5.9333     6.0000     0.0667     3.9166     3.9166     0.0000
  1 C      5.9746     6.0000     0.0254     4.0947     4.0947    -0.0000
  2 H      0.9281     1.0000     0.0719     0.9662     0.9662     0.0000
  3 C      5.9585     6.0000     0.0415     4.0207     4.0207     0.0000
  4 H      0.9132     1.0000     0.0868     0.9737     0.9737     0.0000
  5 C      5.9829     6.0000     0.0171     3.9437     3.9437     0.0000
  6 H      0.9239     1.0000     0.0761     0.9571     0.9571    -0.0000
  7 C      5.8434     6.0000     0.1566     4.2090     4.2090    -0.0000
  8 H      0.9272     1.0000     0.0728     0.9655     0.9655     0.0000
  9 O      8.3258     8.0000    -0.3258     2.1736     2.1736    -0.0000
 10 O      8.4038     8.0000    -0.4038     2.0763     2.0763     0.0000
 11 O      8.4303     8.0000    -0.4303     2.0333     2.0333    -0.0000
 12 O      8.4219     8.0000    -0.4219     2.0023     2.0023    -0.0000
 13 O      8.4327     8.0000    -0.4327     1.9994     1.9994     0.0000
 14 H      0.9015     1.0000     0.0985     0.9525     0.9525    -0.0000
 15 H      0.9381     1.0000     0.0619     1.0131     1.0131    -0.0000
 16 H      0.6851     1.0000     0.3149     0.8857     0.8857    -0.0000
 17 H      0.6824     1.0000     0.3176     0.9014     0.9014     0.0000
 18 H      0.6979     1.0000     0.3021     0.9092     0.9092     0.0000
 19 H      0.6955     1.0000     0.3045     0.9212     0.9212     0.0000

  Mayer bond orders larger than 0.100000
B(  0-C ,  1-C ) :   1.0356 B(  0-C ,  9-O ) :   0.9961 B(  0-C , 14-H ) :   0.9287 
B(  0-C , 15-H ) :   0.8878 B(  1-C ,  2-H ) :   0.8960 B(  1-C ,  3-C ) :   0.9973 
B(  1-C , 13-O ) :   1.0575 B(  3-C ,  4-H ) :   0.8928 B(  3-C ,  5-C ) :   0.9966 
B(  3-C , 12-O ) :   1.0541 B(  5-C ,  6-H ) :   0.8885 B(  5-C ,  7-C ) :   0.9664 
B(  5-C , 11-O ) :   1.0546 B(  7-C ,  8-H ) :   0.9092 B(  7-C ,  9-O ) :   1.0510 
B(  7-C , 10-O ) :   1.1504 B( 10-O , 16-H ) :   0.8353 B( 11-O , 17-H ) :   0.8146 
B( 12-O , 18-H ) :   0.8326 B( 13-O , 19-H ) :   0.8218 

-------
TIMINGS
-------

Total SCF time: 0 days 0 hours 0 min 9 sec 

Total time                  ....       9.151 sec
Sum of individual times     ....       8.548 sec  ( 93.4%)

SCF preparation             ....       0.177 sec  (  1.9%)
Fock matrix formation       ....       7.451 sec  ( 81.4%)
  Startup                   ....       0.052 sec  (  0.7% of F)
  Split-RI-J                ....       2.725 sec  ( 36.6% of F)
  XC integration            ....       4.177 sec  ( 56.1% of F)
    XC Preparation          ....       0.000 sec  (  0.0% of XC)
    Basis function eval.    ....       1.208 sec  ( 28.9% of XC)
    Density eval.           ....       0.720 sec  ( 17.2% of XC)
    XC-Functional eval.     ....       0.258 sec  (  6.2% of XC)
    XC-Potential eval.      ....       0.911 sec  ( 21.8% of XC)
Diagonalization             ....       0.000 sec  (  0.0%)
Density matrix formation    ....       0.166 sec  (  1.8%)
Total Energy calculation    ....       0.027 sec  (  0.3%)
Population analysis         ....       0.088 sec  (  1.0%)
Orbital Transformation      ....       0.051 sec  (  0.6%)
Orbital Orthonormalization  ....       0.000 sec  (  0.0%)
DIIS solution               ....       0.490 sec  (  5.4%)
  MO trafo                  ....       0.000 sec  (  0.0 % of DIIS)
  Orb grad                  ....       0.000 sec  (  0.0 % of DIIS)
  Energy W gradient         ....       0.000 sec  (  0.0 % of DIIS)
  DIIS error                ....       0.005 sec  (  0.9 % of DIIS)
  DIIS work                 ....       0.440 sec  ( 89.7 % of DIIS)
  Form Q                    ....       0.000 sec  (  0.0 % of DIIS)
  Form QpQm                 ....       0.000 sec  (  0.0 % of DIIS)
  Exp/Cayley                ....       0.000 sec  (  0.0 % of DIIS)
  Orb update                ....       0.000 sec  (  0.0 % of DIIS)
  Wake-sleep                ....       0.016 sec  (  3.3 % of DIIS)
SOSCF solution              ....       0.097 sec  (  1.1%)
  MO trafo                  ....       0.061 sec  ( 62.8 % of SOSCF)
  Orb grad                  ....       0.001 sec  (  1.1 % of SOSCF)
  Rot update                ....       0.017 sec  ( 17.9 % of SOSCF)
  Step                      ....       0.018 sec  ( 18.1 % of SOSCF)
Finished LeanSCF after   9.8 sec

Maximum memory used throughout the entire LEANSCF-calculation: 15.1 MB


-------------------------------------------------------------------------------
                          DFT DISPERSION CORRECTION                            
                                                                               
                                DFTD4 V3.4.0                                   
-------------------------------------------------------------------------------
The PBE functional is recognized
Active option DFTDOPT                   ...         5   

-------------------------   ----------------
Dispersion correction           -0.020133644
-------------------------   ----------------

------------------   -----------------
gCP correction             0.131280000
------------------   -----------------

-------------------------   --------------------
FINAL SINGLE POINT ENERGY      -571.417183387277
-------------------------   --------------------


------------------------------------------------------------------------------
                              ORCA PROPERTY CALCULATIONS
------------------------------------------------------------------------------

GBWName                                 ... sp.gbw
Number of atoms                         ...     20
Number of basis functions               ...    160
Max core memory                         ...   1024 MB

Electric properties:
Dipole moment                           ... YES
Quadrupole moment                       ...  NO
Static polarizability (Dipole/Dipole)   ...  NO
Static polarizability (Dipole/Quad.)    ...  NO
Static polarizability (Quad./Quad.)     ...  NO
Static polarizability (Velocity)        ...  NO

Atomic electric properties:
Dipole moment                           ...  NO
Quadrupole moment                       ...  NO
Static polarizability                   ...  NO

Choice of electric origin               ... Center of mass
Position of electric origin             ...     0.000002     0.000001    -0.000003

General magnetic properties:
Magnetizability                         ...  NO

EPR properties:
g-Tensor (aka g-matrix)                 ...  NO
Zero-Field splitting spin-orbit         ...  NO
Zero-field splitting spin-spin          ...  NO
Hyperfine couplings                     ...  NO (   0 nuclei)
Quadrupole couplings                    ...  NO (   0 nuclei)
Contact density                         ...  NO (   0 nuclei)

NMR properties:
Chemical shifts                         ...  NO (   0 nuclei)
Spin-rotation constants                 ...  NO (   0 nuclei)
Spin-spin couplings                     ...  NO (   0 nuclei,    0 pairs)

Choice of magnetic origin               ... GIAO
Position of magnetic origin             ...     0.000000     0.000000     0.000000

Properties with geometric perturbations:
SCF Hessian                             ...  NO
IR spectrum                             ...  NO
VCD spectrum                            ...  NO
X-ray spectroscopy properties:
SCF XES/XAS/RIXS spectra                ...  NO


-------------
DIPOLE MOMENT
-------------

Method             : SCF
Type of density    : Electron Density
Multiplicity       :   1
Irrep              :   0
Energy             :  -571.5283297426495892 Eh
Relativity type    : 
Basis              : AO
                                X                 Y                 Z
Electronic contribution:     -0.764347367      -0.125763181      -0.177728860
Nuclear contribution   :     -0.610396614       0.815991603       0.057823038
                        -----------------------------------------
Total Dipole Moment    :     -1.374743980       0.690228422      -0.119905822
                        -----------------------------------------
Magnitude (a.u.)       :      1.542956154
Magnitude (Debye)      :      3.921882866



--------------------
Rotational spectrum 
--------------------
 
Rotational constants in cm-1:             0.058911             0.041854             0.039137 
Rotational constants in MHz :          1766.093367          1254.749737          1173.310247 

Dipole components along the rotational axes: 
x,y,z [a.u.] :    -1.507111     0.042617     0.327893 
x,y,z [Debye]:    -3.830772     0.108325     0.833437 

 

Dipole moment calculation done in   0.0 sec 

Maximum memory used throughout the entire PROP-calculation: 9.8 MB

--------------------------------
SUGGESTED CITATIONS FOR THIS RUN
--------------------------------

Below you find a list of papers that are relevant to this ORCA run
We neither can nor want to force you to cite these papers, but we appreciate if you do
You receive ORCA, which is the product of decades of hard work by many enthusiastic individuals, for free
The only thing we kindly ask in return is that you cite our papers,
We deeply appreciate it, if you show your appreciation for ORCA by not just citing the generic ORCA reference.

Please note that relegating all ORCA citations to the supporting information does *not* help us.
SI sections are not indexed - citations you put there will not count into any citation statistics
But we need these citations in order to attract the funding resources that allow us to do what we are doing

Therefore, if you are a happy ORCA user, please consider citing a few of the papers listed below in the main body of your paper

In addition to the list printed below, the program has created the file sp.bibtex that contains the list in bibtex format
You can import this file easily into all common literature databanks and citation aid programs


List of essential papers. We consider these as the minimum necessary citations

  1. Neese,F.
     Software update: the ORCA program system, version 5.0
     WIRES Comput. Molec. Sci., 2022 12(1)e1606
     doi.org/10.1002/wcms.1606

List of papers to cite with high priority. The work reported in these papers was absolutely
necessary for this run to complete.
Our perspective: the developers of density functionals and basis sets usually get cited in chemistry papers
Good! But without the algorithms to do something with them, the functionals or basis sets would not do anything.
Hence, in our opinion, the algorithm design and method developments papers are equally worthy of getting cited

  1. Neese,F.
     An improvement of the resolution of the identity approximation for the formation of the Coulomb matrix
     J. Comp. Chem., 2003 24(14)1740-1747
     doi.org/10.1002/jcc.10318
  2. Neese,F.
     The SHARK Integral Generation and Digestion System
     J. Comp. Chem., 2022  1-16
     doi.org/10.1002/jcc.26942
  3. Caldeweyher,E.; Bannwarth,C.; Grimme,S.
     Extension of the D3 dispersion coefficient model
     J. Chem. Phys., 2017 147 034112-XXXX
     doi.org/10.1063/1.4993215
  4. Caldeweyher,E.; Ehlert,S.; Hansen,A.; Neugebauer,H.; Spicher,S.; Bannwarth,C.; Grimme,S.
     A generally applicable atomic-charge dependent London dispersion correction
     J. Chem. Phys., 2019 150 154122-XXXX
     doi.org/10.1063/1.5090222
  5. Caldeweyher,E.; Mewes,J.; Ehlert,S.; Grimme,S.
     Extension and evaluation of the D4 London-dispersion model for periodic systems
     Phys. Chem. Chem. Phys., 2020 22(16)8499-8512
     doi.org/10.1039/D0CP00502A

List of suggested additional citations. These are papers that are important in the 'surrounding' of 
of this run, or papers that preceded the highly important papers. If you like your results we are grateful for a citation.

  1. Neese,F.
     The ORCA program system
     WIRES Comput. Molec. Sci., 2012 2(1)73-78
     doi.org/10.1002/wcms.81
  2. Neese,F.
     Software update: the ORCA program system, version 4.0
     WIRES Comput. Molec. Sci., 2018 8(1)1-6
     doi.org/10.1002/wcms.1327
  3. Neese,F.; Wennmohs,F.; Becker,U.; Riplinger,C.
     The ORCA quantum chemistry program package
     J. Chem. Phys., 2020 152 Art. No. L224108
     doi.org/10.1063/5.0004608

List of optional additional citations

  1. Neese,F.
     Approximate second-order SCF convergence for spin unrestricted wavefunctions
     Chem. Phys. Lett., 2000 325(1-3)93-98
     doi.org/10.1016/s0009-2614(00)00662-x

Timings for individual modules:

Sum of individual times          ...       11.666 sec (=   0.194 min)
Startup calculation              ...        0.831 sec (=   0.014 min)   7.1 %
SCF iterations                   ...       10.723 sec (=   0.179 min)  91.9 %
Property calculations            ...        0.112 sec (=   0.002 min)   1.0 %
                             ****ORCA TERMINATED NORMALLY****
TOTAL RUN TIME: 0 days 0 hours 0 minutes 12 seconds 508 msec
