41
 energy: -65.049609504136 gnorm: 0.055085136724 xtb: 6.7.1 (edcfbbe)
C            1.55832002178190       -0.48716390049052       -2.80152126848722
C            2.58434313562601        0.16344363453651       -1.90585345918105
O            3.01966044568374       -0.76870848987719       -0.85857634574771
P            2.56534446025300       -0.57006521659466        0.67277549442451
S            2.71542257955476        1.22409469115287        1.41649779407902
O            3.45702817351055       -1.71246736404901        1.36573236467388
C            4.80098948058596       -1.41303939904040        1.88978887587546
C            5.80297343069290       -1.10203406269512        0.80226743893127
S            0.62957764210131       -1.45483497693562        0.69527912242655
C           -0.30704557871295       -0.30827550602356        1.80319230306715
S           -2.09697315982999       -0.36613864858826        1.44069790209410
P           -2.16896389521696        0.67823272635278       -0.42718663627740
S           -0.83265818996285        2.06448222061226       -0.65588911427865
O           -3.72363551145489        1.09966813804239       -0.46324549138148
C           -4.22169545842107        2.26328338092821        0.28261336159884
C           -5.49861835044985        2.71813311362942       -0.37871617898774
O           -2.11211313991116       -0.40427152483412       -1.60193257384461
C           -2.99284700806020       -1.58421024840485       -1.64495338846927
C           -4.01873056497720       -1.42125446098765       -2.73930785333808
H            1.30351951253082        0.21701018741259       -3.60040938593254
H            1.95297263967623       -1.40152650717685       -3.25576253684052
H            0.64398908291188       -0.72282607247179       -2.24846645037289
H            2.19470809738921        1.07349642818211       -1.43890251884062
H            3.49656485036292        0.41481598699474       -2.45348531047751
H            4.70957071151298       -0.58670138267446        2.60168664564421
H            5.06769214567668       -2.32243224309738        2.43025382030919
H            6.78517573721917       -0.98225620716720        1.27293772134849
H            5.86619625430670       -1.91414428293154        0.07264751915201
H            5.56391136228548       -0.16937451377589        0.28272954298060
H            0.07119501409134        0.71242766089299        1.66549280958033
H           -0.19985816407623       -0.61896451028759        2.84989660345997
H           -4.38793030162970        1.95342636556325        1.31867075427951
H           -3.45852242566909        3.04772796638956        0.25544797194257
H           -5.88159327821500        3.58432462648825        0.17087824452555
H           -5.31720126890261        3.01972006787540       -1.41451974881139
H           -6.25911921071771        1.93274767060880       -0.35884739606978
H           -2.32384475589633       -2.42639155183378       -1.83666400095071
H           -3.46599017912694       -1.72842788135814       -0.66920529334166
H           -4.61297023692434       -2.33891109099518       -2.79047983930905
H           -4.69103447010238       -0.58470246820110       -2.53192315849479
H           -3.53786087652512       -1.26902447422357       -3.70969926559768
41
 energy: -65.053186807727 gnorm: 0.028572483354 xtb: 6.7.1 (edcfbbe)
C            1.55615234363184       -0.48085798000042       -2.80189802504173
C            2.58423944619409        0.17023947649989       -1.90565084534606
O            3.01917787867337       -0.74763582063871       -0.86546683366310
P            2.54996138416929       -0.57005015134731        0.65773550348514
S            2.70343766631335        1.23543931763727        1.40865555888706
O            3.44016544040541       -1.70148132123018        1.35443736586780
C            4.77190823742479       -1.41076791958949        1.88369990422688
C            5.78625747853857       -1.10436019505049        0.80624849015701
S            0.63532013684912       -1.46509140216788        0.70246839613169
C           -0.29013276223102       -0.30619119693485        1.79321709441285
S           -2.06772641489744       -0.38687551638103        1.44435406742587
P           -2.16606989165314        0.66348303875384       -0.41305325320186
S           -0.82301483560413        2.06129518050871       -0.65908647771940
O           -3.70779505563312        1.10601064448885       -0.47007284272380
C           -4.20750976027336        2.25532651991376        0.27336815457878
C           -5.49005151094516        2.71921212590397       -0.37950932656497
O           -2.10316738124175       -0.42148630459413       -1.57433636742275
C           -2.98834546603110       -1.58370412773322       -1.63330148855154
C           -4.01475496183433       -1.42109085833532       -2.73066506027978
H            1.29916547948259        0.21404629104839       -3.59955910204574
H            1.95312069312562       -1.39535829006222       -3.23808386580693
H            0.64905522704721       -0.71733722228648       -2.24678749851729
H            2.18869294415169        1.07593006712011       -1.43533717106541
H            3.49533879230726        0.41728200188328       -2.45446611205467
H            4.68218592052655       -0.57704473140090        2.58616575662909
H            5.02976065180508       -2.32352593475290        2.42317188481106
H            6.76527867507185       -0.98755927690309        1.27116262408684
H            5.83482370030685       -1.91165949494064        0.07816620086549
H            5.53640458244114       -0.17737551760693        0.29056156861970
H            0.07631988681679        0.71269015306166        1.64015536477983
H           -0.18472525022929       -0.61819846348488        2.83166054986254
H           -4.37516665625612        1.93603682863480        1.30489591889885
H           -3.44125053792525        3.03585706549014        0.25356962781015
H           -5.87504296842520        3.57815085929388        0.16772935038006
H           -5.30924685619707        3.01336301544571       -1.41126739092420
H           -6.23741450590532        1.92905171106562       -0.36286595907971
H           -2.31986600658561       -2.42494967002449       -1.82809633673389
H           -3.46322160926365       -1.71304579490215       -0.65772069375058
H           -4.61265147130746       -2.32962971759274       -2.78752296218232
H           -4.67142572468374       -0.57906860193449       -2.52231469564548
H           -3.52823818518822       -1.26018090590827       -3.69042199823458
41
 energy: -65.054820650129 gnorm: 0.010865582673 xtb: 6.7.1 (edcfbbe)
C            1.55145544800640       -0.47403346020966       -2.80009761773952
C            2.58292008728876        0.18279965783218       -1.90595336755367
O            3.01649064458611       -0.71862460139851       -0.87135512638339
P            2.53351220211557       -0.56641422873398        0.64263570254963
S            2.67644208408457        1.24267034218253        1.39643767568507
O            3.41857386421126       -1.68559847499017        1.34355436012610
C            4.73504256116673       -1.40894916589224        1.88137096027794
C            5.75829482325544       -1.10841400912857        0.80709003260644
S            0.63064006239548       -1.46819312166428        0.69037606314096
C           -0.29070707129370       -0.30712028081694        1.77291819213777
S           -2.06298551280128       -0.38317195333138        1.45772383425891
P           -2.14996900942745        0.65001280862041       -0.41149695751049
S           -0.80162924291833        2.04602660806582       -0.65877725620232
O           -3.67734404149974        1.10989773452286       -0.47595263704895
C           -4.18059262113222        2.24119307360362        0.26904473606498
C           -5.46921098524385        2.70848409596849       -0.38078004197132
O           -2.08640377411189       -0.44298973497007       -1.55059604545992
C           -2.97777124184213       -1.58745507361935       -1.61505257959697
C           -4.00436443664230       -1.41319286407327       -2.71540025718209
H            1.29504122424880        0.21079797910583       -3.60029488444158
H            1.95101347068041       -1.39196399498857       -3.21781997073324
H            0.64899394735824       -0.70517312087317       -2.23986119093109
H            2.18387872275354        1.09172614285054       -1.44365509385512
H            3.48917774160048        0.42586279473627       -2.46282364646641
H            4.64970695633588       -0.56808622053919        2.57555033979348
H            4.98296280272302       -2.32308097749299        2.42318948535724
H            6.73396292073280       -0.99645130268099        1.26865165723197
H            5.79394421190095       -1.91288428643252        0.07939847008918
H            5.50276821228070       -0.18311782680545        0.29555186761006
H            0.07732126034844        0.70611509991235        1.60246343572726
H           -0.16806401008554       -0.61111775605302        2.80728299099196
H           -4.35189183601688        1.91809547272166        1.29830738231299
H           -3.41964677679241        3.02711972776015        0.25654369284096
H           -5.85430485711510        3.56092712960026        0.16706183715200
H           -5.28857229231988        3.00054447341487       -1.40978606603196
H           -6.20649480670474        1.91303254702047       -0.36551641889648
H           -2.31888454917712       -2.43407003252848       -1.81658941133854
H           -3.45787048775301       -1.71094559561863       -0.64175154403525
H           -4.60658435987937       -2.31325658714733       -2.77699052663410
H           -4.64754272899671       -0.56495102577896       -2.50316276251772
H           -3.51135985334899       -1.24716211120401       -3.66750023806386
41
 energy: -65.055334033024 gnorm: 0.007044185582 xtb: 6.7.1 (edcfbbe)
C            1.54467689847257       -0.46823724407332       -2.79965510367481
C            2.57892365552179        0.19543000322585       -1.91015109063687
O            3.00883783521988       -0.69637519975235       -0.87302987808305
P            2.51587997303228       -0.55618520799707        0.63477205800022
S            2.65066373000482        1.25206163764397        1.39391255114629
O            3.39268981368660       -1.67171772009583        1.33872877772563
C            4.70397211455578       -1.40706879222484        1.88139119215835
C            5.73248628833533       -1.11302118195047        0.80727958369489
S            0.61798305628591       -1.47843248605104        0.67117294144376
C           -0.28164171478848       -0.31143449370748        1.76639594093484
S           -2.05087550336538       -0.37972086627980        1.46279786972537
P           -2.13520618253999        0.64359996260243       -0.41516482328822
S           -0.77669688758911        2.02929942027304       -0.66272320059631
O           -3.65396407336788        1.11321271431766       -0.48633160161516
C           -4.15956877681379        2.23249823850626        0.26610591588728
C           -5.45131096020934        2.69762584975080       -0.38293317409409
O           -2.06894363291279       -0.45917968169067       -1.53609699704551
C           -2.96835601454888       -1.59364810678903       -1.60115110592131
C           -3.99405666551145       -1.40444430039380       -2.70237104823662
H            1.29067516205295        0.20867533778296       -3.60712574603205
H            1.94422142121940       -1.39206191097251       -3.20553674547206
H            0.64211647371888       -0.69109797294741       -2.23519187104045
H            2.18069293927530        1.11132230713891       -1.45925120271753
H            3.48265930263804        0.43475116510944       -2.47348237549572
H            4.62661073852704       -0.56368040288806        2.57405085023271
H            4.94631136605846       -2.32071304079246        2.42633566658644
H            6.70868309041404       -1.00715852727931        1.26804479981631
H            5.76066216678426       -1.91757611687345        0.07877212516540
H            5.48022478367046       -0.18547037631584        0.29738601222339
H            0.08727606419589        0.70034094673816        1.58302247359746
H           -0.14409434187224       -0.60699370802139        2.80229712578156
H           -4.33206305237181        1.90488794348818        1.29423429090494
H           -3.40482736748299        3.02545747419125        0.26136345667117
H           -5.83782724787882        3.54677654586209        0.16859464335737
H           -5.26971575737185        2.99284762988568       -1.41131457553642
H           -6.18436221790498        1.89768089770223       -0.36920783217782
H           -2.32060029558505       -2.44810146973855       -1.80599320257973
H           -3.45275282841423       -1.71811694637596       -0.62980530981323
H           -4.60349439930556       -2.29900301090935       -2.76876591108803
H           -4.62927404629902       -0.55086122726321       -2.48503279225433
H           -3.49666615456514       -1.23728020188921       -3.65240361229311
41
 energy: -65.055542292837 gnorm: 0.006337617338 xtb: 6.7.1 (edcfbbe)
C            1.53796446279643       -0.46270118284672       -2.80206790216570
C            2.57601761303925        0.20638347688318       -1.91979457855455
O            3.00721279560633       -0.68014510869555       -0.87911900372510
P            2.50626404004532       -0.54930127993950        0.62483519854485
S            2.62691314787513        1.25524597377863        1.39345697158985
O            3.37448278439537       -1.66399988627838        1.33351514536347
C            4.68340030092272       -1.40583754324110        1.88210514190693
C            5.71390978172168       -1.11654940375637        0.80765441795513
S            0.60716960281085       -1.46884721246673        0.65829850317069
C           -0.29241634521421       -0.31161110944341        1.76424217001017
S           -2.06426541781461       -0.37139388582209        1.47764210709766
P           -2.11707815144347        0.63566215228557       -0.41437837477897
S           -0.75136727869651        2.01269345136850       -0.66990123129599
O           -3.63019296814706        1.11296066996504       -0.49476977868367
C           -4.14043782076530        2.22502334243546        0.26464022524446
C           -5.43398025651258        2.68667149096874       -0.38354317147329
O           -2.04874747891507       -0.47492286594700       -1.52317158005615
C           -2.96001315243640       -1.60049976134891       -1.59109802817878
C           -3.98421333610824       -1.39559477345712       -2.69154335715008
H            1.28528245242724        0.20717746758332       -3.61723694916682
H            1.93430074116809       -1.39254334429091       -3.20000879374716
H            0.63441913795950       -0.67666275234808       -2.23391090768032
H            2.17989034661994        1.12730725497120       -1.47607629238022
H            3.47802603894599        0.44301074972530       -2.48803640748025
H            4.60973060667743       -0.56201533522181        2.57537043637121
H            4.92153677982201       -2.31894000814419        2.42960764111178
H            6.69165723284851       -1.01649936721492        1.26850611324053
H            5.73729391100852       -1.92158670488279        0.07815262602998
H            5.46705089958770       -0.18624754285964        0.29826946969060
H            0.08036559116995        0.69965402124754        1.58036405582171
H           -0.13722005097133       -0.60762505362744        2.79918362527393
H           -4.31197457992961        1.89207096387196        1.29173492768005
H           -3.39101996599333        3.02372991206247        0.26638652816489
H           -5.82401190976616        3.53362876657980        0.17112467338741
H           -5.25247965944679        2.98669758865257       -1.41165224240958
H           -6.16527553615839        1.88386749944422       -0.37231203935833
H           -2.32239115510844       -2.46220283028726       -1.79828189289170
H           -3.44580303785186       -1.72657421833410       -0.62025407332896
H           -4.60263135980302       -2.28489043318535       -2.76355444476204
H           -4.61278211095752       -0.53734505789959       -2.46896242931646
H           -3.48463794243707       -1.22836023933806       -3.64147742371031
41
 energy: -65.055635433884 gnorm: 0.003792983859 xtb: 6.7.1 (edcfbbe)
C            1.53264214628437       -0.45906356756733       -2.80478792181139
C            2.57176633161664        0.21162140941204       -1.92622626614597
O            3.00281169875071       -0.67285704914537       -0.88047766230388
P            2.49907777934947       -0.54217720592486        0.62230105841703
S            2.62347407923877        1.25990680753825        1.39371065488559
O            3.36256031406411       -1.65903666580242        1.33304910788288
C            4.67387517728111       -1.40426343362361        1.88204791736739
C            5.70506767989131       -1.11843682218079        0.80807755046076
S            0.60039798833084       -1.46448984708690        0.64998397455316
C           -0.29004807823377       -0.31327543345890        1.77122175025004
S           -2.06128515387714       -0.36222101188047        1.48062122575484
P           -2.11022208078385        0.63248011224766       -0.41673538505622
S           -0.73677458481134        2.00073039312643       -0.67049939542087
O           -3.62120305821857        1.11438510103097       -0.50550758038001
C           -4.13284398926296        2.22262368603743        0.26194703726872
C           -5.42680676041657        2.68270411578053       -0.38374095315336
O           -2.03840572064739       -0.48430205414208       -1.51902917009172
C           -2.95675791740517       -1.60601071188339       -1.58786391655047
C           -3.97967467266711       -1.39141906455151       -2.68636745861282
H            1.28240615606567        0.20711492158093       -3.62471119042590
H            1.92541898107509       -1.39256059536273       -3.19901526864859
H            0.62722673478229       -0.66646673458316       -2.23659174024123
H            2.17844483495893        1.13500003668043       -1.48536930862275
H            3.47477906578973        0.44424462007311       -2.49490193593180
H            4.60137093470927       -0.56117505525522        2.57654402668193
H            4.90898469911735       -2.31779974988055        2.43019451650887
H            6.68386539578625       -1.02280334185025        1.26955995780857
H            5.72658099961203       -1.92362778715760        0.07805063948904
H            5.46383809041390       -0.18628871791368        0.29849897742762
H            0.08468925764522        0.69903029982429        1.59541950111009
H           -0.13438654967211       -0.61727521562872        2.80382518553145
H           -4.30080445470672        1.88333559359356        1.28787180915486
H           -3.38484980886127        3.02253536915017        0.26660249106569
H           -5.81884886706331        3.52805731210594        0.17346571753624
H           -5.24631695547862        2.98669586608642       -1.41142991942902
H           -6.15765254824343        1.87890595658003       -0.37458283967614
H           -2.32332196208261       -2.47040389054586       -1.79633910236165
H           -3.44087837863455       -1.73168977896907       -0.61590283428062
H           -4.60357777265884       -2.27746464145445       -2.76137979964029
H           -4.60445000893062       -0.53083497747242       -2.46063060753545
H           -3.48022026913600       -1.22454036658040       -3.63696376747380
41
 energy: -65.055682664280 gnorm: 0.001941078534 xtb: 6.7.1 (edcfbbe)
C            1.52794183742925       -0.45579664988872       -2.80808489216637
C            2.56782756985615        0.21445952825548       -1.93208361601408
O            2.99888618540091       -0.66931363658265       -0.88257042266085
P            2.49461757612064       -0.53657597308513        0.62005093770511
S            2.62504164804537        1.26447050772068        1.39343078028290
O            3.35512014939845       -1.65601650663749        1.33233881629939
C            4.66888566707867       -1.40275866000745        1.88106975783038
C            5.70044523309225       -1.11948384533063        0.80830860994411
S            0.59475642810174       -1.45694545730096        0.64597555403069
C           -0.29255209825834       -0.31394747444481        1.77817649690776
S           -2.06388497965106       -0.35640643643025        1.48334212368546
P           -2.10311748522682        0.63062949225080       -0.41719129970160
S           -0.72583605846170        1.99467990839541       -0.67493552107024
O           -3.61317652935983        1.11516850090804       -0.51441715329180
C           -4.12680047382511        2.22098858257992        0.25891183017615
C           -5.42170262573090        2.67998930809082       -0.38301780464551
O           -2.02925543409556       -0.49182259447235       -1.51486810639458
C           -2.95420885585904       -1.60996076565394       -1.58563111997250
C           -3.97655307553378       -1.38863881573903       -2.68163988195526
H            1.28090467565377        0.20824587338881       -3.63083783817769
H            1.91700876607028       -1.39195340084466       -3.19944809485169
H            0.62067800683158       -0.65750563799166       -2.24108278278269
H            2.17727215970123        1.13865252343093       -1.49145554422673
H            3.47237063519341        0.44260750493365       -2.49990210476154
H            4.59563323718795       -0.56015303848395        2.57595335973926
H            4.90104503749376       -2.31720121420876        2.42902724068904
H            6.67941611524782       -1.02740918635816        1.27068005731369
H            5.72065313767854       -1.92432143194041        0.07792453792730
H            5.46360538583800       -0.18627302228424        0.29870965947292
H            0.08584596842106        0.69934790026051        1.61524606838354
H           -0.14135452210097       -0.63093803761749        2.80714065539405
H           -4.29040862192967        1.87602250469785        1.28355992413271
H           -3.37949777918645        3.02103334328305        0.26435310343370
H           -5.81497229392408        3.52366172435996        0.17616543099728
H           -5.24340116867379        2.98711181674616       -1.41017899226574
H           -6.15191146388581        1.87566873172853       -0.37524507802240
H           -2.32334101672764       -2.47543986877077       -1.79647688043568
H           -3.43587090119082       -1.73492684454124       -0.61235150322080
H           -4.60440289812997       -2.27181223660632       -2.75869679025042
H           -4.59787964432788       -0.52639430318089       -2.45363532454495
H           -3.47787874079043       -1.22185483168219       -3.63267511757164
41
 energy: -65.055695679941 gnorm: 0.001675563933 xtb: 6.7.1 (edcfbbe)
C            1.52430324904894       -0.45305531874738       -2.81099088337510
C            2.56523435643983        0.21533083622987       -1.93588614021703
O            2.99565288062677       -0.66888866048755       -0.88537883809087
P            2.49228237229998       -0.53433072613541        0.61755564158952
S            2.62442960451867        1.26677673983887        1.39170668653197
O            3.35243314120820       -1.65515194086049        1.33035478890360
C            4.66672717028035       -1.40162910000281        1.87940372047777
C            5.69867962513556       -1.11976932971642        0.80773174724086
S            0.59173003215089       -1.44995859021033        0.64659443224481
C           -0.29453385800299       -0.31507768317877        1.78610166283436
S           -2.06592269016485       -0.34815821046270        1.48613946688450
P           -2.09901331600710        0.62966004275901       -0.41832039535169
S           -0.71907173700199        1.99172039790229       -0.67560495717701
O           -3.60817109490494        1.11655161309481       -0.52279327410879
C           -4.12225824971257        2.22025536235588        0.25479656427030
C           -5.41924202376135        2.67885821078572       -0.38225100840615
O           -2.02374791800743       -0.49707684245707       -1.51263195008242
C           -2.95214853693979       -1.61250785757711       -1.58450594185601
C           -3.97567757401108       -1.38727699485040       -2.67771799570682
H            1.28098299489734        0.20998878052029       -3.63515161747871
H            1.91026657353323       -1.39129488674159       -3.19924345363424
H            0.61559783520781       -0.65011621664821       -2.24532315567753
H            2.17672711083181        1.13963905421620       -1.49448953796307
H            3.47074593888351        0.43973577082665       -2.50303601342480
H            4.59221384703808       -0.55868701158358        2.57342397615795
H            4.89683950368326       -2.31677853794735        2.42695276921502
H            6.67710873381290       -1.03000120637824        1.27073846004927
H            5.71752177943656       -1.92393304983637        0.07707205207358
H            5.46378651028231       -0.18626547651608        0.29850347032722
H            0.08925067639749        0.69790882378963        1.63490402805256
H           -0.15018487478320       -0.64478279953058        2.81182989286725
H           -4.28199741198455        1.87130502485310        1.27832885558372
H           -3.37545891206852        3.02042041947239        0.25960578174463
H           -5.81207538832456        3.52056055951989        0.17932301212233
H           -5.24412419176878        2.98796434365408       -1.40898751174657
H           -6.14795292276126        1.87365281298582       -0.37444064137233
H           -2.32240080199448       -2.47777968045066       -1.79868756864630
H           -3.43112033604744       -1.73677998164707       -0.60998054312582
H           -4.60559808344943       -2.26832968208903       -2.75499019601724
H           -4.59373853550355       -0.52368383292063       -2.44778658339490
H           -3.47812672554226       -1.22012729488225       -3.62892972695727
41
 energy: -65.055699869738 gnorm: 0.000723887386 xtb: 6.7.1 (edcfbbe)
C            1.52399550914406       -0.45296306210656       -2.81083553632706
C            2.56515211011715        0.21461266003671       -1.93468128273326
O            2.99382386021627       -0.67002107235633       -0.88471808786159
P            2.49129920462689       -0.53450886105813        0.61835883073702
S            2.62629232604549        1.26710972294687        1.39046283383776
O            3.35287855479186       -1.65502046282433        1.33013972884165
C            4.66675553144866       -1.40134907047312        1.87876531123358
C            5.69899164403277       -1.11946623572673        0.80679812067553
S            0.59122182687037       -1.45273931908039        0.64669095163250
C           -0.29471354904222       -0.31645173139126        1.78454100167452
S           -2.06669319776731       -0.34930448432931        1.48574407768939
P           -2.09811479799627        0.63054424295880       -0.41783523032530
S           -0.71978471436077        1.99392611887610       -0.67719319101130
O           -3.60730806193799        1.11683721751463       -0.52221009197784
C           -4.12136456914658        2.22061844091767        0.25422641809557
C           -5.41947460947695        2.67868813967310       -0.38203505074295
O           -2.02365306242874       -0.49631635311185       -1.51197554561110
C           -2.95147991125292       -1.61165232186536       -1.58375213000913
C           -3.97620289285122       -1.38718613053732       -2.67667991412552
H            1.28197876344978        0.21008725034823       -3.63528926393734
H            1.90965190337899       -1.39170988736916       -3.19811650219174
H            0.61489508144412       -0.64912918364827       -2.24544463140821
H            2.17683358405714        1.13931362625507       -1.49369487528117
H            3.47064296694391        0.43876630070064       -2.50193597007908
H            4.59290848084878       -0.55798148007758        2.57228496414358
H            4.89744384920815       -2.31614514890724        2.42658328633312
H            6.67742456264430       -1.02966802390207        1.26951613087126
H            5.71746013887851       -1.92359197091046        0.07610002719720
H            5.46363042670054       -0.18599897529781        0.29773399804328
H            0.08987166149808        0.69615232146720        1.63404216995500
H           -0.15171989902703       -0.64591278660116        2.81055646129698
H           -4.28079281054927        1.87295935763179        1.27811976919463
H           -3.37515985826472        3.02146896641300        0.25795226856316
H           -5.81181154936847        3.52014249539368        0.18002580136974
H           -5.24556468568329        2.98763815049540       -1.40897922344823
H           -6.14762245492821        1.87301690781464       -0.37324650492876
H           -2.32192199631228       -2.47689593307633       -1.79886688726160
H           -3.43049597955132       -1.73688222541856       -0.60942708499838
H           -4.60589882057291       -2.26837504482692       -2.75301861533974
H           -4.59414185744984       -0.52358314763988       -2.44654940113317
H           -3.47928395540606       -1.22014112596095       -3.62821805529247
41
 energy: -65.055701666625 gnorm: 0.000449193936 xtb: 6.7.1 (edcfbbe)
C            1.52387304911016       -0.45301888956399       -2.81100827981652
C            2.56561496652320        0.21386133208330       -1.93434017337183
O            2.99350117205212       -0.67137347383283       -0.88537028757688
P            2.49148446074625       -0.53585778405981        0.61790906593792
S            2.62348106147603        1.26586388538603        1.39005542092846
O            3.35421619139945       -1.65588179832907        1.32913562234657