      -----------------------------------------------------------      
     |                   =====================                   |     
     |                           x T B                           |     
     |                   =====================                   |     
     |                         S. Grimme                         |     
     |          Mulliken Center for Theoretical Chemistry        |     
     |                    University of Bonn                     |     
      -----------------------------------------------------------      

   * xtb version 6.7.1 (edcfbbe) compiled by 'albert@albert-system' on 2024-07-22

   xtb is free software: you can redistribute it and/or modify it under
   the terms of the GNU Lesser General Public License as published by
   the Free Software Foundation, either version 3 of the License, or
   (at your option) any later version.
   
   xtb is distributed in the hope that it will be useful,
   but WITHOUT ANY WARRANTY; without even the implied warranty of
   MERCHANTABILITY or FITNESS FOR A PARTICULAR PURPOSE.  See the
   GNU Lesser General Public License for more details.
   
   Cite this work as:
   * C. Bannwarth, E. Caldeweyher, S. Ehlert, A. Hansen, P. Pracht,
     J. Seibert, S. Spicher, S. Grimme, WIREs Comput. Mol. Sci., 2020, 11,
     e01493. DOI: 10.1002/wcms.1493
   
   for GFN2-xTB:
   * C. Bannwarth, S. Ehlert and S. Grimme., J. Chem. Theory Comput., 2019,
     15, 1652-1671. DOI: 10.1021/acs.jctc.8b01176
   for GFN1-xTB:
   * S. Grimme, C. Bannwarth, P. Shushkov, J. Chem. Theory Comput., 2017,
     13, 1989-2009. DOI: 10.1021/acs.jctc.7b00118
   for GFN0-xTB:
   * P. Pracht, E. Caldeweyher, S. Ehlert, S. Grimme, ChemRxiv, 2019, preprint.
     DOI: 10.26434/chemrxiv.8326202.v1
   for GFN-FF:
   * S. Spicher and S. Grimme, Angew. Chem. Int. Ed., 2020, 59, 15665-15673.
     DOI: 10.1002/anie.202004239
   
   for ALPB and GBSA implicit solvation:
   * S. Ehlert, M. Stahn, S. Spicher, S. Grimme, J. Chem. Theory Comput.,
     2021, 17, 4250-4261. DOI: 10.1021/acs.jctc.1c00471
   
   for ddCOSMO and CPCM-X implicit solvation:
   * M. Stahn, S. Ehlert, S. Grimme, J. Phys. Chem. A,
     2023, XX, XXXX-XXXX. DOI: 10.1021/acs.jpca.3c04382
   
   for DFT-D4:
   * E. Caldeweyher, C. Bannwarth and S. Grimme, J. Chem. Phys., 2017,
     147, 034112. DOI: 10.1063/1.4993215
   * E. Caldeweyher, S. Ehlert, A. Hansen, H. Neugebauer, S. Spicher,
     C. Bannwarth and S. Grimme, J. Chem. Phys., 2019, 150, 154122.
     DOI: 10.1063/1.5090222
   * E. Caldeweyher, J.-M. Mewes, S. Ehlert and S. Grimme, Phys. Chem. Chem. Phys.
     2020, 22, 8499-8512. DOI: 10.1039/D0CP00502A
   
   for sTDA-xTB:
   * S. Grimme and C. Bannwarth, J. Chem. Phys., 2016, 145, 054103.
     DOI: 10.1063/1.4959605
   
   in the mass-spec context:
   * V. Asgeirsson, C. Bauer and S. Grimme, Chem. Sci., 2017, 8, 4879.
     DOI: 10.1039/c7sc00601b
   * J. Koopman and S. Grimme, ACS Omega 2019, 4, 12, 15120-15133.
     DOI: 10.1021/acsomega.9b02011
   
   for metadynamics refer to:
   * S. Grimme, J. Chem. Theory Comput., 2019, 155, 2847-2862
     DOI: 10.1021/acs.jctc.9b00143
   
   for SPH calculations refer to:
   * S. Spicher and S. Grimme, J. Chem. Theory Comput., 2021, 17, 1701-1714
     DOI: 10.1021/acs.jctc.0c01306
   
   for ONIOM refer to:
   * C. Plett, A. Katbashev, S. Ehlert, S. Grimme, M. Bursch,
     Phys. Chem. Chem. Phys., 2023, 25, 17860-17868. DOI: 10.1039/D3CP02178E
   
   for DIPRO refer to:
   * J. Kohn, N. Gildemeister, S. Grimme, D. Fazzi, A. Hansen,
     J. Chem. Phys., 2023, just accepted.
   
   for PTB refer to:
   * S. Grimme, M. Mueller, A. Hansen, J. Chem. Phys., 2023, 158, 124111.
     DOI: 10.1063/5.0137838
   
   with help from (in alphabetical order)
   P. Atkinson, C. Bannwarth, F. Bohle, G. Brandenburg, E. Caldeweyher
   M. Checinski, S. Dohm, S. Ehlert, S. Ehrlich, I. Gerasimov, C. Hölzer
   A. Katbashev, J. Kohn, J. Koopman, C. Lavigne, S. Lehtola, F. März, M. Müller,
   F. Musil, H. Neugebauer, J. Pisarek, C. Plett, P. Pracht, F. Pultar,
   J. Seibert, P. Shushkov, S. Spicher, M. Stahn, M. Steiner, T. Strunk,
   J. Stückrath, T. Rose, and J. Unsleber
   
 * started run on 2025/04/09 at 07:31:36.268     
   ID    Z sym.   atoms
    1    6 C      1, 2, 4, 6, 7, 9, 12, 13, 18, 20
    2    8 O      3, 5, 10, 11, 17, 19
    3    1 H      8, 21-38
    4   16 S      14, 16
    5   15 P      15

           -------------------------------------------------
          |                Calculation Setup                |
           -------------------------------------------------

          program call               : /software/projects/pawsey0265/mwang1/xtb/bin/xtb gas.coord --gfn2 --sp --chrg 0 --norestart --parallel 1
          hostname                   : nid002043
          coordinate file            : gas.coord
          omp threads                :                     1


           -------------------------------------------------
          |                 G F N 2 - x T B                 |
           -------------------------------------------------

        Reference                      10.1021/acs.jctc.8b01176
      * Hamiltonian:
        H0-scaling (s, p, d)           1.850000    2.230000    2.230000
        zeta-weighting                 0.500000
      * Dispersion:
        s8                             2.700000
        a1                             0.520000
        a2                             5.000000
        s9                             5.000000
      * Repulsion:
        kExp                           1.500000    1.000000
        rExp                           1.000000
      * Coulomb:
        alpha                          2.000000
        third order                    shell-resolved
        anisotropic                    true
        a3                             3.000000
        a5                             4.000000
        cn-shift                       1.200000
        cn-exp                         4.000000
        max-rad                        5.000000


          ...................................................
          :                      SETUP                      :
          :.................................................:
          :  # basis functions                 113          :
          :  # atomic orbitals                 110          :
          :  # shells                           60          :
          :  # electrons                       112          :
          :  max. iterations                   250          :
          :  Hamiltonian                  GFN2-xTB          :
          :  restarted?                      false          :
          :  GBSA solvation                  false          :
          :  PC potential                    false          :
          :  electronic temp.          300.0000000     K    :
          :  accuracy                    1.0000000          :
          :  -> integral cutoff          0.2500000E+02      :
          :  -> integral neglect         0.1000000E-07      :
          :  -> SCF convergence          0.1000000E-05 Eh   :
          :  -> wf. convergence          0.1000000E-03 e    :
          :  Broyden damping             0.4000000          :
          :  net charge                          0          :
          :  unpaired electrons                  0          :
          ...................................................

 iter      E             dE          RMSdq      gap      omega  full diag
   1    -65.0436792 -0.650437E+02  0.579E+00    4.33       0.0  T
   2    -65.2053030 -0.161624E+00  0.332E+00    3.07       1.0  T
   3    -65.2164348 -0.111318E-01  0.145E+00    3.08       1.0  T
   4    -65.2233784 -0.694360E-02  0.472E-01    2.78       1.0  T
   5    -65.2248021 -0.142372E-02  0.226E-01    2.91       1.0  T
   6    -65.2249287 -0.126606E-03  0.916E-02    2.90       1.0  T
   7    -65.2249495 -0.207689E-04  0.361E-02    2.91       1.0  T
   8    -65.2249570 -0.756731E-05  0.181E-02    2.91       1.0  T
   9    -65.2249580 -0.972629E-06  0.351E-03    2.92       4.6  T
  10    -65.2249581 -0.696689E-07  0.194E-03    2.92       8.4  T
  11    -65.2249581 -0.338341E-08  0.410E-04    2.92      39.6  T
  12    -65.2249581 -0.765112E-09  0.161E-04    2.92     101.0  T

   *** convergence criteria satisfied after 12 iterations ***

         #    Occupation            Energy/Eh            Energy/eV
      -------------------------------------------------------------
         1        2.0000           -0.7637016             -20.7814
       ...           ...                  ...                  ...
        50        2.0000           -0.4563738             -12.4186
        51        2.0000           -0.4450231             -12.1097
        52        2.0000           -0.4324310             -11.7670
        53        2.0000           -0.4248785             -11.5615
        54        2.0000           -0.4008870             -10.9087
        55        2.0000           -0.3704561             -10.0806
        56        2.0000           -0.3669954              -9.9865 (HOMO)
        57                         -0.2598558              -7.0710 (LUMO)
        58                         -0.2448546              -6.6628
        59                         -0.2364344              -6.4337
        60                         -0.1932824              -5.2595
        61                         -0.1603525              -4.3634
       ...                                ...                  ...
       110                          1.3268634              36.1058
      -------------------------------------------------------------
                  HL-Gap            0.1071396 Eh            2.9154 eV
             Fermi-level           -0.3134256 Eh           -8.5287 eV

 SCC (total)                   0 d,  0 h,  0 min,  0.099 sec
 SCC setup                      ...        0 min,  0.000 sec (  0.468%)
 Dispersion                     ...        0 min,  0.000 sec (  0.488%)
 classical contributions        ...        0 min,  0.000 sec (  0.096%)
 integral evaluation            ...        0 min,  0.034 sec ( 34.989%)
 iterations                     ...        0 min,  0.028 sec ( 28.206%)
 molecular gradient             ...        0 min,  0.035 sec ( 35.331%)
 printout                       ...        0 min,  0.000 sec (  0.388%)

         :::::::::::::::::::::::::::::::::::::::::::::::::::::
         ::                     SUMMARY                     ::
         :::::::::::::::::::::::::::::::::::::::::::::::::::::
         :: total energy             -64.652547974972 Eh    ::
         :: gradient norm              0.041215169202 Eh/a0 ::
         :: HOMO-LUMO gap              2.915416241091 eV    ::
         ::.................................................::
         :: SCC energy               -65.224199653896 Eh    ::
         :: -> isotropic ES            0.139779024630 Eh    ::
         :: -> anisotropic ES         -0.008173403967 Eh    ::
         :: -> anisotropic XC          0.016552305752 Eh    ::
         :: -> dispersion             -0.043826803268 Eh    ::
         :: repulsion energy           0.571651678925 Eh    ::
         :: add. restraining           0.000000000000 Eh    ::
         :: total charge              -0.000000000000 e     ::
         :::::::::::::::::::::::::::::::::::::::::::::::::::::

           -------------------------------------------------
          |                Property Printout                |
           -------------------------------------------------

    * Orbital Energies and Occupations

         #    Occupation            Energy/Eh            Energy/eV
      -------------------------------------------------------------
         1        2.0000           -0.7637016             -20.7814
       ...           ...                  ...                  ...
        44        2.0000           -0.4755373             -12.9400
        45        2.0000           -0.4684870             -12.7482
        46        2.0000           -0.4613727             -12.5546
        47        2.0000           -0.4602028             -12.5228
        48        2.0000           -0.4589927             -12.4898
        49        2.0000           -0.4582518             -12.4697
        50        2.0000           -0.4563738             -12.4186
        51        2.0000           -0.4450231             -12.1097
        52        2.0000           -0.4324310             -11.7670
        53        2.0000           -0.4248785             -11.5615
        54        2.0000           -0.4008870             -10.9087
        55        2.0000           -0.3704561             -10.0806
        56        2.0000           -0.3669954              -9.9865 (HOMO)
        57                         -0.2598558              -7.0710 (LUMO)
        58                         -0.2448546              -6.6628
        59                         -0.2364344              -6.4337
        60                         -0.1932824              -5.2595
        61                         -0.1603525              -4.3634
        62                         -0.1404627              -3.8222
        63                         -0.1064443              -2.8965
        64                         -0.0415584              -1.1309
        65                         -0.0365648              -0.9950
        66                         -0.0268826              -0.7315
        67                         -0.0200665              -0.5460
       ...                                ...                  ...
       110                          1.3268634              36.1058
      -------------------------------------------------------------
                  HL-Gap            0.1071396 Eh            2.9154 eV
             Fermi-level           -0.3134256 Eh           -8.5287 eV

     #   Z          covCN         q      C6AA      α(0)
     1   6 C        3.751    -0.116    22.783     6.807
     2   6 C        3.695     0.074    19.517     6.320
     3   8 O        1.703    -0.255    18.223     5.764
     4   6 C        2.718     0.367    20.782     7.463
     5   8 O        0.856    -0.417    22.024     6.292
     6   6 C        3.830    -0.090    22.195     6.703
     7   6 C        3.855     0.013    20.316     6.411
     8   1 H        0.924     0.085     1.925     2.170
     9   6 C        2.744     0.364    20.824     7.472
    10   8 O        0.856    -0.392    21.520     6.220
    11   8 O        1.713    -0.243    18.025     5.732
    12   6 C        3.695     0.078    19.450     6.309
    13   6 C        3.751    -0.115    22.758     6.803
    14  16 S        1.952    -0.168   148.147    20.486
    15  15 P        3.882     0.393   143.937    21.551
    16  16 S        0.925    -0.395   156.379    21.151
    17   8 O        1.654    -0.236    17.926     5.716
    18   6 C        3.823     0.028    20.087     6.378
    19   8 O        1.656    -0.257    18.270     5.770
    20   6 C        3.827     0.031    20.038     6.369
    21   1 H        0.925     0.056     2.248     2.344
    22   1 H        0.925     0.062     2.180     2.309
    23   1 H        0.925     0.056     2.248     2.344
    24   1 H        0.925     0.063     2.169     2.303
    25   1 H        0.924     0.065     2.136     2.286
    26   1 H        0.925     0.089     1.887     2.148
    27   1 H        0.924     0.093     1.853     2.129
    28   1 H        0.924     0.068     2.105     2.269
    29   1 H        0.924     0.075     2.033     2.230
    30   1 H        0.925     0.058     2.227     2.333
    31   1 H        0.925     0.061     2.186     2.312
    32   1 H        0.925     0.054     2.268     2.355
    33   1 H        0.925     0.071     2.070     2.250
    34   1 H        0.925     0.080     1.976     2.198
    35   1 H        0.925     0.073     2.051     2.240
    36   1 H        0.924     0.081     1.966     2.193
    37   1 H        0.925     0.073     2.058     2.243
    38   1 H        0.924     0.072     2.061     2.245

 Mol. C6AA /au·bohr⁶  :      18353.174998
 Mol. C8AA /au·bohr⁸  :     515091.290321
 Mol. α(0) /au        :        208.617925


Wiberg/Mayer (AO) data.
largest (>0.10) Wiberg bond orders for each atom

 ---------------------------------------------------------------------------
     #   Z sym  total        # sym  WBO       # sym  WBO       # sym  WBO
 ---------------------------------------------------------------------------
     1   6 C    3.991 --     2 C    1.014    23 H    0.986    22 H    0.984
                            21 H    0.982
     2   6 C    3.918 --     1 C    1.014    24 H    0.972    25 H    0.969
                             3 O    0.922
     3   8 O    2.329 --     4 C    1.172     2 C    0.922     5 O    0.178
     4   6 C    3.921 --     5 O    1.733     3 O    1.172     6 C    0.959
     5   8 O    2.027 --     4 C    1.733     3 O    0.178
     6   6 C    3.985 --     7 C    0.980    27 H    0.962     4 C    0.959
                            26 H    0.954
     7   6 C    3.973 --     6 C    0.980    14 S    0.959     9 C    0.946
                             8 H    0.939
     8   1 H    0.993 --     7 C    0.939
     9   6 C    3.927 --    10 O    1.749    11 O    1.160     7 C    0.946
    10   8 O    2.054 --     9 C    1.749    11 O    0.174
    11   8 O    2.367 --     9 C    1.160    12 C    0.911    10 O    0.174
    12   6 C    3.906 --    13 C    1.015    28 H    0.970    29 H    0.968
                            11 O    0.911
    13   6 C    3.991 --    12 C    1.015    32 H    0.986    31 H    0.985
                            30 H    0.982
    14  16 S    2.253 --     7 C    0.959    15 P    0.949    16 S    0.140
    15  15 P    5.247 --    16 S    1.551    17 O    1.308    19 O    1.278
                            14 S    0.949
    16  16 S    1.878 --    15 P    1.551    14 S    0.140
    17   8 O    2.396 --    15 P    1.308    18 C    0.915
    18   6 C    3.911 --    35 H    0.981    34 H    0.979    33 H    0.976
                            17 O    0.915
    19   8 O    2.385 --    15 P    1.278    20 C    0.927
    20   6 C    3.903 --    37 H    0.979    38 H    0.978    36 H    0.973
                            19 O    0.927
    21   1 H    0.996 --     1 C    0.982
    22   1 H    0.996 --     1 C    0.984
    23   1 H    0.997 --     1 C    0.986
    24   1 H    0.996 --     2 C    0.972
    25   1 H    0.996 --     2 C    0.969
    26   1 H    0.992 --     6 C    0.954
    27   1 H    0.991 --     6 C    0.962
    28   1 H    0.995 --    12 C    0.970
    29   1 H    0.994 --    12 C    0.968
    30   1 H    0.996 --    13 C    0.982
    31   1 H    0.996 --    13 C    0.985
    32   1 H    0.997 --    13 C    0.986
    33   1 H    0.995 --    18 C    0.976
    34   1 H    0.993 --    18 C    0.979
    35   1 H    0.995 --    18 C    0.981
    36   1 H    0.993 --    20 C    0.973
    37   1 H    0.995 --    20 C    0.979
    38   1 H    0.995 --    20 C    0.978
 ---------------------------------------------------------------------------

Topologies differ in total number of bonds
Writing topology from bond orders to xtbtopo.mol

molecular dipole:
                 x           y           z       tot (Debye)
 q only:       -0.182      -0.022      -2.514
   full:       -0.298       0.072      -2.602       6.660
molecular quadrupole (traceless):
                xx          xy          yy          xz          yz          zz
 q only:        2.008      -8.118      10.100       0.529      -0.656     -12.108
  q+dip:        7.735      -8.148       8.449      -1.513      -2.452     -16.184
   full:        7.368      -8.658       8.375      -0.892      -2.785     -15.743


           -------------------------------------------------
          | TOTAL ENERGY              -64.652547974972 Eh   |
          | GRADIENT NORM               0.041215169202 Eh/α |
          | HOMO-LUMO GAP               2.915416241091 eV   |
           -------------------------------------------------

------------------------------------------------------------------------
 * finished run on 2025/04/09 at 07:31:36.425     
------------------------------------------------------------------------
 total:
 * wall-time:     0 d,  0 h,  0 min,  0.156 sec
 *  cpu-time:     0 d,  0 h,  0 min,  0.110 sec
 * ratio c/w:     0.706 speedup
 SCF:
 * wall-time:     0 d,  0 h,  0 min,  0.099 sec
 *  cpu-time:     0 d,  0 h,  0 min,  0.086 sec
 * ratio c/w:     0.868 speedup

