
                                 *****************
                                 * O   R   C   A *
                                 *****************

                                            #,                                       
                                            ###                                      
                                            ####                                     
                                            #####                                    
                                            ######                                   
                                           ########,                                 
                                     ,,################,,,,,                         
                               ,,#################################,,                 
                          ,,##########################################,,             
                       ,#########################################, ''#####,          
                    ,#############################################,,   '####,        
                  ,##################################################,,,,####,       
                ,###########''''           ''''###############################       
              ,#####''   ,,,,##########,,,,          '''####'''          '####       
            ,##' ,,,,###########################,,,                        '##       
           ' ,,###''''                  '''############,,,                           
         ,,##''                                '''############,,,,        ,,,,,,###''
      ,#''                                            '''#######################'''  
     '                                                          ''''####''''         
             ,#######,   #######,   ,#######,      ##                                
            ,#'     '#,  ##    ##  ,#'     '#,    #''#        ,####,   ,####,        
            ##       ##  ##   ,#'  ##            #'  '#       #'       #'  '#        
            ##       ##  #######   ##           ,######,      #####,   #    #        
            '#,     ,#'  ##    ##  '#,     ,#' ,#      #,     #,   #   #,  ,#        
             '#######'   ##     ##  '#######'  #'      '#     '####' # '####'        



                #########################################################
                #                        -***-                          #
                #          Department of theory and spectroscopy        #
                #                                                       #
                #                      Frank Neese                      #
                #                                                       #
                #     Directorship, Architecture, Infrastructure        #
                #                    SHARK, DRIVERS                     #
                #        Core code/Algorithms in most modules           #
                #                                                       #
                #        Max Planck Institute fuer Kohlenforschung      #
                #                Kaiser Wilhelm Platz 1                 #
                #                 D-45470 Muelheim/Ruhr                 #
                #                      Germany                          #
                #                                                       #
                #                  All rights reserved                  #
                #                        -***-                          #
                #########################################################


                         Program Version 6.0.1  -  RELEASE   -


 With contributions from (in alphabetic order):
[Max-Planck-Institut fuer Kohlenforschung]                               
  Daniel Aravena         : Magnetic Suceptibility                        
  Michael Atanasov       : Ab Initio Ligand Field Theory (pilot matlab implementation)
  Alexander A. Auer      : GIAO ZORA, VPT2 properties, NMR spectrum      
  Ute Becker             : All parallelization in ORCA, NUMFREQ, NUMCALC 
  Giovanni Bistoni       : ED, misc. LED, open-shell LED, HFLD           
  Martin Brehm           : Molecular dynamics                            
  Dmytro Bykov           : pre 5.0 version of the SCF Hessian            
  Marcos Casanova-Páez   : Triplet and SCS-CIS(D). UHF-(DLPNO)-IP/EA/STEOM-CCSD. UHF-CVS-IP/STEOM-CCSD   
  Vijay G. Chilkuri      : MRCI spin determinant printing, contributions to CSF-ICE 
  Pauline Colinet        : FMM embedding                                 
  Dipayan Datta          : RHF DLPNO-CCSD density                        
  Achintya Kumar Dutta   : EOM-CC, STEOM-CC                              
  Nicolas Foglia         : Exact transition moments, OPA infrastructure, MCD improvements    
  Dmitry Ganyushin       : Spin-Orbit,Spin-Spin,Magnetic field MRCI      
  Miquel Garcia-Rates    : C-PCM and meta-GGA Hessian, CCSD/C-PCM, Gaussian charge scheme 
  Tiago L. C. Gouveia    : GS-ROHF, GS-ROCIS                             
  Yang Guo               : DLPNO-NEVPT2, F12-NEVPT2, CIM, IAO-localization        
  Andreas Hansen         : Spin unrestricted coupled pair/coupled cluster methods 
  Ingolf Harden          : AUTO-CI MPn and infrastructure                
  Benjamin Helmich-Paris : MC-RPA, TRAH-(SCF,CASSCF), AVAS, COSX integrals, SCF dyn. polar. 
  Lee Huntington         : MR-EOM, pCC                                   
  Robert Izsak           : Overlap fitted RIJCOSX, COSX-SCS-MP3, EOM     
  Riya Kayal             : Wick's Theorem for AUTO-CI, AUTO-CI UHF-CCSDT 
  Emily Kempfer          : AUTO-CI, RHF CISDT and CCSDT                  
  Christian Kollmar      : KDIIS, OOCD, Brueckner-CCSD(T), CCSD density, CASPT2, CASPT2-K, improved NEVPT2 
  Axel Koslowski         : Symmetry handling                             
  Simone Kossmann        : meta-GGA functionals, TD-DFT gradient, OOMP2, (MP2 Hessian; deprecated post 5.0) 
  Lucas Lang             : DCDCAS                                        
  Marvin Lechner         : AUTO-CI (C++ implementation), FIC-MRCC        
  Spencer Leger          : CASSCF response                               
  Dagmar Lenk            : GEPOL surface, SMD, ORCA-2-JSON               
  Dimitrios Liakos       : Extrapolation schemes; Compound Job, initial MDCI parallelization 
  Dimitrios Manganas     : Further ROCIS development; embedding schemes. LFT, Crystal Embedding 
  Dimitrios Pantazis     : SARC Basis sets                               
  Anastasios Papadopoulos: AUTO-CI, single reference methods and gradients 
  Taras Petrenko         : pre 6.0 DFT Hessian and TD-DFT gradient, (ASA, deprecated), ECA, 1-Electron XAS/XES, NRVS 
  Peter Pinski           : DLPNO-MP2, DLPNO-MP2 Gradient                 
  Christoph Reimann      : Effective Core Potentials                     
  Marius Retegan         : Local ZFS, SOC                                
  Christoph Riplinger    : Optimizer, TS searches, QM/MM, DLPNO-CCSD(T), (RO)-DLPNO pert. Triples 
  Michael Roemelt        : Original ROCIS implementation                 
  Masaaki Saitow         : Open-shell DLPNO-CCSD energy and density      
  Barbara Sandhoefer     : DKH picture change effects                    
  Kantharuban Sivalingam : CASSCF convergence/infrastructure, NEVPT2 and variants, FIC-MRCI 
  Bernardo de Souza      : ESD, SOC TD-DFT                               
  Georgi L. Stoychev     : AutoAux, RI-MP2 NMR, DLPNO-MP2 response, X2C  
  Van Anh Tran           : RI-MP2 g-tensors                              
  Willem Van den Heuvel  : Paramagnetic NMR                              
  Zikuan Wang            : NOTCH, Electric field optimization            
  Frank Wennmohs         : Technical directorship and infrastructure     
  Hang Xu                : AUTO-CI-Response properties                   
                                                                         
[FACCTs GmbH]                                                            
  Markus Bursch, Miquel Garcia-Rates, Christoph Riplinger, Bernardo de Souza, Georgi L. Stoychev 
                                                                 
  APM, Basis sets (HGBS, AHGBS, def-TZVP (Ac-Lr), def2-XVPD (La-Lu)), CI-OPT, improved COSX, DLPNO-Multilevel,           
  DOCKER, DRACO, updates on ESD, GOAT, IRC, LR-CPCM, MBIS, meta-GGA TD-DFT gradient, ML-optimized integration grids, 
  MM, NACMEs, nearIR, NEB, NEB-TS, NL-DFT gradient (VV10), 2- and 3-layer-ONIOM, interface openCOSMO-RS, QMMM,   
  Crystal-QMMM, SF, symmetry and pop. for TD-DFT, r2SCAN hybrids, SOLVATOR                                   
                                                                         
[Other institutions]                                                     
  V. Asgeirsson          : NEB                                           
  Christoph Bannwarth    : sTDA-DFT, sTD-DFT, PBEh-3c, B97-3c, D3        
  Sebastian Ehlert       : rSCAN, r2SCAN, r2SCAN-3c, D4, dhf basis sets  
  Marvin Friede          : D4 for Fr, Ra, Ac-Lr                          
  Lars Goerigk           : TD-DFT with DH, B97 family of functionals     
  Stefan Grimme          : VdW corrections, initial TS optimization, DFT functionals, gCP, sTDA/sTD-DF 
  Waldemar Hujo          : DFT-NL                                        
  H. Jonsson             : NEB                                           
  Holger Kruse           : gCP                                           
  Marcel Mueller         : wB97X-3c, vDZP basis set                      
  Hagen Neugebauer       : wr2SCAN                                       
  Tobias Risthaus        : range-separated hybrid DFT                    
  Lukas Wittmann         : regularized MP2, r2SCAN double-hybrids, wr2SCAN        
                                                                         
We gratefully acknowledge several colleagues who have allowed us to      
interface, adapt or use parts of their codes:                            
  Ed Valeev, F. Pavosevic, A. Kumar             : LibInt (2-el integral package), F12 methods 
  Garnet Chan, S. Sharma, J. Yang, R. Olivares  : DMRG                   
  Ulf Ekstrom                                   : XCFun DFT Library      
  Mihaly Kallay                                 : mrcc  (arbitrary order and MRCC methods)
  Frank Weinhold                                : gennbo (NPA and NBO analysis)           
  Simon Mueller                                 : openCOSMO-RS                            
  Christopher J. Cramer and Donald G. Truhlar   : smd solvation model                     
  S Lehtola, MJT Oliveira, MAL Marques          : LibXC Library                           
  Liviu Ungur et al                             : ANISO software                          


 Your calculation uses the libint2 library for the computation of 2-el integrals
 For citations please refer to: http://libint.valeyev.net

 Your ORCA version has been built with support for libXC version: 6.2.2
 For citations please refer to: https://libxc.gitlab.io

 This ORCA versions uses:
   CBLAS   interface :  Fast vector & matrix operations
   LAPACKE interface :  Fast linear algebra routines
   SCALAPACK package :  Parallel linear algebra routines
   Shared memory     :  Shared parallel matrices
   BLAS/LAPACK       :  OpenBLAS 0.3.27  USE64BITINT DYNAMIC_ARCH NO_AFFINITY Zen SINGLE_THREADED
        Core in use  :  Zen
   Copyright (c) 2011-2014, The OpenBLAS Project


Your calculation utilizes the geometrical counterpoise correction gCP
Please cite in your paper:
H.Kruse, S. Grimme J.Chem.Phys., 136, (2012), 154101 
   

Your calculation utilizes the atom-pairwise dispersion correction
based on EEQ partial charges (D4)


================================================================================

----- Orbital basis set information -----
Your calculation utilizes the basis: def2-mTZVPP
   Stefan Grimme, Andreas Hansen, Sebastian Ehlert, and Jan-Michael Mewes 
   J. Chem. Phys. 154, 064103 (2021). DOI: 10.1063/5.0040021

----- AuxJ basis set information -----
Your calculation utilizes the auxiliary basis: def2/J
   F. Weigend, Phys. Chem. Chem. Phys. 8, 1057 (2006).

================================================================================
                                        WARNINGS
                       Please study these warnings very carefully!
================================================================================

WARNING: Old DensityContainer found on disk!
         Will remove this file - 
         If you want to keep old densities, please start your calculation with a different basename. 



WARNING: SCAN, rSCAN, or r2SCAN functional requested.
  ===> : libXC variant has now been activated.



================================================================================
                                       INPUT FILE
================================================================================
NAME = sp_gas.inp
|  1> ! r2scan-3c def2/J RI DEFGRID2 scfconv6 printgap
|  2> %output
|  3>     printlevel normal
|  4> end
|  5> * xyz 0 1
|  6> C 5.9109813739 -1.9590130841 -0.7873885759
|  7> C 4.8518896423 -0.996727474 -1.2876393374
|  8> O 3.5596374597 -1.5455103871 -0.961499667
|  9> C 2.4949042294 -0.9104779823 -1.4003632213
| 10> O 2.5283008612 0.1025837235 -2.0640769195
| 11> C 1.2153048196 -1.6160993589 -0.9872134568
| 12> C 0.2046872526 -0.5788035005 -0.5193979244
| 13> H 0.1224304779 0.2185101205 -1.2714705564
| 14> C 0.5900208519 0.0948700708 0.7818400971
| 15> O -0.2396243174 0.4362061368 1.6009357308
| 16> O 1.8801085602 0.2634666722 0.8997818027
| 17> C 2.3708057915 1.008217018 2.0373387612
| 18> C 2.3504964872 2.4988955865 1.745282569
| 19> S -1.451687755 -1.3024484636 -0.2954600331
| 20> P -2.501734278 0.4752070935 0.222550768
| 21> S -1.7677712095 2.1755524686 -0.4144022467
| 22> O -3.9345909343 0.1498023923 -0.4345411299
| 23> C -4.1180609032 0.1258154459 -1.8519555205
| 24> O -2.9266852961 0.4515056719 1.7421871175
| 25> C -3.5862281168 -0.6827348484 2.3387713492
| 26> H 6.8940294091 -1.5590808741 -1.0123016232
| 27> H 5.8151567559 -2.0936681892 0.2856383865
| 28> H 5.797071451 -2.9236020996 -1.2726793457
| 29> H 4.9047134244 -0.8569902168 -2.3717744436
| 30> H 4.9344947104 -0.0145620281 -0.8121341466
| 31> H 1.4354112289 -2.3441322832 -0.2082397806
| 32> H 0.8107956907 -2.1348446251 -1.8583636493
| 33> H 1.7462161871 0.7712492982 2.9027313593
| 34> H 3.386295894 0.6401093621 2.1825139499
| 35> H 2.9263908571 2.7144257608 0.8489813743
| 36> H 1.3274400258 2.8369770448 1.5882279466
| 37> H 2.7750668239 3.0373232246 2.5858989631
| 38> H -3.6794488151 1.0183292021 -2.3017713574
| 39> H -5.1935149866 0.11168401 -2.008655734
| 40> H -3.6559955724 -0.7683103915 -2.270505728
| 41> H -3.633016324 -0.4539200355 3.4002346196
| 42> H -3.0032793902 -1.5874902878 2.1650906088
| 43> H -4.5839551293 -0.792722559 1.9176856433
| 44> *
| 45> 
| 46>                          ****END OF INPUT****
================================================================================

                       ****************************
                       * Single Point Calculation *
                       ****************************

---------------------------------
CARTESIAN COORDINATES (ANGSTROEM)
---------------------------------
  C      5.910981   -1.959013   -0.787389
  C      4.851890   -0.996727   -1.287639
  O      3.559637   -1.545510   -0.961500
  C      2.494904   -0.910478   -1.400363
  O      2.528301    0.102584   -2.064077
  C      1.215305   -1.616099   -0.987213
  C      0.204687   -0.578804   -0.519398
  H      0.122430    0.218510   -1.271471
  C      0.590021    0.094870    0.781840
  O     -0.239624    0.436206    1.600936
  O      1.880109    0.263467    0.899782
  C      2.370806    1.008217    2.037339
  C      2.350496    2.498896    1.745283
  S     -1.451688   -1.302448   -0.295460
  P     -2.501734    0.475207    0.222551
  S     -1.767771    2.175552   -0.414402
  O     -3.934591    0.149802   -0.434541
  C     -4.118061    0.125815   -1.851956
  O     -2.926685    0.451506    1.742187
  C     -3.586228   -0.682735    2.338771
  H      6.894029   -1.559081   -1.012302
  H      5.815157   -2.093668    0.285638
  H      5.797071   -2.923602   -1.272679
  H      4.904713   -0.856990   -2.371774
  H      4.934495   -0.014562   -0.812134
  H      1.435411   -2.344132   -0.208240
  H      0.810796   -2.134845   -1.858364
  H      1.746216    0.771249    2.902731
  H      3.386296    0.640109    2.182514
  H      2.926391    2.714426    0.848981
  H      1.327440    2.836977    1.588228
  H      2.775067    3.037323    2.585899
  H     -3.679449    1.018329   -2.301771
  H     -5.193515    0.111684   -2.008656
  H     -3.655996   -0.768310   -2.270506
  H     -3.633016   -0.453920    3.400235
  H     -3.003279   -1.587490    2.165091
  H     -4.583955   -0.792723    1.917686

----------------------------
CARTESIAN COORDINATES (A.U.)
----------------------------
  NO LB      ZA    FRAG     MASS         X           Y           Z
   0 C     6.0000    0    12.011   11.170136   -3.701998   -1.487949
   1 C     6.0000    0    12.011    9.168743   -1.883542   -2.433286
   2 O     8.0000    0    15.999    6.726740   -2.920591   -1.816971
   3 C     6.0000    0    12.011    4.714686   -1.720554   -2.646303
   4 O     8.0000    0    15.999    4.777796    0.193855   -3.900540
   5 C     6.0000    0    12.011    2.296593   -3.053985   -1.865563
   6 C     6.0000    0    12.011    0.386803   -1.093780   -0.981520
   7 H     1.0000    0     1.008    0.231360    0.412924   -2.402731
   8 C     6.0000    0    12.011    1.114978    0.179278    1.477464
   9 O     8.0000    0    15.999   -0.452824    0.824310    3.025330
  10 O     8.0000    0    15.999    3.552890    0.497880    1.700341
  11 C     6.0000    0    12.011    4.480174    1.905254    3.850012
  12 C     6.0000    0    12.011    4.441795    4.722228    3.298106
  13 S    16.0000    0    32.060   -2.743292   -2.461271   -0.558339
  14 P    15.0000    0    30.974   -4.727593    0.898011    0.420560
  15 S    16.0000    0    32.060   -3.340603    4.111198   -0.783107
  16 O     8.0000    0    15.999   -7.435299    0.283085   -0.821164
  17 C     6.0000    0    12.011   -7.782007    0.237757   -3.499689
  18 O     8.0000    0    15.999   -5.530634    0.853222    3.292257
  19 C     6.0000    0    12.011   -6.776989   -1.290182    4.419637
  20 H     1.0000    0     1.008   13.027828   -2.946236   -1.912973
  21 H     1.0000    0     1.008   10.989054   -3.956459    0.539778
  22 H     1.0000    0     1.008   10.954877   -5.524807   -2.405015
  23 H     1.0000    0     1.008    9.268565   -1.619477   -4.482004
  24 H     1.0000    0     1.008    9.324844   -0.027518   -1.534711
  25 H     1.0000    0     1.008    2.712534   -4.429768   -0.393516
  26 H     1.0000    0     1.008    1.532182   -4.034272   -3.511798
  27 H     1.0000    0     1.008    3.299870    1.457450    5.485367
  28 H     1.0000    0     1.008    6.399172    1.209631    4.124354
  29 H     1.0000    0     1.008    5.530077    5.129521    1.604342
  30 H     1.0000    0     1.008    2.508498    5.361110    3.001316
  31 H     1.0000    0     1.008    5.244116    5.739709    4.886641
  32 H     1.0000    0     1.008   -6.953151    1.924363   -4.349717
  33 H     1.0000    0     1.008   -9.814321    0.211052   -3.795809
  34 H     1.0000    0     1.008   -6.908830   -1.451896   -4.290634
  35 H     1.0000    0     1.008   -6.865406   -0.857785    6.425512
  36 H     1.0000    0     1.008   -5.675376   -2.999922    4.091428
  37 H     1.0000    0     1.008   -8.662420   -1.498029    3.623901

--------------------------------
INTERNAL COORDINATES (ANGSTROEM)
--------------------------------
 C      0   0   0     0.000000000000     0.00000000     0.00000000
 C      1   0   0     1.515889084244     0.00000000     0.00000000
 O      2   1   0     1.441334615471   108.06077581     0.00000000
 C      3   2   1     1.315113769278   117.80797426   185.05234722
 O      4   3   2     1.211579641605   124.34987860     0.24871161
 C      4   3   2     1.518541703274   111.53392497   179.47760342
 C      6   4   3     1.521900764484   109.05545664   137.12416015
 H      7   6   4     1.099130761566   109.49882218    50.29906986
 C      7   6   4     1.515103445978   113.46377471   291.46281667
 O      9   7   6     1.214800014011   122.02774161   214.47287249
 O      9   7   6     1.306392496545   112.71041739    34.92757806
 C     11   9   7     1.445500841994   118.21409643   174.25105474
 C     12  11   9     1.519154989403   110.47083152   274.81282391
 S      7   6   4     1.821369917832   111.77058247   169.57385584
 P     14   7   6     2.128612733733    98.43763171   183.23305073
 S     15  14   7     1.958465042701   117.45415448    25.32828741
 O     15  14   7     1.609576397489    99.84348465   146.70216091
 C     17  15  14     1.429440505151   121.49713016   289.56432492
 O     15  14   7     1.578112720908   110.77083482   249.94194921
 C     19  15  14     1.441322668850   122.25012549   311.11405621
 H      1   2   3     1.084857175370   109.30876907   180.67128064
 H      1   2   3     1.085680071099   110.07357569   300.73753177
 H      1   2   3     1.085778324803   110.06908046    60.66010600
 H      2   1   3     1.094379176291   111.97783582   240.65390614
 H      2   1   3     1.094338954289   111.93787674   118.95204125
 H      6   4   3     1.088705083341   109.57487691    14.54972444
 H      6   4   3     1.091616665529   108.41790079   255.50578067
 H     12  11   9     1.093238410868   108.50145004    36.61696973
 H     12  11   9     1.089862023387   104.30651379   154.66597354
 H     13  12  11     1.086951430809   110.24391695   303.71784940
 H     13  12  11     1.088857084321   110.17950416    63.44374660
 H     13  12  11     1.084804228562   109.44039526   183.26827615
 H     18  17  15     1.091464912839   110.08131667   311.83998907
 H     18  17  15     1.086902083857   105.67472050   192.60774349
 H     18  17  15     1.090022779226   109.88350594    73.14721486
 H     20  19  15     1.086853085446   104.96737957   173.06950535
 H     20  19  15     1.090218612277   110.02637889    53.94503299
 H     20  19  15     1.088517183911   109.80526598   292.53692296

---------------------------
INTERNAL COORDINATES (A.U.)
---------------------------
 C      0   0   0     0.000000000000     0.00000000     0.00000000
 C      1   0   0     2.864615218622     0.00000000     0.00000000
 O      2   1   0     2.723727690580   108.06077581     0.00000000
 C      3   2   1     2.485204858884   117.80797426   185.05234722
 O      4   3   2     2.289553712068   124.34987860     0.24871161
 C      4   3   2     2.869627942126   111.53392497   179.47760342
 C      6   4   3     2.875975647880   109.05545664   137.12416015
 H      7   6   4     2.077056124727   109.49882218    50.29906986
 C      7   6   4     2.863130577459   113.46377471   291.46281667
 O      9   7   6     2.295639333965   122.02774161   214.47287249
 O      9   7   6     2.468724041881   112.71041739    34.92757806
 C     11   9   7     2.731600717722   118.21409643   174.25105474
 C     12  11   9     2.870786884952   110.47083152   274.81282391
 S      7   6   4     3.441890333264   111.77058247   169.57385584
 P     14   7   6     4.022495111932    98.43763171   183.23305073
 S     15  14   7     3.700962573563   117.45415448    25.32828741
 O     15  14   7     3.041658582877    99.84348465   146.70216091
 C     17  15  14     2.701251079469   121.49713016   289.56432492
 O     15  14   7     2.982200850973   110.77083482   249.94194921
 C     19  15  14     2.723705114739   122.25012549   311.11405621
 H      1   2   3     2.050082955869   109.30876907   180.67128064
 H      1   2   3     2.051638003433   110.07357569   300.73753177
 H      1   2   3     2.051823676025   110.06908046    60.66010600
 H      2   1   3     2.068076929857   111.97783582   240.65390614
 H      2   1   3     2.068000921287   111.93787674   118.95204125
 H      6   4   3     2.057354448122   109.57487691    14.54972444
 H      6   4   3     2.062856541075   108.41790079   255.50578067
 H     12  11   9     2.065921195625   108.50145004    36.61696973
 H     12  11   9     2.059540747963   104.30651379   154.66597354
 H     13  12  11     2.054040525102   110.24391695   303.71784940
 H     13  12  11     2.057641688346   110.17950416    63.44374660
 H     13  12  11     2.049982900901   109.44039526   183.26827615
 H     18  17  15     2.062569770051   110.08131667   311.83998907
 H     18  17  15     2.053947272879   105.67472050   192.60774349
 H     18  17  15     2.059844532473   109.88350594    73.14721486
 H     20  19  15     2.053854679300   104.96737957   173.06950535
 H     20  19  15     2.060214603306   110.02637889    53.94503299
 H     20  19  15     2.056999369658   109.80526598   292.53692296

---------------------
BASIS SET INFORMATION
---------------------
There are 5 groups of distinct atoms

 Group   1 Type C   : 11s6p1d contracted to 5s3p1d pattern {62111/411/1}
 Group   2 Type O   : 11s6p2d contracted to 5s3p2d pattern {62111/411/11}
 Group   3 Type H   : 4s1p contracted to 2s1p pattern {31/1}
 Group   4 Type S   : 14s9p2d contracted to 5s4p2d pattern {73211/6111/11}
 Group   5 Type P   : 14s9p2d contracted to 5s4p2d pattern {73211/6111/11}

Atom   0C    basis set group =>   1
Atom   1C    basis set group =>   1
Atom   2O    basis set group =>   2
Atom   3C    basis set group =>   1
Atom   4O    basis set group =>   2
Atom   5C    basis set group =>   1
Atom   6C    basis set group =>   1
Atom   7H    basis set group =>   3
Atom   8C    basis set group =>   1
Atom   9O    basis set group =>   2
Atom  10O    basis set group =>   2
Atom  11C    basis set group =>   1
Atom  12C    basis set group =>   1
Atom  13S    basis set group =>   4
Atom  14P    basis set group =>   5
Atom  15S    basis set group =>   4
Atom  16O    basis set group =>   2
Atom  17C    basis set group =>   1
Atom  18O    basis set group =>   2
Atom  19C    basis set group =>   1
Atom  20H    basis set group =>   3
Atom  21H    basis set group =>   3
Atom  22H    basis set group =>   3
Atom  23H    basis set group =>   3
Atom  24H    basis set group =>   3
Atom  25H    basis set group =>   3
Atom  26H    basis set group =>   3
Atom  27H    basis set group =>   3
Atom  28H    basis set group =>   3
Atom  29H    basis set group =>   3
Atom  30H    basis set group =>   3
Atom  31H    basis set group =>   3
Atom  32H    basis set group =>   3
Atom  33H    basis set group =>   3
Atom  34H    basis set group =>   3
Atom  35H    basis set group =>   3
Atom  36H    basis set group =>   3
Atom  37H    basis set group =>   3
---------------------------------
AUXILIARY/J BASIS SET INFORMATION
---------------------------------
There are 5 groups of distinct atoms

 Group   1 Type C   : 12s5p4d2f1g contracted to 6s4p3d1f1g pattern {711111/2111/211/2/1}
 Group   2 Type O   : 12s5p4d2f1g contracted to 6s4p3d1f1g pattern {711111/2111/211/2/1}
 Group   3 Type H   : 5s2p1d contracted to 3s1p1d pattern {311/2/1}
 Group   4 Type S   : 14s5p5d2f1g contracted to 8s4p3d1f1g pattern {71111111/2111/311/2/1}
 Group   5 Type P   : 14s5p5d2f1g contracted to 8s4p3d1f1g pattern {71111111/2111/311/2/1}

Atom   0C    basis set group =>   1
Atom   1C    basis set group =>   1
Atom   2O    basis set group =>   2
Atom   3C    basis set group =>   1
Atom   4O    basis set group =>   2
Atom   5C    basis set group =>   1
Atom   6C    basis set group =>   1
Atom   7H    basis set group =>   3
Atom   8C    basis set group =>   1
Atom   9O    basis set group =>   2
Atom  10O    basis set group =>   2
Atom  11C    basis set group =>   1
Atom  12C    basis set group =>   1
Atom  13S    basis set group =>   4
Atom  14P    basis set group =>   5
Atom  15S    basis set group =>   4
Atom  16O    basis set group =>   2
Atom  17C    basis set group =>   1
Atom  18O    basis set group =>   2
Atom  19C    basis set group =>   1
Atom  20H    basis set group =>   3
Atom  21H    basis set group =>   3
Atom  22H    basis set group =>   3
Atom  23H    basis set group =>   3
Atom  24H    basis set group =>   3
Atom  25H    basis set group =>   3
Atom  26H    basis set group =>   3
Atom  27H    basis set group =>   3
Atom  28H    basis set group =>   3
Atom  29H    basis set group =>   3
Atom  30H    basis set group =>   3
Atom  31H    basis set group =>   3
Atom  32H    basis set group =>   3
Atom  33H    basis set group =>   3
Atom  34H    basis set group =>   3
Atom  35H    basis set group =>   3
Atom  36H    basis set group =>   3
Atom  37H    basis set group =>   3

Checking for AutoStart:
The File: sp_gas.gbw exists
Trying to determine its content:
     ... Fine, the file contains calculation information
     ... Fine, the calculation information was read
     ... Fine, the file contains a basis set
     ... Fine, the basis set was read
     ... Fine, the file contains a geometry
     ... Fine, the geometry was read
     ... Fine, the file contains a set of orbitals
     ... Fine, the orbitals can be read
     => possible old guess file was deleted
     => GBW file was renamed to GES file
     => GES file is set as startup file
     => Guess is set to MORead
     ... now leaving AutoStart

------------------------------------------------------------------------------
                             ORCA STARTUP CALCULATIONS
                           -- RI-GTO INTEGRALS CHOSEN --
------------------------------------------------------------------------------
------------------------------------------------------------------------------
                   ___                                                        
                  /   \      - P O W E R E D   B Y -                         
                 /     \                                                     
                 |  |  |   _    _      __       _____    __    __             
                 |  |  |  | |  | |    /  \     |  _  \  |  |  /  |          
                  \  \/   | |  | |   /    \    | | | |  |  | /  /          
                 / \  \   | |__| |  /  /\  \   | |_| |  |  |/  /          
                |  |  |   |  __  | /  /__\  \  |    /   |      \           
                |  |  |   | |  | | |   __   |  |    \   |  |\   \          
                \     /   | |  | | |  |  |  |  | |\  \  |  | \   \       
                 \___/    |_|  |_| |__|  |__|  |_| \__\ |__|  \__/        
                                                                              
                      - O R C A' S   B I G   F R I E N D -                    
                                      &                                       
                       - I N T E G R A L  F E E D E R -                       
                                                                              
 v1 FN, 2020, v2 2021, v3 2022-2024                                           
------------------------------------------------------------------------------


----------------------
SHARK INTEGRAL PACKAGE
----------------------

Number of atoms                             ...     38
Number of basis functions                   ...    510
Number of shells                            ...    240
Maximum angular momentum                    ...      2
Integral batch strategy                     ... SHARK/LIBINT Hybrid
RI-J (if used) integral strategy            ... SPLIT-RIJ (Revised 2003 algorithm where possible)
Printlevel                                  ...      1
Contraction scheme used                     ... SEGMENTED contraction
Prescreening option                         ... SCHWARTZ
   Thresh                                   ... 1.000e-10
   Tcut                                     ... 1.000e-11
   Tpresel                                  ... 1.000e-11 
Coulomb Range Separation                    ... NOT USED
Exchange Range Separation                   ... NOT USED
Multipole approximations                    ... NOT USED
Finite Nucleus Model                        ... NOT USED
CABS basis                                  ... NOT available
Auxiliary Coulomb fitting basis             ... AVAILABLE
   # of basis functions in Aux-J            ...   1146
   # of shells in Aux-J                     ...    386
   Maximum angular momentum in Aux-J        ...      4
Auxiliary J/K fitting basis                 ... NOT available
Auxiliary Correlation fitting basis         ... NOT available
Auxiliary 'external' fitting basis          ... NOT available

Checking pre-screening integrals            ... done (  0.0 sec) Dimension = 240
Check shell pair data                       ... done (  0.0 sec)
Shell pair information
Shell pair cut-off parameter TPreSel        ...   1.0e-11
Total number of shell pairs                 ...     28920
Shell pairs after pre-screening             ...     19346
Total number of primitive shell pairs       ...    108409
Primitive shell pairs kept                  ...     44600
          la=0 lb=0:   5547 shell pairs
          la=1 lb=0:   7027 shell pairs
          la=1 lb=1:   2254 shell pairs
          la=2 lb=0:   2578 shell pairs
          la=2 lb=1:   1621 shell pairs
          la=2 lb=2:    319 shell pairs

Calculating one electron integrals          ... done (  0.1 sec)
Calculating RI/J V-Matrix + Cholesky decomp.... done (  0.1 sec)
Calculating Nuclear repulsion               ... done (  0.0 sec) ENN=   2126.403285332316 Eh

Diagonalization of the overlap matrix:
Smallest eigenvalue                        ... 6.272e-05
Time for diagonalization                   ...    0.033 sec
Threshold for overlap eigenvalues          ... 1.000e-07
Number of eigenvalues below threshold      ... 0
Time for construction of square roots      ...    0.018 sec
Total time needed                          ...    0.052 sec

-------------------
DFT GRID GENERATION
-------------------

General Integration Accuracy     IntAcc      ... 4.388
Radial Grid Type                 RadialGrid  ... OptM3 with GC (2021)
Angular Grid (max. ang.)         AngularGrid ... 4 (Lebedev-302)
Angular grid pruning method      GridPruning ... 4 (adaptive)
Weight generation scheme         WeightScheme... mBecke (2022)
Basis function cutoff            BFCut       ... 1.0000e-10
Integration weight cutoff        WCut        ... 1.0000e-14
Partially contracted basis set               ... off
Rotationally invariant grid construction     ... off
Angular grids for H and He will be reduced by one unit
Diffuse basis detected: some atoms will have their outermost
                        angular grid increased by 1.

Total number of grid points                  ...   180294
Total number of batches                      ...     2839
Average number of points per batch           ...       63
Average number of grid points per atom       ...     4745
Initializing property integral containers    ... done (  0.0 sec)

SHARK setup successfully completed in   2.9 seconds

Maximum memory used throughout the entire STARTUP-calculation: 96.7 MB
-------------------------------------------------------------------------------
                                 ORCA GUESS
                   Start orbitals & Density for SCF / CASSCF
-------------------------------------------------------------------------------

------------
SCF SETTINGS
------------
Hamiltonian:
 Density Functional     Method          .... DFT(GTOs)
  Functional kind                       .... Exchange
  Functional name                       .... Re-regularized SCAN exchange by Furness et al
  Functional family                     .... MGGA
  Functional refs                              
    [ 0] J. W. Furness, A. D. Kaplan, J. Ning, J. P. Perdew, and J. Sun.,  J. Phys. Chem. Lett. 11, 8208-8215 (2020), doi: 10.1021/acs.jpclett.0c02405
    [ 1] J. W. Furness, A. D. Kaplan, J. Ning, J. P. Perdew, and J. Sun.,  J. Phys. Chem. Lett. 11, 9248-9248 (2020), doi: 10.1021/acs.jpclett.0c03077
  Functional external parameters        .... 6
    Parameter  0 _c1        =  6.670000e-01 : c1 parameter        
    Parameter  1 _c2        =  8.000000e-01 : c2 parameter        
    Parameter  2 _d         =  1.240000e+00 : d parameter         
    Parameter  3 _k1        =  6.500000e-02 : k1 parameter        
    Parameter  4 _eta       =  1.000000e-03 : eta parameter       
    Parameter  5 _dp2       =  3.610000e-01 : dp2 parameter       
  Functional kind                       .... Correlation
  Functional name                       .... Re-regularized SCAN correlation by Furness et al
  Functional family                     .... MGGA
  Functional refs                              
    [ 0] J. W. Furness, A. D. Kaplan, J. Ning, J. P. Perdew, and J. Sun.,  J. Phys. Chem. Lett. 11, 8208-8215 (2020), doi: 10.1021/acs.jpclett.0c02405
    [ 1] J. W. Furness, A. D. Kaplan, J. Ning, J. P. Perdew, and J. Sun.,  J. Phys. Chem. Lett. 11, 9248-9248 (2020), doi: 10.1021/acs.jpclett.0c03077
  Functional external parameters        .... 1
    Parameter  0 _eta       =  1.000000e-03 : Regularization parameter
 Gradients option       PostSCFGGA      .... off
 RI-approximation to the Coulomb term is turned on
   Number of AuxJ basis functions       .... 1146


General Settings:
 Integral files         IntName         .... sp_gas
 Hartree-Fock type      HFTyp           .... RHF
 Total Charge           Charge          ....    0
 Multiplicity           Mult            ....    1
 Number of Electrons    NEL             ....  174
 Basis Dimension        Dim             ....  510
 Nuclear Repulsion      ENuc            ....   2126.4032853323 Eh

Convergence Acceleration:
 AO-DIIS                CNVDIIS         .... on
   Start iteration      DIISMaxIt       ....    12
   Startup error        DIISStart       ....  0.200000
   # of expansion vecs  DIISMaxEq       ....     5
   Bias factor          DIISBfac        ....   1.050
   Max. coefficient     DIISMaxC        ....  10.000
 MO-DIIS                CNVKDIIS        .... off
 Trust-Rad. Augm. Hess. CNVTRAH         .... auto
   Auto Start mean grad. ratio tolernc. ....  1.125000
   Auto Start start iteration           ....     1
   Auto Start num. interpolation iter.  ....    10
   Max. Number of Micro iterations      ....    24
   Max. Number of Macro iterations      .... Maxiter - #DIIS iter
   Number of Davidson start vectors     ....     2
   Converg. threshold    (grad. norm)   ....   3.330e-04
   Grad. Scal. Fac. for Micro threshold ....   0.100
   Minimum threshold for Micro iter.    ....   1.000e-02
   NR start threshold (gradient norm)   ....   1.000e-04
   Initial trust radius                 ....   0.400
   Minimum AH scaling param. (alpha)    ....   1.000
   Maximum AH scaling param. (alpha)    .... 1000.000
   Quad. conv. algorithm                .... NR
   White noise on init. David. guess    .... on
   Maximum white noise                  ....   0.010
   Pseudo random numbers                .... off
   Inactive MOs                         .... canonical
   Orbital update algorithm             .... Taylor
   Preconditioner                       .... Diag
   Full preconditioner red. dimension   ....   250
   COSX micro iterations for RIJONX calc.... off
 SOSCF                  CNVSOSCF        .... on
   Start iteration      SOSCFMaxIt      ....   150
   Startup grad/error   SOSCFStart      ....  0.003300
   Hessian update       SOSCFHessUp     .... L-BFGS
 Level Shifting         CNVShift        .... on
   Level shift para.    LevelShift      ....    0.2500
   Turn off err/grad.   ShiftErr        ....    0.0010
 Zerner damping         CNVZerner       .... off
 Static damping         CNVDamp         .... on
   Fraction old density DampFac         ....    0.7000
   Max. Damping (<1)    DampMax         ....    0.9800
   Min. Damping (>=0)   DampMin         ....    0.0000
   Turn off err/grad.   DampErr         ....    0.1000

SCF Procedure:
 Maximum # iterations   MaxIter         ....   125
 SCF integral mode      SCFMode         .... Direct
   Integral package                     .... SHARK and LIBINT hybrid scheme
 Reset frequency        DirectResetFreq ....    20
 Integral Threshold     Thresh          ....  1.000e-10 Eh
 Primitive CutOff       TCut            ....  1.000e-11 Eh

Convergence Tolerance:
 Convergence Check Mode ConvCheckMode   .... Total+1el-Energy
 Convergence forced     ConvForced      .... 0
 Energy Change          TolE            ....  1.000e-06 Eh
 1-El. energy change                    ....  1.000e-03 Eh
 Orbital Gradient       TolG            ....  3.330e-04
 Orbital Rotation angle TolX            ....  3.330e-04
 DIIS Error             TolErr          ....  1.000e-06

---------------------
INITIAL GUESS: MOREAD
---------------------
Guess MOs are being read from file: sp_gas.ges
Input Geometry matches current geometry (good)
Atom 0: N(Shells)= 9 and 6 - projection required
Input basis set needs projection
NBasis(read)= 316
NBasis(calc)= 510
Basis set overlap was calculated
Using GuessMode=FMatrix for the initial guess
C*T matrix was formed
Effective Fockian was calculated
Effective Fockian was diagonalized
Initial density was built
                      ------------------
                      INITIAL GUESS DONE (   0.1 sec)
                      ------------------
             **** ENERGY FILE WAS UPDATED (sp_gas.en.tmp) ****
Finished Guess after   0.2 sec
Maximum memory used throughout the entire GUESS-calculation: 56.0 MB

-------------------------------------------------------------------------------------------
                                      ORCA LEAN-SCF
                              memory conserving SCF solver
-------------------------------------------------------------------------------------------

----------------------------------------D-I-I-S--------------------------------------------
Iteration    Energy (Eh)           Delta-E    RMSDP     MaxDP     DIISErr   Damp  Time(sec)
-------------------------------------------------------------------------------------------
               ***  Starting incremental Fock matrix formation  ***
    1    -1980.9745505186833725     0.00e+00  3.43e-03  3.47e-01  6.33e-01  0.700   8.0
    2    -1981.1214771040963569    -1.47e-01  2.63e-03  2.02e-01  4.45e-01  0.700   6.8
    3    -1981.2252305322676875    -1.04e-01  1.89e-03  1.28e-01  3.12e-01  0.700   6.7
    4    -1981.2980279590597092    -7.28e-02  1.34e-03  8.47e-02  2.18e-01  0.700   6.6
                               ***Turning on AO-DIIS***
    5    -1981.3490665363756307    -5.10e-02  9.57e-04  5.57e-02  1.53e-01  0.700   6.5
    6    -1981.3848291319159216    -3.58e-02  6.75e-04  3.84e-02  1.07e-01  0.700   6.3
    7    -1981.4098931530420487    -2.51e-02  4.74e-04  2.65e-02  7.48e-02  0.700   6.3
    8    -1981.4274502760249561    -1.76e-02  1.11e-03  6.03e-02  5.24e-02  0.000   6.1
                              *** Initializing SOSCF ***
---------------------------------------S-O-S-C-F--------------------------------------
Iteration    Energy (Eh)           Delta-E    RMSDP     MaxDP     MaxGrad    Time(sec)
--------------------------------------------------------------------------------------
    9    -1981.4684584947485746    -4.10e-02  6.08e-06  5.65e-04  1.45e-04     6.5
               *** Restarting incremental Fock matrix formation ***
   10    -1981.4684586135203972    -1.19e-07  6.61e-06  5.55e-04  6.48e-05     8.1
                  *** Gradient check signals convergence ***

               *****************************************************
               *                     SUCCESS                       *
               *           SCF CONVERGED AFTER  10 CYCLES          *
               *****************************************************

             **** ENERGY FILE WAS UPDATED (sp_gas.en.tmp) ****

----------------
TOTAL SCF ENERGY
----------------

Total Energy       :      -1981.46845861352040 Eh          -53918.49792 eV

Components:
Nuclear Repulsion  :       2126.40328533231650 Eh           57862.37506 eV
Electronic Energy  :      -4107.87174394583781 Eh         -111780.87298 eV
One Electron Energy:      -6959.02571839155007 Eh         -189364.71691 eV
Two Electron Energy:       2851.15397444571272 Eh           77583.84393 eV

Virial components:
Potential Energy   :      -3956.60398320496279 Eh         -107664.66795 eV
Kinetic Energy     :       1975.13552459144262 Eh           53746.17003 eV
Virial Ratio       :          2.00320632885350

DFT components:
N(Alpha)           :       87.000003896505 electrons
N(Beta)            :       87.000003896505 electrons
N(Total)           :      174.000007793010 electrons
E(X)               :     -181.412844825815 Eh       
E(C)               :       -5.970490195254 Eh       
E(XC)              :     -187.383335021069 Eh       

---------------
SCF CONVERGENCE
---------------

  Last Energy change         ...    1.1877e-07  Tolerance :   1.0000e-06
  Last MAX-Density change    ...    5.5508e-04  Tolerance :   1.0000e-05
  Last RMS-Density change    ...    6.6122e-06  Tolerance :   1.0000e-06
  Last DIIS Error            ...    1.4496e-04  Tolerance :   1.0000e-06
  Last Orbital Gradient      ...    6.4836e-05  Tolerance :   3.3300e-04
  Last Orbital Rotation      ...    2.3811e-04  Tolerance :   3.3300e-04


----------------
ORBITAL ENERGIES
----------------

  NO   OCC          E(Eh)            E(eV) 
   0   2.0000     -88.571849     -2410.1625 
   1   2.0000     -88.505805     -2408.3654 
   2   2.0000     -76.905665     -2092.7095 
   3   2.0000     -19.015106      -517.4273 
   4   2.0000     -19.007647      -517.2244 
   5   2.0000     -18.981512      -516.5132 
   6   2.0000     -18.978222      -516.4237 
   7   2.0000     -18.941134      -515.4145 
   8   2.0000     -18.935865      -515.2711 
   9   2.0000     -10.167103      -276.6609 
  10   2.0000     -10.164386      -276.5870 
  11   2.0000     -10.101163      -274.8666 
  12   2.0000     -10.100508      -274.8488 
  13   2.0000     -10.094654      -274.6895 
  14   2.0000     -10.089178      -274.5405 
  15   2.0000     -10.080962      -274.3169 
  16   2.0000     -10.066175      -273.9146 
  17   2.0000     -10.039451      -273.1874 
  18   2.0000     -10.029624      -272.9200 
  19   2.0000      -7.866141      -214.0486 
  20   2.0000      -7.800642      -212.2663 
  21   2.0000      -6.583340      -179.1418 
  22   2.0000      -5.812950      -158.1784 
  23   2.0000      -5.810057      -158.0997 
  24   2.0000      -5.803281      -157.9153 
  25   2.0000      -5.748624      -156.4280 
  26   2.0000      -5.741047      -156.2218 
  27   2.0000      -5.740171      -156.1980 
  28   2.0000      -4.729105      -128.6855 
  29   2.0000      -4.728528      -128.6698 
  30   2.0000      -4.726737      -128.6210 
  31   2.0000      -1.093138       -29.7458 
  32   2.0000      -1.083671       -29.4882 
  33   2.0000      -1.039282       -28.2803 
  34   2.0000      -0.996683       -27.1211 
  35   2.0000      -0.992533       -27.0082 
  36   2.0000      -0.985782       -26.8245 
  37   2.0000      -0.812343       -22.1050 
  38   2.0000      -0.760733       -20.7006 
  39   2.0000      -0.750080       -20.4107 
  40   2.0000      -0.727365       -19.7926 
  41   2.0000      -0.697433       -18.9781 
  42   2.0000      -0.666029       -18.1236 
  43   2.0000      -0.658186       -17.9101 
  44   2.0000      -0.645810       -17.5734 
  45   2.0000      -0.627109       -17.0645 
  46   2.0000      -0.597525       -16.2595 
  47   2.0000      -0.547023       -14.8853 
  48   2.0000      -0.535929       -14.5834 
  49   2.0000      -0.527012       -14.3407 
  50   2.0000      -0.496667       -13.5150 
  51   2.0000      -0.491586       -13.3767 
  52   2.0000      -0.483129       -13.1466 
  53   2.0000      -0.474872       -12.9219 
  54   2.0000      -0.460620       -12.5341 
  55   2.0000      -0.451745       -12.2926 
  56   2.0000      -0.441404       -12.0112 
  57   2.0000      -0.440313       -11.9815 
  58   2.0000      -0.438275       -11.9261 
  59   2.0000      -0.430928       -11.7261 
  60   2.0000      -0.423163       -11.5148 
  61   2.0000      -0.415653       -11.3105 
  62   2.0000      -0.407693       -11.0939 
  63   2.0000      -0.404312       -11.0019 
  64   2.0000      -0.388728       -10.5778 
  65   2.0000      -0.383119       -10.4252 
  66   2.0000      -0.378463       -10.2985 
  67   2.0000      -0.369977       -10.0676 
  68   2.0000      -0.368298       -10.0219 
  69   2.0000      -0.358081        -9.7439 
  70   2.0000      -0.348778        -9.4907 
  71   2.0000      -0.346727        -9.4349 
  72   2.0000      -0.334364        -9.0985 
  73   2.0000      -0.330759        -9.0004 
  74   2.0000      -0.323099        -8.7920 
  75   2.0000      -0.316271        -8.6062 
  76   2.0000      -0.309339        -8.4175 
  77   2.0000      -0.305038        -8.3005 
  78   2.0000      -0.288783        -7.8582 
  79   2.0000      -0.280279        -7.6268 
  80   2.0000      -0.277873        -7.5613 
  81   2.0000      -0.267351        -7.2750 
  82   2.0000      -0.252024        -6.8579 
  83   2.0000      -0.245175        -6.6715 
  84   2.0000      -0.233431        -6.3520 
  85   2.0000      -0.207649        -5.6504 
  86   2.0000      -0.199326        -5.4239 
  87   0.0000      -0.044001        -1.1973 
  88   0.0000      -0.028978        -0.7885 
  89   0.0000      -0.016416        -0.4467 
  90   0.0000       0.011110         0.3023 
  91   0.0000       0.027777         0.7559 
  92   0.0000       0.045398         1.2354 
  93   0.0000       0.055381         1.5070 
  94   0.0000       0.068650         1.8681 
  95   0.0000       0.081675         2.2225 
  96   0.0000       0.087524         2.3817 
  97   0.0000       0.089096         2.4244 
*Only the first 10 virtual orbitals were printed.

                    ********************************
                    * MULLIKEN POPULATION ANALYSIS *
                    ********************************

-----------------------
MULLIKEN ATOMIC CHARGES
-----------------------
   0 C :   -0.441152
   1 C :   -0.153652
   2 O :   -0.138715
   3 C :    0.284626
   4 O :   -0.391653
   5 C :   -0.376752
   6 C :   -0.019956
   7 H :    0.272325
   8 C :    0.276579
   9 O :   -0.402358
  10 O :   -0.098366
  11 C :   -0.148945
  12 C :   -0.459818
  13 S :   -0.218182
  14 P :    0.811854
  15 S :   -0.462974
  16 O :   -0.363760
  17 C :   -0.301129
  18 O :   -0.302265
  19 C :   -0.290284
  20 H :    0.149845
  21 H :    0.152118
  22 H :    0.154457
  23 H :    0.162840
  24 H :    0.155051
  25 H :    0.192361
  26 H :    0.184186
  27 H :    0.169325
  28 H :    0.148695
  29 H :    0.157940
  30 H :    0.185279
  31 H :    0.148607
  32 H :    0.176304
  33 H :    0.148532
  34 H :    0.153781
  35 H :    0.155577
  36 H :    0.162465
  37 H :    0.167214
Sum of atomic charges:    0.0000000

--------------------------------
MULLIKEN REDUCED ORBITAL CHARGES
--------------------------------
  0 C s       :     3.314196  s :     3.314196
      pz      :     1.076746  p :     3.101176
      px      :     1.004464
      py      :     1.019966
      dz2     :     0.007413  d :     0.025780
      dxz     :     0.002615
      dyz     :     0.004365
      dx2y2   :     0.005358
      dxy     :     0.006028

  1 C s       :     3.287641  s :     3.287641
      pz      :     1.088521  p :     2.812597
      px      :     0.728598
      py      :     0.995478
      dz2     :     0.011651  d :     0.053415
      dxz     :     0.008964
      dyz     :     0.006044
      dx2y2   :     0.013941
      dxy     :     0.012814

  2 O s       :     3.698236  s :     3.698236
      pz      :     1.698650  p :     4.407478
      px      :     1.058492
      py      :     1.650336
      dz2     :     0.004441  d :     0.033001
      dxz     :     0.005385
      dyz     :     0.007633
      dx2y2   :    -0.001345
      dxy     :     0.016888

  3 C s       :     3.185270  s :     3.185270
      pz      :     0.794769  p :     2.402969
      px      :     0.853591
      py      :     0.754609
      dz2     :     0.019129  d :     0.127135
      dxz     :     0.024186
      dyz     :     0.016915
      dx2y2   :     0.025131
      dxy     :     0.041774

  4 O s       :     3.841450  s :     3.841450
      pz      :     1.392018  p :     4.529629
      px      :     1.800977
      py      :     1.336634
      dz2     :     0.005298  d :     0.020574
      dxz     :     0.001526
      dyz     :     0.009060
      dx2y2   :     0.004964
      dxy     :    -0.000274

  5 C s       :     3.271109  s :     3.271109
      pz      :     1.115156  p :     3.071175
      px      :     0.995878
      py      :     0.960141
      dz2     :     0.004880  d :     0.034468
      dxz     :     0.005699
      dyz     :     0.008750
      dx2y2   :     0.005559
      dxy     :     0.009580

  6 C s       :     2.996487  s :     2.996487
      pz      :     1.055110  p :     2.979263
      px      :     0.863413
      py      :     1.060739
      dz2     :     0.007792  d :     0.044206
      dxz     :     0.007601
      dyz     :     0.011834
      dx2y2   :     0.008118
      dxy     :     0.008862

  7 H s       :     0.709105  s :     0.709105
      pz      :     0.007124  p :     0.018570
      px      :     0.003203
      py      :     0.008243

  8 C s       :     3.169355  s :     3.169355
      pz      :     0.874489  p :     2.427406
      px      :     0.768774
      py      :     0.784143
      dz2     :     0.029717  d :     0.126660
      dxz     :     0.029419
      dyz     :     0.014288
      dx2y2   :     0.027535
      dxy     :     0.025701

  9 O s       :     3.841241  s :     3.841241
      pz      :     1.516695  p :     4.532279
      px      :     1.521078
      py      :     1.494507
      dz2     :     0.004380  d :     0.028837
      dxz     :     0.007634
      dyz     :     0.006355
      dx2y2   :     0.003172
      dxy     :     0.007298

 10 O s       :     3.693980  s :     3.693980
      pz      :     1.490613  p :     4.375856
      px      :     1.261890
      py      :     1.623354
      dz2     :     0.004285  d :     0.028530
      dxz     :     0.003494
      dyz     :     0.005959
      dx2y2   :     0.009290
      dxy     :     0.005502

 11 C s       :     3.261661  s :     3.261661
      pz      :     0.864707  p :     2.834701
      px      :     1.062123
      py      :     0.907871
      dz2     :     0.011501  d :     0.052583
      dxz     :     0.009250
      dyz     :     0.012916
      dx2y2   :     0.010585
      dxy     :     0.008331

 12 C s       :     3.327632  s :     3.327632
      pz      :     1.079427  p :     3.106704
      px      :     1.119025
      py      :     0.908252
      dz2     :     0.004716  d :     0.025482
      dxz     :     0.004622
      dyz     :     0.004609
      dx2y2   :     0.007042
      dxy     :     0.004493

 13 S s       :     5.929330  s :     5.929330
      pz      :     3.801591  p :    10.192059
      px      :     3.030949
      py      :     3.359519
      dz2     :     0.015064  d :     0.096793
      dxz     :     0.012651
      dyz     :     0.012866
      dx2y2   :     0.025129
      dxy     :     0.031083

 14 P s       :     5.095368  s :     5.095368
      pz      :     2.757459  p :     8.368518
      px      :     2.801384
      py      :     2.809675
      dz2     :     0.146903  d :     0.724260
      dxz     :     0.128623
      dyz     :     0.145827
      dx2y2   :     0.163429
      dxy     :     0.139478

 15 S s       :     5.903738  s :     5.903738
      pz      :     3.633077  p :    10.495600
      px      :     3.653477
      py      :     3.209046
      dz2     :     0.006814  d :     0.063636
      dxz     :     0.005211
      dyz     :     0.016364
      dx2y2   :     0.019196
      dxy     :     0.016051

 16 O s       :     3.766430  s :     3.766430
      pz      :     1.260610  p :     4.573266
      px      :     1.504682
      py      :     1.807975
      dz2     :     0.015342  d :     0.024064
      dxz     :    -0.002450
      dyz     :    -0.003060
      dx2y2   :     0.011551
      dxy     :     0.002681

 17 C s       :     3.330355  s :     3.330355
      pz      :     0.699106  p :     2.926154
      px      :     1.109129
      py      :     1.117919
      dz2     :     0.015032  d :     0.044620
      dxz     :     0.007888
      dyz     :     0.012783
      dx2y2   :     0.005766
      dxy     :     0.003151

 18 O s       :     3.746680  s :     3.746680
      pz      :     1.345976  p :     4.543671
      px      :     1.678523
      py      :     1.519173
      dz2     :     0.005057  d :     0.011914
      dxz     :     0.003851
      dyz     :    -0.004189
      dx2y2   :     0.004715
      dxy     :     0.002479

 19 C s       :     3.325590  s :     3.325590
      pz      :     1.042477  p :     2.921232
      px      :     1.023202
      py      :     0.855553
      dz2     :     0.010370  d :     0.043461
      dxz     :     0.004578
      dyz     :     0.006832
      dx2y2   :     0.010619
      dxy     :     0.011063

 20 H s       :     0.831722  s :     0.831722
      pz      :     0.004000  p :     0.018432
      px      :     0.009951
      py      :     0.004482

 21 H s       :     0.829622  s :     0.829622
      pz      :     0.010939  p :     0.018259
      px      :     0.003585
      py      :     0.003736

 22 H s       :     0.827293  s :     0.827293
      pz      :     0.005011  p :     0.018250
      px      :     0.003596
      py      :     0.009643

 23 H s       :     0.819616  s :     0.819616
      pz      :     0.011705  p :     0.017544
      px      :     0.002399
      py      :     0.003441

 24 H s       :     0.827499  s :     0.827499
      pz      :     0.004729  p :     0.017451
      px      :     0.002411
      py      :     0.010311

 25 H s       :     0.789820  s :     0.789820
      pz      :     0.007343  p :     0.017819
      px      :     0.003485
      py      :     0.006990

 26 H s       :     0.797631  s :     0.797631
      pz      :     0.008320  p :     0.018182
      px      :     0.004568
      py      :     0.005295

 27 H s       :     0.812815  s :     0.812815
      pz      :     0.008119  p :     0.017860
      px      :     0.006408
      py      :     0.003332

 28 H s       :     0.833905  s :     0.833905
      pz      :     0.002898  p :     0.017400
      px      :     0.010486
      py      :     0.004017

 29 H s       :     0.823867  s :     0.823867
      pz      :     0.008836  p :     0.018193
      px      :     0.005594
      py      :     0.003764

 30 H s       :     0.796490  s :     0.796490
      pz      :     0.003673  p :     0.018232
      px      :     0.010446
      py      :     0.004112

 31 H s       :     0.832889  s :     0.832889
      pz      :     0.007962  p :     0.018505
      px      :     0.004878
      py      :     0.005665

 32 H s       :     0.805510  s :     0.805510
      pz      :     0.003680  p :     0.018186
      px      :     0.005095
      py      :     0.009411

 33 H s       :     0.833748  s :     0.833748
      pz      :     0.002431  p :     0.017720
      px      :     0.011514
      py      :     0.003775

 34 H s       :     0.828335  s :     0.828335
      pz      :     0.003642  p :     0.017883
      px      :     0.005187
      py      :     0.009054

 35 H s       :     0.826756  s :     0.826756
      pz      :     0.011309  p :     0.017667
      px      :     0.003363
      py      :     0.002994

 36 H s       :     0.819496  s :     0.819496
      pz      :     0.003587  p :     0.018038
      px      :     0.005614
      py      :     0.008837

 37 H s       :     0.815088  s :     0.815088
      pz      :     0.004520  p :     0.017697
      px      :     0.010363
      py      :     0.002814


------------------------
MULLIKEN OVERLAP CHARGES
------------------------
B(  0-C ,  1-C ) :   0.4488 B(  0-C ,  2-O ) :  -0.0958 B(  0-C , 20-H ) :   0.8187 
B(  0-C , 21-H ) :   0.8223 B(  0-C , 22-H ) :   0.8312 B(  0-C , 23-H ) :  -0.0563 
B(  1-C ,  2-O ) :   0.2595 B(  1-C ,  3-C ) :  -0.2353 B(  1-C , 20-H ) :  -0.0762 
B(  1-C , 21-H ) :  -0.0583 B(  1-C , 22-H ) :  -0.0678 B(  1-C , 23-H ) :   0.8188 
B(  1-C , 24-H ) :   0.8005 B(  2-O ,  3-C ) :   0.4388 B(  2-O ,  4-O ) :  -0.2204 
B(  2-O , 23-H ) :  -0.0638 B(  2-O , 24-H ) :  -0.0704 B(  3-C ,  4-O ) :   0.9443 
B(  3-C ,  5-C ) :  -0.3247 B(  3-C ,  6-C ) :   0.1271 B(  3-C ,  8-C ) :  -0.0637 
B(  3-C , 10-O ) :   0.1344 B(  3-C , 25-H ) :  -0.1205 B(  4-O ,  5-C ) :  -0.1701 
B(  4-O ,  6-C ) :   0.1172 B(  5-C ,  6-C ) :  -0.3610 B(  5-C ,  8-C ) :   0.1515 
B(  5-C , 13-S ) :  -0.1286 B(  5-C , 25-H ) :   0.8822 B(  5-C , 26-H ) :   0.7737 
B(  6-C ,  7-H ) :   0.7885 B(  6-C ,  9-O ) :  -0.2595 B(  6-C , 10-O ) :  -0.2647 
B(  6-C , 13-S ) :   0.4374 B(  6-C , 14-P ) :  -0.0540 B(  6-C , 15-S ) :   0.0802 
B(  6-C , 26-H ) :  -0.1033 B(  7-H , 13-S ) :  -0.0683 B(  8-C ,  9-O ) :   0.9464 
B(  8-C , 10-O ) :   0.5231 B(  8-C , 11-C ) :  -0.1641 B(  8-C , 13-S ) :  -0.1177 
B(  8-C , 14-P ) :  -0.0568 B(  9-O , 10-O ) :  -0.1909 B(  9-O , 14-P ) :   0.1013 
B(  9-O , 15-S ) :  -0.0622 B( 10-O , 11-C ) :   0.2027 B( 10-O , 12-C ) :  -0.0935 
B( 10-O , 28-H ) :  -0.0971 B( 11-C , 12-C ) :   0.5147 B( 11-C , 27-H ) :   0.8255 
B( 11-C , 28-H ) :   0.8091 B( 11-C , 29-H ) :  -0.0673 B( 11-C , 30-H ) :  -0.0708 
B( 11-C , 31-H ) :  -0.0808 B( 12-C , 27-H ) :  -0.0608 B( 12-C , 28-H ) :  -0.0579 
B( 12-C , 29-H ) :   0.8304 B( 12-C , 30-H ) :   0.8310 B( 12-C , 31-H ) :   0.8090 
B( 13-S , 14-P ) :   0.5819 B( 13-S , 15-S ) :  -0.1094 B( 13-S , 16-O ) :  -0.0995 
B( 13-S , 18-O ) :  -0.0675 B( 14-P , 15-S ) :   1.2673 B( 14-P , 16-O ) :   0.3980 
B( 14-P , 17-C ) :  -0.1697 B( 14-P , 18-O ) :   0.7373 B( 14-P , 19-C ) :  -0.2116 
B( 15-S , 16-O ) :  -0.0941 B( 15-S , 18-O ) :  -0.0883 B( 16-O , 17-C ) :   0.3556 
B( 16-O , 18-O ) :  -0.2404 B( 16-O , 32-H ) :  -0.0862 B( 16-O , 33-H ) :  -0.0957 
B( 16-O , 34-H ) :  -0.0761 B( 17-C , 32-H ) :   0.8344 B( 17-C , 33-H ) :   0.8013 
B( 17-C , 34-H ) :   0.8007 B( 18-O , 19-C ) :   0.3208 B( 18-O , 35-H ) :  -0.0802 
B( 18-O , 36-H ) :  -0.0855 B( 18-O , 37-H ) :  -0.0806 B( 19-C , 35-H ) :   0.7822 
B( 19-C , 36-H ) :   0.8203 B( 19-C , 37-H ) :   0.8238 B( 23-H , 24-H ) :  -0.0606 
B( 32-H , 34-H ) :  -0.0609 B( 36-H , 37-H ) :  -0.0642 


                     *******************************
                     * LOEWDIN POPULATION ANALYSIS *
                     *******************************

----------------------
LOEWDIN ATOMIC CHARGES
----------------------
   0 C :   -0.385112
   1 C :    0.036527
   2 O :   -0.582994
   3 C :    0.351776
   4 O :   -0.419101
   5 C :   -0.203094
   6 C :   -0.204158
   7 H :    0.223954
   8 C :    0.360299
   9 O :   -0.449147
  10 O :   -0.570506
  11 C :    0.038305
  12 C :   -0.384902
  13 S :    0.187519
  14 P :    0.409219
  15 S :   -0.087711
  16 O :   -0.695219
  17 C :   -0.065582
  18 O :   -0.637890
  19 C :   -0.049472
  20 H :    0.160660
  21 H :    0.159448
  22 H :    0.160298
  23 H :    0.182573
  24 H :    0.178774
  25 H :    0.190340
  26 H :    0.190329
  27 H :    0.190793
  28 H :    0.178205
  29 H :    0.161032
  30 H :    0.172804
  31 H :    0.159705
  32 H :    0.176796
  33 H :    0.175109
  34 H :    0.166557
  35 H :    0.179956
  36 H :    0.171352
  37 H :    0.172560

-------------------------------
LOEWDIN REDUCED ORBITAL CHARGES
-------------------------------
  0 C s       :     2.970486  s :     2.970486
      pz      :     1.147912  p :     3.353899
      px      :     1.087309
      py      :     1.118678
      dz2     :     0.018200  d :     0.060727
      dxz     :     0.005372
      dyz     :     0.010393
      dx2y2   :     0.012912
      dxy     :     0.013849

  1 C s       :     2.868242  s :     2.868242
      pz      :     1.088396  p :     2.975841
      px      :     0.846630
      py      :     1.040815
      dz2     :     0.027542  d :     0.119389
      dxz     :     0.018699
      dyz     :     0.013049
      dx2y2   :     0.030142
      dxy     :     0.029958

  2 O s       :     3.456291  s :     3.456291
      pz      :     1.683519  p :     4.647896
      px      :     1.311909
      py      :     1.652468
      dz2     :     0.071011  d :     0.478807
      dxz     :     0.101215
      dyz     :     0.044349
      dx2y2   :     0.138567
      dxy     :     0.123665

  3 C s       :     2.732692  s :     2.732692
      pz      :     0.799218  p :     2.638277
      px      :     0.926843
      py      :     0.912217
      dz2     :     0.036544  d :     0.277255
      dxz     :     0.050759
      dyz     :     0.042273
      dx2y2   :     0.054875
      dxy     :     0.092805

  4 O s       :     3.543653  s :     3.543653
      pz      :     1.443877  p :     4.653060
      px      :     1.744396
      py      :     1.464787
      dz2     :     0.033290  d :     0.222387
      dxz     :     0.027729
      dyz     :     0.061005
      dx2y2   :     0.048397
      dxy     :     0.051967

  5 C s       :     2.917665  s :     2.917665
      pz      :     1.116621  p :     3.211381
      px      :     1.022261
      py      :     1.072499
      dz2     :     0.009791  d :     0.074048
      dxz     :     0.011883
      dyz     :     0.020886
      dx2y2   :     0.010558
      dxy     :     0.020929

  6 C s       :     2.914194  s :     2.914194
      pz      :     1.073385  p :     3.198821
      px      :     1.031699
      py      :     1.093737
      dz2     :     0.015315  d :     0.091142
      dxz     :     0.014045
      dyz     :     0.024755
      dx2y2   :     0.016405
      dxy     :     0.020623

  7 H s       :     0.727176  s :     0.727176
      pz      :     0.019388  p :     0.048869
      px      :     0.007315
      py      :     0.022166

  8 C s       :     2.726075  s :     2.726075
      pz      :     0.937851  p :     2.635078
      px      :     0.924262
      py      :     0.772965
      dz2     :     0.063118  d :     0.278548
      dxz     :     0.067982
      dyz     :     0.028955
      dx2y2   :     0.067221
      dxy     :     0.051272

  9 O s       :     3.537837  s :     3.537837
      pz      :     1.566004  p :     4.614433
      px      :     1.558692
      py      :     1.489737
      dz2     :     0.055699  d :     0.296876
      dxz     :     0.084966
      dyz     :     0.049294
      dx2y2   :     0.059499
      dxy     :     0.047418

 10 O s       :     3.445490  s :     3.445490
      pz      :     1.561731  p :     4.627669
      px      :     1.442947
      py      :     1.622990
      dz2     :     0.102736  d :     0.497347
      dxz     :     0.130220
      dyz     :     0.073562
      dx2y2   :     0.108034
      dxy     :     0.082796

 11 C s       :     2.870624  s :     2.870624
      pz      :     0.919903  p :     2.973156
      px      :     1.062948
      py      :     0.990305
      dz2     :     0.027432  d :     0.117915
      dxz     :     0.021958
      dyz     :     0.026866
      dx2y2   :     0.026051
      dxy     :     0.015608

 12 C s       :     2.972694  s :     2.972694
      pz      :     1.148058  p :     3.352146
      px      :     1.167107
      py      :     1.036980
      dz2     :     0.011388  d :     0.060062
      dxz     :     0.011647
      dyz     :     0.011296
      dx2y2   :     0.016172
      dxy     :     0.009560

 13 S s       :     5.410587  s :     5.410587
      pz      :     3.695746  p :    10.110142
      px      :     3.053231
      py      :     3.361165
      dz2     :     0.042623  d :     0.291752
      dxz     :     0.041334
      dyz     :     0.035474
      dx2y2   :     0.077060
      dxy     :     0.095260

 14 P s       :     4.655211  s :     4.655211
      pz      :     2.732613  p :     8.366923
      px      :     2.742667
      py      :     2.891643
      dz2     :     0.341697  d :     1.568647
      dxz     :     0.297545
      dyz     :     0.280787
      dx2y2   :     0.312612
      dxy     :     0.336005

 15 S s       :     5.558154  s :     5.558154
      pz      :     3.567838  p :    10.393772
      px      :     3.576660
      py      :     3.249275
      dz2     :     0.017342  d :     0.135785
      dxz     :     0.011419
      dyz     :     0.030933
      dx2y2   :     0.039490
      dxy     :     0.036601

 16 O s       :     3.472563  s :     3.472563
      pz      :     1.404575  p :     4.749118
      px      :     1.595023
      py      :     1.749520
      dz2     :     0.136564  d :     0.473538
      dxz     :     0.127886
      dyz     :     0.091388
      dx2y2   :     0.058436
      dxy     :     0.059264

 17 C s       :     2.915701  s :     2.915701
      pz      :     0.809436  p :     3.043395
      px      :     1.111931
      py      :     1.122028
      dz2     :     0.035866  d :     0.106487
      dxz     :     0.018483
      dyz     :     0.029820
      dx2y2   :     0.014737
      dxy     :     0.007580

 18 O s       :     3.468724  s :     3.468724
      pz      :     1.511804  p :     4.712942
      px      :     1.656446
      py      :     1.544692
      dz2     :     0.122598  d :     0.456224
      dxz     :     0.084573
      dyz     :     0.101237
      dx2y2   :     0.079178
      dxy     :     0.068637

 19 C s       :     2.914903  s :     2.914903
      pz      :     1.056763  p :     3.030970
      px      :     1.050504
      py      :     0.923703
      dz2     :     0.026879  d :     0.103599
      dxz     :     0.010129
      dyz     :     0.014867
      dx2y2   :     0.025489
      dxy     :     0.026236

 20 H s       :     0.795449  s :     0.795449
      pz      :     0.009030  p :     0.043891
      px      :     0.024274
      py      :     0.010587

 21 H s       :     0.797129  s :     0.797129
      pz      :     0.027361  p :     0.043424
      px      :     0.007803
      py      :     0.008260

 22 H s       :     0.796262  s :     0.796262
      pz      :     0.011805  p :     0.043440
      px      :     0.007851
      py      :     0.023785

 23 H s       :     0.776070  s :     0.776070
      pz      :     0.028098  p :     0.041358
      px      :     0.005674
      py      :     0.007585

 24 H s       :     0.780377  s :     0.780377
      pz      :     0.011252  p :     0.040850
      px      :     0.005619
      py      :     0.023978

 25 H s       :     0.765107  s :     0.765107
      pz      :     0.018715  p :     0.044552
      px      :     0.008436
      py      :     0.017401

 26 H s       :     0.764857  s :     0.764857
      pz      :     0.021242  p :     0.044814
      px      :     0.011078
      py      :     0.012493

 27 H s       :     0.766098  s :     0.766098
      pz      :     0.018660  p :     0.043110
      px      :     0.016091
      py      :     0.008358

 28 H s       :     0.781865  s :     0.781865
      pz      :     0.006045  p :     0.039930
      px      :     0.024182
      py      :     0.009704

 29 H s       :     0.795341  s :     0.795341
      pz      :     0.021883  p :     0.043627
      px      :     0.013541
      py      :     0.008203

 30 H s       :     0.782701  s :     0.782701
      pz      :     0.008171  p :     0.044495
      px      :     0.026958
      py      :     0.009366

 31 H s       :     0.796209  s :     0.796209
      pz      :     0.019607  p :     0.044086
      px      :     0.011374
      py      :     0.013105

 32 H s       :     0.780326  s :     0.780326
      pz      :     0.008078  p :     0.042878
      px      :     0.011624
      py      :     0.023177

 33 H s       :     0.784781  s :     0.784781
      pz      :     0.004666  p :     0.040110
      px      :     0.027368
      py      :     0.008076

 34 H s       :     0.791828  s :     0.791828
      pz      :     0.007736  p :     0.041615
      px      :     0.011849
      py      :     0.022029

 35 H s       :     0.779798  s :     0.779798
      pz      :     0.026187  p :     0.040246
      px      :     0.007066
      py      :     0.006993

 36 H s       :     0.786424  s :     0.786424
      pz      :     0.007967  p :     0.042225
      px      :     0.013851
      py      :     0.020406

 37 H s       :     0.785650  s :     0.785650
      pz      :     0.010617  p :     0.041790
      px      :     0.024891
      py      :     0.006281


---------------------------------
LOEWDIN BOND ORDERS (THRESH 0.050000)
---------------------------------
B(  0-C ,  1-C ) :   1.0933 B(  0-C ,  2-O ) :   0.1681 B(  0-C , 20-H ) :   0.9185 
B(  0-C , 21-H ) :   0.9218 B(  0-C , 22-H ) :   0.9221 B(  1-C ,  2-O ) :   1.2830 
B(  1-C ,  3-C ) :   0.0900 B(  1-C ,  4-O ) :   0.0684 B(  1-C , 23-H ) :   0.8232 
B(  1-C , 24-H ) :   0.8263 B(  2-O ,  3-C ) :   1.4742 B(  2-O ,  4-O ) :   0.4567 
B(  2-O ,  5-C ) :   0.1827 B(  2-O , 23-H ) :   0.0930 B(  2-O , 24-H ) :   0.0938 
B(  3-C ,  4-O ) :   2.1562 B(  3-C ,  5-C ) :   0.8928 B(  3-C ,  6-C ) :   0.0713 
B(  3-C , 10-O ) :   0.0524 B(  4-O ,  5-C ) :   0.1804 B(  5-C ,  6-C ) :   1.0318 
B(  5-C ,  8-C ) :   0.0629 B(  5-C , 13-S ) :   0.1173 B(  5-C , 25-H ) :   0.8551 
B(  5-C , 26-H ) :   0.8535 B(  6-C ,  7-H ) :   0.7857 B(  6-C ,  8-C ) :   0.8549 
B(  6-C ,  9-O ) :   0.1792 B(  6-C , 10-O ) :   0.1616 B(  6-C , 13-S ) :   1.2553 
B(  6-C , 14-P ) :   0.0816 B(  7-H , 13-S ) :   0.0559 B(  8-C ,  9-O ) :   2.0924 
B(  8-C , 10-O ) :   1.4827 B(  8-C , 11-C ) :   0.0842 B(  8-C , 13-S ) :   0.1195 
B(  9-O , 10-O ) :   0.4498 B(  9-O , 11-C ) :   0.0618 B(  9-O , 13-S ) :   0.1143 
B(  9-O , 14-P ) :   0.1383 B(  9-O , 15-S ) :   0.0861 B(  9-O , 18-O ) :   0.0968 
B( 10-O , 11-C ) :   1.2796 B( 10-O , 12-C ) :   0.1563 B( 10-O , 27-H ) :   0.0905 
B( 10-O , 28-H ) :   0.0967 B( 11-C , 12-C ) :   1.0860 B( 11-C , 27-H ) :   0.8178 
B( 11-C , 28-H ) :   0.8335 B( 11-C , 31-H ) :   0.0508 B( 12-C , 29-H ) :   0.9228 
B( 12-C , 30-H ) :   0.9148 B( 12-C , 31-H ) :   0.9171 B( 13-S , 14-P ) :   1.1803 
B( 13-S , 15-S ) :   0.1447 B( 13-S , 16-O ) :   0.1641 B( 13-S , 18-O ) :   0.1284 
B( 14-P , 15-S ) :   2.0107 B( 14-P , 16-O ) :   1.5038 B( 14-P , 17-C ) :   0.0967 
B( 14-P , 18-O ) :   1.5645 B( 14-P , 19-C ) :   0.0982 B( 15-S , 16-O ) :   0.1873 
B( 15-S , 18-O ) :   0.1516 B( 16-O , 17-C ) :   1.3582 B( 16-O , 18-O ) :   0.2389 
B( 16-O , 32-H ) :   0.1023 B( 16-O , 33-H ) :   0.1021 B( 16-O , 34-H ) :   0.1038 
B( 17-C , 32-H ) :   0.8587 B( 17-C , 33-H ) :   0.8635 B( 17-C , 34-H ) :   0.8661 
B( 18-O , 19-C ) :   1.3265 B( 18-O , 35-H ) :   0.1016 B( 18-O , 36-H ) :   0.0999 
B( 18-O , 37-H ) :   0.0989 B( 19-C , 35-H ) :   0.8627 B( 19-C , 36-H ) :   0.8632 
B( 19-C , 37-H ) :   0.8669 

------------------------------------------
LOEWDIN REDUCED ORBITAL POPULATIONS PER MO
-------------------------------------------
THRESHOLD FOR PRINTING IS 0.1%%
                      0         1         2         3         4         5   
                 -88.57185 -88.50581 -76.90566 -19.01511 -19.00765 -18.98151
                   2.00000   2.00000   2.00000   2.00000   2.00000   2.00000
                  --------  --------  --------  --------  --------  --------
 2 O  s               0.0       0.0       0.0       0.0      99.9       0.0
10 O  s               0.0       0.0       0.0      99.9       0.0       0.0
13 S  s             100.0       0.0       0.0       0.0       0.0       0.0
14 P  s               0.0       0.0     100.0       0.0       0.0       0.0
15 S  s               0.0     100.0       0.0       0.0       0.0       0.0
18 O  s               0.0       0.0       0.0       0.0       0.0      99.9

                      6         7         8         9        10        11   
                 -18.97822 -18.94113 -18.93586 -10.16710 -10.16439 -10.10116
                   2.00000   2.00000   2.00000   2.00000   2.00000   2.00000
                  --------  --------  --------  --------  --------  --------
 2 O  dxy             0.0       0.0       0.0       0.0       0.1       0.0
 3 C  s               0.0       0.0       0.0       0.0      98.9       0.0
 4 O  s               0.0       0.0      99.9       0.0       0.0       0.0
 4 O  py              0.0       0.0       0.0       0.0       0.1       0.0
 4 O  dyz             0.0       0.0       0.0       0.0       0.2       0.0
 4 O  dx2y2           0.0       0.0       0.0       0.0       0.1       0.0
 8 C  s               0.0       0.0       0.0      98.8       0.0       0.0
 9 O  s               0.0      99.9       0.0       0.0       0.0       0.0
 9 O  dxz             0.0       0.0       0.0       0.2       0.0       0.0
10 O  px              0.0       0.0       0.0       0.1       0.0       0.0
10 O  dyz             0.0       0.0       0.0       0.0       0.0       0.1
10 O  dx2y2           0.0       0.0       0.0       0.2       0.0       0.0
11 C  s               0.0       0.0       0.0       0.0       0.0      99.4
16 O  s              99.9       0.0       0.0       0.0       0.0       0.0

                     12        13        14        15        16        17   
                 -10.10051 -10.09465 -10.08918 -10.08096 -10.06618 -10.03945
                   2.00000   2.00000   2.00000   2.00000   2.00000   2.00000
                  --------  --------  --------  --------  --------  --------
 0 C  s               0.0       0.0       0.0       0.0       0.0      99.7
 1 C  s              99.4       0.0       0.0       0.0       0.0       0.0
 5 C  s               0.0       0.0       0.0       0.0      99.7       0.0
 6 C  s               0.0      99.6       0.0       0.0       0.0       0.0
16 O  pz              0.0       0.0       0.0       0.1       0.0       0.0
16 O  dz2             0.0       0.0       0.0       0.3       0.0       0.0
17 C  s               0.0       0.0       0.0      99.4       0.0       0.0
18 O  dxy             0.0       0.0       0.1       0.0       0.0       0.0
19 C  s               0.0       0.0      99.4       0.0       0.0       0.0

                     18        19        20        21        22        23   
                 -10.02962  -7.86614  -7.80064  -6.58334  -5.81295  -5.81006
                   2.00000   2.00000   2.00000   2.00000   2.00000   2.00000
                  --------  --------  --------  --------  --------  --------
 6 C  px              0.0       0.1       0.0       0.0       0.0       0.0
12 C  s              99.7       0.0       0.0       0.0       0.0       0.0
13 S  s               0.0      99.6       0.0       0.0       0.0       0.0
13 S  pz              0.0       0.0       0.0       0.0       6.6       1.1
13 S  px              0.0       0.0       0.0       0.0      87.5       7.6
13 S  py              0.0       0.0       0.0       0.1       5.9      91.2
14 P  s               0.0       0.0       0.0      96.5       0.0       0.0
14 P  py              0.0       0.1       0.1       0.0       0.0       0.0
15 S  s               0.0       0.0      99.6       0.0       0.0       0.0
15 S  py              0.0       0.0       0.0       0.1       0.0       0.0
16 O  px              0.0       0.0       0.0       0.3       0.0       0.0
16 O  dxz             0.0       0.0       0.0       0.4       0.0       0.0
16 O  dx2y2           0.0       0.0       0.0       0.4       0.0       0.0
18 O  pz              0.0       0.0       0.0       0.4       0.0       0.0
18 O  dz2             0.0       0.0       0.0       0.8       0.0       0.0
18 O  dxz             0.0       0.0       0.0       0.2       0.0       0.0

[...]
32 H  py              0.4       0.0       0.0       0.0       0.0       0.0
33 H  s               0.4       0.0       0.0       0.0       0.0       0.0
33 H  pz              0.3       0.0       0.0       0.0       0.0       0.0
33 H  px              0.7       0.0       0.0       0.0       0.0       0.0
34 H  s               0.3       0.0       0.0       0.0       0.0       0.0
34 H  px              0.2       0.0       0.0       0.0       0.0       0.0
34 H  py              0.4       0.0       0.0       0.0       0.0       0.0

                    492       493       494       495       496       497   
                  18.96136  19.21205  21.89807  21.96159  22.00095  22.00744
                   0.00000   0.00000   0.00000   0.00000   0.00000   0.00000
                  --------  --------  --------  --------  --------  --------
 0 C  s               0.0       0.0      79.5       0.1      13.7       5.5
 1 C  s               0.0       0.0      16.3       0.0      42.1      22.6
 3 C  s               0.0       0.0       0.0       0.0       0.7       0.3
 5 C  s               0.0       0.0       3.1       0.1       5.1       1.5
 6 C  s               0.0       0.3       0.0       0.7       0.3       0.1
 6 C  px              0.0       0.1       0.0       0.0       0.0       0.0
 8 C  s               0.0       0.0       0.0       0.1       0.0       0.0
11 C  s               0.0       0.0       0.5       0.0       6.1       2.0
12 C  s               0.0       0.0       0.1      98.5       0.0       0.0
13 S  s               0.0      98.8       0.0       0.0       0.0       0.0
14 P  s               0.1       0.1       0.0       0.0       0.0       0.0
14 P  py              0.1       0.0       0.0       0.0       0.0       0.0
15 S  s              98.9       0.0       0.0       0.0       0.0       0.0
15 S  py              0.1       0.0       0.0       0.0       0.0       0.0
17 C  s               0.0       0.0       0.0       0.1       0.9       4.9
19 C  s               0.1       0.0       0.0       0.0      30.7      62.7

                    498       499       500       501       502       503   
                  22.02972  22.07504  22.10771  22.18708  22.38812  22.42560
                   0.00000   0.00000   0.00000   0.00000   0.00000   0.00000
                  --------  --------  --------  --------  --------  --------
 0 C  s               0.0       0.4       0.0       0.1       0.2       0.2
 1 C  s               0.4       4.2      11.2       2.3       0.2       0.3
 3 C  s               0.0       0.3       0.1       0.3      42.4      54.8
 5 C  s               0.3       2.3      36.5      49.6       0.2       0.7
 6 C  s               0.0      18.0      39.2      41.0       0.0       0.1
 8 C  s               0.1       0.0       0.1       0.1      55.7      42.7
 9 O  s               0.0       0.0       0.0       0.0       0.1       0.1
10 O  s               0.0       0.0       0.0       0.0       0.1       0.1
11 C  s               0.1      74.2      11.5       5.0       0.1       0.0
12 C  s               0.1       0.0       0.1       0.7       0.1       0.0
17 C  s              93.0       0.1       0.1       0.3       0.0       0.1
19 C  s               5.5       0.0       0.7       0.0       0.0       0.0

                    504       505       506       507       508       509   
                  43.73571  43.78897  43.81148  43.85944  43.89468  43.95071
                   0.00000   0.00000   0.00000   0.00000   0.00000   0.00000
                  --------  --------  --------  --------  --------  --------
 2 O  s              39.2       0.1       6.4       0.1      54.0       0.1
 3 C  s               0.0       0.0       0.0       0.0       0.1       0.0
 4 O  s              57.7       0.1      12.2       2.8      26.9       0.2
 9 O  s               2.5       0.9      15.0      69.7       9.6       2.3
10 O  s               0.3       1.6      52.3      11.0       6.5      28.3
16 O  s               0.2      93.4       1.7       3.7       0.2       0.7
18 O  s               0.1       3.9      12.3      12.6       2.8      68.2



                      *****************************
                      * MAYER POPULATION ANALYSIS *
                      *****************************

  NA   - Mulliken gross atomic population
  ZA   - Total nuclear charge
  QA   - Mulliken gross atomic charge
  VA   - Mayer's total valence
  BVA  - Mayer's bonded valence
  FA   - Mayer's free valence

  ATOM       NA         ZA         QA         VA         BVA        FA
  0 C      6.4412     6.0000    -0.4412     3.8390     3.8390     0.0000
  1 C      6.1537     6.0000    -0.1537     3.6538     3.6538     0.0000
  2 O      8.1387     8.0000    -0.1387     1.9545     1.9545     0.0000
  3 C      5.7154     6.0000     0.2846     3.9145     3.9145     0.0000
  4 O      8.3917     8.0000    -0.3917     1.9633     1.9633     0.0000
  5 C      6.3768     6.0000    -0.3768     3.7687     3.7687     0.0000
  6 C      6.0200     6.0000    -0.0200     3.7136     3.7136     0.0000
  7 H      0.7277     1.0000     0.2723     0.9207     0.9207     0.0000
  8 C      5.7234     6.0000     0.2766     3.9603     3.9603     0.0000
  9 O      8.4024     8.0000    -0.4024     2.0068     2.0068     0.0000
 10 O      8.0984     8.0000    -0.0984     1.9978     1.9978     0.0000
 11 C      6.1489     6.0000    -0.1489     3.6564     3.6564     0.0000
 12 C      6.4598     6.0000    -0.4598     3.8207     3.8207     0.0000
 13 S     16.2182    16.0000    -0.2182     2.1166     2.1166     0.0000
 14 P     14.1881    15.0000     0.8119     5.1193     5.1193    -0.0000
 15 S     16.4630    16.0000    -0.4630     2.0423     2.0423     0.0000
 16 O      8.3638     8.0000    -0.3638     1.8120     1.8120    -0.0000
 17 C      6.3011     6.0000    -0.3011     3.7892     3.7892     0.0000
 18 O      8.3023     8.0000    -0.3023     1.9067     1.9067     0.0000
 19 C      6.2903     6.0000    -0.2903     3.7473     3.7473     0.0000
 20 H      0.8502     1.0000     0.1498     0.9630     0.9630     0.0000
 21 H      0.8479     1.0000     0.1521     0.9615     0.9615     0.0000
 22 H      0.8455     1.0000     0.1545     0.9612     0.9612    -0.0000
 23 H      0.8372     1.0000     0.1628     0.9504     0.9504     0.0000
 24 H      0.8449     1.0000     0.1551     0.9511     0.9511     0.0000
 25 H      0.8076     1.0000     0.1924     0.9509     0.9509     0.0000
 26 H      0.8158     1.0000     0.1842     0.9510     0.9510    -0.0000
 27 H      0.8307     1.0000     0.1693     0.9571     0.9571     0.0000
 28 H      0.8513     1.0000     0.1487     0.9525     0.9525     0.0000
 29 H      0.8421     1.0000     0.1579     0.9613     0.9613    -0.0000
 30 H      0.8147     1.0000     0.1853     0.9553     0.9553     0.0000
 31 H      0.8514     1.0000     0.1486     0.9632     0.9632    -0.0000
 32 H      0.8237     1.0000     0.1763     0.9561     0.9561    -0.0000
 33 H      0.8515     1.0000     0.1485     0.9563     0.9563    -0.0000
 34 H      0.8462     1.0000     0.1538     0.9553     0.9553    -0.0000
 35 H      0.8444     1.0000     0.1556     0.9559     0.9559    -0.0000
 36 H      0.8375     1.0000     0.1625     0.9579     0.9579     0.0000
 37 H      0.8328     1.0000     0.1672     0.9520     0.9520     0.0000

  Mayer bond orders larger than 0.100000
B(  0-C ,  1-C ) :   0.9426 B(  0-C , 20-H ) :   0.9676 B(  0-C , 21-H ) :   0.9718 
B(  0-C , 22-H ) :   0.9730 B(  1-C ,  2-O ) :   0.7912 B(  1-C , 23-H ) :   0.9528 
B(  1-C , 24-H ) :   0.9520 B(  2-O ,  3-C ) :   1.1162 B(  3-C ,  4-O ) :   1.8495 
B(  3-C ,  5-C ) :   0.8947 B(  5-C ,  6-C ) :   0.8555 B(  5-C , 25-H ) :   1.0019 
B(  5-C , 26-H ) :   0.9377 B(  6-C ,  7-H ) :   0.8829 B(  6-C ,  8-C ) :   0.9769 
B(  6-C , 13-S ) :   0.8786 B(  8-C ,  9-O ) :   1.8103 B(  8-C , 10-O ) :   1.1666 
B(  9-O , 14-P ) :   0.1068 B( 10-O , 11-C ) :   0.7661 B( 11-C , 12-C ) :   0.9411 
B( 11-C , 27-H ) :   0.9598 B( 11-C , 28-H ) :   0.9633 B( 12-C , 29-H ) :   0.9714 
B( 12-C , 30-H ) :   0.9622 B( 12-C , 31-H ) :   0.9654 B( 13-S , 14-P ) :   0.9643 
B( 14-P , 15-S ) :   1.7897 B( 14-P , 16-O ) :   1.0005 B( 14-P , 18-O ) :   1.1862 
B( 16-O , 17-C ) :   0.8381 B( 17-C , 32-H ) :   0.9579 B( 17-C , 33-H ) :   0.9694 
B( 17-C , 34-H ) :   0.9569 B( 18-O , 19-C ) :   0.7962 B( 19-C , 35-H ) :   0.9658 
B( 19-C , 36-H ) :   0.9593 B( 19-C , 37-H ) :   0.9626 

-------
TIMINGS
-------

Total SCF time: 0 days 0 hours 1 min 13 sec 

Total time                  ....      73.556 sec
Sum of individual times     ....      73.518 sec  ( 99.9%)

SCF preparation             ....       5.377 sec  (  7.3%)
Fock matrix formation       ....      66.676 sec  ( 90.6%)
  Startup                   ....       0.020 sec  (  0.0% of F)
  Split-RI-J                ....      23.322 sec  ( 35.0% of F)
  XC integration            ....      43.137 sec  ( 64.7% of F)
    Basis function eval.    ....       6.749 sec  ( 15.6% of XC)
    Density eval.           ....      17.234 sec  ( 40.0% of XC)
    XC-Functional eval.     ....       3.005 sec  (  7.0% of XC)
    XC-Potential eval.      ....      15.413 sec  ( 35.7% of XC)
Diagonalization             ....       0.000 sec  (  0.0%)
Density matrix formation    ....       0.108 sec  (  0.1%)
Total Energy calculation    ....       0.010 sec  (  0.0%)
Population analysis         ....       0.321 sec  (  0.4%)
Orbital Transformation      ....       0.129 sec  (  0.2%)
Orbital Orthonormalization  ....       0.000 sec  (  0.0%)
DIIS solution               ....       0.792 sec  (  1.1%)
  MO trafo                  ....       0.000 sec  (  0.0 % of DIIS)
  Orb grad                  ....       0.000 sec  (  0.0 % of DIIS)
  Energy W gradient         ....       0.000 sec  (  0.0 % of DIIS)
  DIIS error                ....       0.125 sec  ( 15.8 % of DIIS)
  DIIS work                 ....       0.598 sec  ( 75.4 % of DIIS)
  Form Q                    ....       0.000 sec  (  0.0 % of DIIS)
  Form QpQm                 ....       0.000 sec  (  0.0 % of DIIS)
  Exp/Cayley                ....       0.000 sec  (  0.0 % of DIIS)
  Orb update                ....       0.000 sec  (  0.0 % of DIIS)
  Wake-sleep                ....       0.005 sec  (  0.6 % of DIIS)
SOSCF solution              ....       0.105 sec  (  0.1%)
  MO trafo                  ....       0.081 sec  ( 77.5 % of SOSCF)
  Orb grad                  ....       0.000 sec  (  0.3 % of SOSCF)
  Rot update                ....       0.000 sec  (  0.1 % of SOSCF)
  Step                      ....       0.023 sec  ( 21.9 % of SOSCF)
Finished LeanSCF after  73.7 sec

Maximum memory used throughout the entire LEANSCF-calculation: 70.2 MB


-------------------------------------------------------------------------------
                          DFT DISPERSION CORRECTION                            
                                                                               
                                DFTD4 V3.4.0                                   
-------------------------------------------------------------------------------
The R2SCAN3C composite method is recognized
Using three-body term ABC
Active option DFTDOPT                   ...         5   

-------------------------   ----------------
Dispersion correction           -0.016827119
-------------------------   ----------------

------------------   -----------------
gCP correction             0.037544854
------------------   -----------------

-------------------------   --------------------
FINAL SINGLE POINT ENERGY     -1981.447740879201
-------------------------   --------------------


------------------------------------------------------------------------------
                              ORCA PROPERTY CALCULATIONS
------------------------------------------------------------------------------

GBWName                                 ... sp_gas.gbw
Number of atoms                         ...     38
Number of basis functions               ...    510
Max core memory                         ...   1024 MB

Electric properties:
Dipole moment                           ... YES
Quadrupole moment                       ...  NO
Static polarizability (Dipole/Dipole)   ...  NO
Static polarizability (Dipole/Quad.)    ...  NO
Static polarizability (Quad./Quad.)     ...  NO
Static polarizability (Velocity)        ...  NO

Atomic electric properties:
Dipole moment                           ...  NO
Quadrupole moment                       ...  NO
Static polarizability                   ...  NO

Choice of electric origin               ... Center of mass
Position of electric origin             ...     0.000006    -0.000001    -0.000000

General magnetic properties:
Magnetizability                         ...  NO

EPR properties:
g-Tensor (aka g-matrix)                 ...  NO
Zero-Field splitting spin-orbit         ...  NO
Zero-field splitting spin-spin          ...  NO
Hyperfine couplings                     ...  NO (   0 nuclei)
Quadrupole couplings                    ...  NO (   0 nuclei)
Contact density                         ...  NO (   0 nuclei)

NMR properties:
Chemical shifts                         ...  NO (   0 nuclei)
Spin-rotation constants                 ...  NO (   0 nuclei)
Spin-spin couplings                     ...  NO (   0 nuclei,    0 pairs)

Choice of magnetic origin               ... GIAO
Position of magnetic origin             ...     0.000000     0.000000     0.000000

Properties with geometric perturbations:
SCF Hessian                             ...  NO
IR spectrum                             ...  NO
VCD spectrum                            ...  NO
X-ray spectroscopy properties:
SCF XES/XAS/RIXS spectra                ...  NO


-------------
DIPOLE MOMENT
-------------

Method             : SCF
Type of density    : Electron Density
Multiplicity       :   1
Irrep              :   0
Energy             : -1981.4684586135203972 Eh
Relativity type    : 
Basis              : AO
                                X                 Y                 Z
Electronic contribution:    -19.083139216       2.785182196      -1.670535668
Nuclear contribution   :     20.285106235      -4.374205669       2.168500673
                        -----------------------------------------
Total Dipole Moment    :      1.201967019      -1.589023473       0.497965005
                        -----------------------------------------
Magnitude (a.u.)       :      2.053701404
Magnitude (Debye)      :      5.220094122



--------------------
Rotational spectrum 
--------------------
 
Rotational constants in cm-1:             0.017507             0.005399             0.004941 
Rotational constants in MHz :           524.846075           161.851496           148.119521 

Dipole components along the rotational axes: 
x,y,z [a.u.] :     1.374215     0.381564    -1.477711 
x,y,z [Debye]:     3.492978     0.969859    -3.756043 

 

Dipole moment calculation done in   0.0 sec 

Maximum memory used throughout the entire PROP-calculation: 49.5 MB

--------------------------------
SUGGESTED CITATIONS FOR THIS RUN
--------------------------------

Below you find a list of papers that are relevant to this ORCA run
We neither can nor want to force you to cite these papers, but we appreciate if you do
You receive ORCA, which is the product of decades of hard work by many enthusiastic individuals, for free
The only thing we kindly ask in return is that you cite our papers,
We deeply appreciate it, if you show your appreciation for ORCA by not just citing the generic ORCA reference.

Please note that relegating all ORCA citations to the supporting information does *not* help us.
SI sections are not indexed - citations you put there will not count into any citation statistics
But we need these citations in order to attract the funding resources that allow us to do what we are doing

Therefore, if you are a happy ORCA user, please consider citing a few of the papers listed below in the main body of your paper

In addition to the list printed below, the program has created the file sp_gas.bibtex that contains the list in bibtex format
You can import this file easily into all common literature databanks and citation aid programs


List of essential papers. We consider these as the minimum necessary citations

  1. Neese,F.
     Software update: the ORCA program system, version 5.0
     WIRES Comput. Molec. Sci., 2022 12(1)e1606
     doi.org/10.1002/wcms.1606
  2. Grimme,S.; Hansen,A.; Ehlert,S.; Mewes,J.
     r2SCAN-3c: A 'Swiss army knife' composite electronic-structure method
     J. Chem. Phys., 2021 154 064103
     doi.org/10.1063/5.0040021

List of papers to cite with high priority. The work reported in these papers was absolutely
necessary for this run to complete.
Our perspective: the developers of density functionals and basis sets usually get cited in chemistry papers
Good! But without the algorithms to do something with them, the functionals or basis sets would not do anything.
Hence, in our opinion, the algorithm design and method developments papers are equally worthy of getting cited

  1. Neese,F.
     An improvement of the resolution of the identity approximation for the formation of the Coulomb matrix
     J. Comp. Chem., 2003 24(14)1740-1747
     doi.org/10.1002/jcc.10318
  2. Neese,F.
     The SHARK Integral Generation and Digestion System
     J. Comp. Chem., 2022  1-16
     doi.org/10.1002/jcc.26942
  3. Lehtola,S.; Steigemann,C.; Oliveira,M.; Marques,M.
     Recent developments in Libxc - A comprehensive library of functionals for density functional theory
     Software X, 2018 7 
     doi.org/10.1016/j.softx.2017.11.002
  4. Caldeweyher,E.; Bannwarth,C.; Grimme,S.
     Extension of the D3 dispersion coefficient model
     J. Chem. Phys., 2017 147 034112
     doi.org/10.1063/1.4993215
  5. Caldeweyher,E.; Ehlert,S.; Hansen,A.; Neugebauer,H.; Spicher,S.; Bannwarth,C.; Grimme,S.
     A generally applicable atomic-charge dependent London dispersion correction
     J. Chem. Phys., 2019 150 154122
     doi.org/10.1063/1.5090222
  6. Caldeweyher,E.; Mewes,J.; Ehlert,S.; Grimme,S.
     Extension and evaluation of the D4 London-dispersion model for periodic systems
     Phys. Chem. Chem. Phys., 2020 22(16)8499-8512
     doi.org/10.1039/D0CP00502A
  7. Wittmann,L.; Gordiy,I.; Friede,M.; Helmich-Paris,B.; Grimme,S.; Hansen,A.; Bursch,M.
     Extension of the D3 and D4 London Dispersion Corrections to the full Actinides Series
     Phys. Chem. Chem. Phys., 2024 26(32)21379-21394
     doi.org/https://doi.org/10.1039/D4CP01514B 

List of suggested additional citations. These are papers that are important in the 'surrounding' of 
of this run, or papers that preceded the highly important papers. If you like your results we are grateful for a citation.

  1. Neese,F.
     The ORCA program system
     WIRES Comput. Molec. Sci., 2012 2(1)73-78
     doi.org/10.1002/wcms.81
  2. Neese,F.
     Software update: the ORCA program system, version 4.0
     WIRES Comput. Molec. Sci., 2018 8(1)1-6
     doi.org/10.1002/wcms.1327
  3. Neese,F.; Wennmohs,F.; Becker,U.; Riplinger,C.
     The ORCA quantum chemistry program package
     J. Chem. Phys., 2020 152 Art. No. L224108
     doi.org/10.1063/5.0004608

List of optional additional citations

  1. Neese,F.
     Approximate second-order SCF convergence for spin unrestricted wavefunctions
     Chem. Phys. Lett., 2000 325(1-3)93-98
     doi.org/10.1016/s0009-2614(00)00662-x

Timings for individual modules:

Sum of individual times          ...       77.049 sec (=   1.284 min)
Startup calculation              ...        2.903 sec (=   0.048 min)   3.8 %
SCF iterations                   ...       74.040 sec (=   1.234 min)  96.1 %
Property calculations            ...        0.106 sec (=   0.002 min)   0.1 %
                             ****ORCA TERMINATED NORMALLY****
TOTAL RUN TIME: 0 days 0 hours 1 minutes 18 seconds 90 msec
