
                                 *****************
                                 * O   R   C   A *
                                 *****************

                                            #,                                       
                                            ###                                      
                                            ####                                     
                                            #####                                    
                                            ######                                   
                                           ########,                                 
                                     ,,################,,,,,                         
                               ,,#################################,,                 
                          ,,##########################################,,             
                       ,#########################################, ''#####,          
                    ,#############################################,,   '####,        
                  ,##################################################,,,,####,       
                ,###########''''           ''''###############################       
              ,#####''   ,,,,##########,,,,          '''####'''          '####       
            ,##' ,,,,###########################,,,                        '##       
           ' ,,###''''                  '''############,,,                           
         ,,##''                                '''############,,,,        ,,,,,,###''
      ,#''                                            '''#######################'''  
     '                                                          ''''####''''         
             ,#######,   #######,   ,#######,      ##                                
            ,#'     '#,  ##    ##  ,#'     '#,    #''#        ,####,   ,####,        
            ##       ##  ##   ,#'  ##            #'  '#       #'       #'  '#        
            ##       ##  #######   ##           ,######,      #####,   #    #        
            '#,     ,#'  ##    ##  '#,     ,#' ,#      #,     #,   #   #,  ,#        
             '#######'   ##     ##  '#######'  #'      '#     '####' # '####'        



                #########################################################
                #                        -***-                          #
                #          Department of theory and spectroscopy        #
                #                                                       #
                #                      Frank Neese                      #
                #                                                       #
                #     Directorship, Architecture, Infrastructure        #
                #                    SHARK, DRIVERS                     #
                #        Core code/Algorithms in most modules           #
                #                                                       #
                #        Max Planck Institute fuer Kohlenforschung      #
                #                Kaiser Wilhelm Platz 1                 #
                #                 D-45470 Muelheim/Ruhr                 #
                #                      Germany                          #
                #                                                       #
                #                  All rights reserved                  #
                #                        -***-                          #
                #########################################################


                         Program Version 6.0.1  -  RELEASE   -


 With contributions from (in alphabetic order):
[Max-Planck-Institut fuer Kohlenforschung]                               
  Daniel Aravena         : Magnetic Suceptibility                        
  Michael Atanasov       : Ab Initio Ligand Field Theory (pilot matlab implementation)
  Alexander A. Auer      : GIAO ZORA, VPT2 properties, NMR spectrum      
  Ute Becker             : All parallelization in ORCA, NUMFREQ, NUMCALC 
  Giovanni Bistoni       : ED, misc. LED, open-shell LED, HFLD           
  Martin Brehm           : Molecular dynamics                            
  Dmytro Bykov           : pre 5.0 version of the SCF Hessian            
  Marcos Casanova-Páez   : Triplet and SCS-CIS(D). UHF-(DLPNO)-IP/EA/STEOM-CCSD. UHF-CVS-IP/STEOM-CCSD   
  Vijay G. Chilkuri      : MRCI spin determinant printing, contributions to CSF-ICE 
  Pauline Colinet        : FMM embedding                                 
  Dipayan Datta          : RHF DLPNO-CCSD density                        
  Achintya Kumar Dutta   : EOM-CC, STEOM-CC                              
  Nicolas Foglia         : Exact transition moments, OPA infrastructure, MCD improvements    
  Dmitry Ganyushin       : Spin-Orbit,Spin-Spin,Magnetic field MRCI      
  Miquel Garcia-Rates    : C-PCM and meta-GGA Hessian, CCSD/C-PCM, Gaussian charge scheme 
  Tiago L. C. Gouveia    : GS-ROHF, GS-ROCIS                             
  Yang Guo               : DLPNO-NEVPT2, F12-NEVPT2, CIM, IAO-localization        
  Andreas Hansen         : Spin unrestricted coupled pair/coupled cluster methods 
  Ingolf Harden          : AUTO-CI MPn and infrastructure                
  Benjamin Helmich-Paris : MC-RPA, TRAH-(SCF,CASSCF), AVAS, COSX integrals, SCF dyn. polar. 
  Lee Huntington         : MR-EOM, pCC                                   
  Robert Izsak           : Overlap fitted RIJCOSX, COSX-SCS-MP3, EOM     
  Riya Kayal             : Wick's Theorem for AUTO-CI, AUTO-CI UHF-CCSDT 
  Emily Kempfer          : AUTO-CI, RHF CISDT and CCSDT                  
  Christian Kollmar      : KDIIS, OOCD, Brueckner-CCSD(T), CCSD density, CASPT2, CASPT2-K, improved NEVPT2 
  Axel Koslowski         : Symmetry handling                             
  Simone Kossmann        : meta-GGA functionals, TD-DFT gradient, OOMP2, (MP2 Hessian; deprecated post 5.0) 
  Lucas Lang             : DCDCAS                                        
  Marvin Lechner         : AUTO-CI (C++ implementation), FIC-MRCC        
  Spencer Leger          : CASSCF response                               
  Dagmar Lenk            : GEPOL surface, SMD, ORCA-2-JSON               
  Dimitrios Liakos       : Extrapolation schemes; Compound Job, initial MDCI parallelization 
  Dimitrios Manganas     : Further ROCIS development; embedding schemes. LFT, Crystal Embedding 
  Dimitrios Pantazis     : SARC Basis sets                               
  Anastasios Papadopoulos: AUTO-CI, single reference methods and gradients 
  Taras Petrenko         : pre 6.0 DFT Hessian and TD-DFT gradient, (ASA, deprecated), ECA, 1-Electron XAS/XES, NRVS 
  Peter Pinski           : DLPNO-MP2, DLPNO-MP2 Gradient                 
  Christoph Reimann      : Effective Core Potentials                     
  Marius Retegan         : Local ZFS, SOC                                
  Christoph Riplinger    : Optimizer, TS searches, QM/MM, DLPNO-CCSD(T), (RO)-DLPNO pert. Triples 
  Michael Roemelt        : Original ROCIS implementation                 
  Masaaki Saitow         : Open-shell DLPNO-CCSD energy and density      
  Barbara Sandhoefer     : DKH picture change effects                    
  Kantharuban Sivalingam : CASSCF convergence/infrastructure, NEVPT2 and variants, FIC-MRCI 
  Bernardo de Souza      : ESD, SOC TD-DFT                               
  Georgi L. Stoychev     : AutoAux, RI-MP2 NMR, DLPNO-MP2 response, X2C  
  Van Anh Tran           : RI-MP2 g-tensors                              
  Willem Van den Heuvel  : Paramagnetic NMR                              
  Zikuan Wang            : NOTCH, Electric field optimization            
  Frank Wennmohs         : Technical directorship and infrastructure     
  Hang Xu                : AUTO-CI-Response properties                   
                                                                         
[FACCTs GmbH]                                                            
  Markus Bursch, Miquel Garcia-Rates, Christoph Riplinger, Bernardo de Souza, Georgi L. Stoychev 
                                                                 
  APM, Basis sets (HGBS, AHGBS, def-TZVP (Ac-Lr), def2-XVPD (La-Lu)), CI-OPT, improved COSX, DLPNO-Multilevel,           
  DOCKER, DRACO, updates on ESD, GOAT, IRC, LR-CPCM, MBIS, meta-GGA TD-DFT gradient, ML-optimized integration grids, 
  MM, NACMEs, nearIR, NEB, NEB-TS, NL-DFT gradient (VV10), 2- and 3-layer-ONIOM, interface openCOSMO-RS, QMMM,   
  Crystal-QMMM, SF, symmetry and pop. for TD-DFT, r2SCAN hybrids, SOLVATOR                                   
                                                                         
[Other institutions]                                                     
  V. Asgeirsson          : NEB                                           
  Christoph Bannwarth    : sTDA-DFT, sTD-DFT, PBEh-3c, B97-3c, D3        
  Sebastian Ehlert       : rSCAN, r2SCAN, r2SCAN-3c, D4, dhf basis sets  
  Marvin Friede          : D4 for Fr, Ra, Ac-Lr                          
  Lars Goerigk           : TD-DFT with DH, B97 family of functionals     
  Stefan Grimme          : VdW corrections, initial TS optimization, DFT functionals, gCP, sTDA/sTD-DF 
  Waldemar Hujo          : DFT-NL                                        
  H. Jonsson             : NEB                                           
  Holger Kruse           : gCP                                           
  Marcel Mueller         : wB97X-3c, vDZP basis set                      
  Hagen Neugebauer       : wr2SCAN                                       
  Tobias Risthaus        : range-separated hybrid DFT                    
  Lukas Wittmann         : regularized MP2, r2SCAN double-hybrids, wr2SCAN        
                                                                         
We gratefully acknowledge several colleagues who have allowed us to      
interface, adapt or use parts of their codes:                            
  Ed Valeev, F. Pavosevic, A. Kumar             : LibInt (2-el integral package), F12 methods 
  Garnet Chan, S. Sharma, J. Yang, R. Olivares  : DMRG                   
  Ulf Ekstrom                                   : XCFun DFT Library      
  Mihaly Kallay                                 : mrcc  (arbitrary order and MRCC methods)
  Frank Weinhold                                : gennbo (NPA and NBO analysis)           
  Simon Mueller                                 : openCOSMO-RS                            
  Christopher J. Cramer and Donald G. Truhlar   : smd solvation model                     
  S Lehtola, MJT Oliveira, MAL Marques          : LibXC Library                           
  Liviu Ungur et al                             : ANISO software                          


 Your calculation uses the libint2 library for the computation of 2-el integrals
 For citations please refer to: http://libint.valeyev.net

 Your ORCA version has been built with support for libXC version: 6.2.2
 For citations please refer to: https://libxc.gitlab.io

 This ORCA versions uses:
   CBLAS   interface :  Fast vector & matrix operations
   LAPACKE interface :  Fast linear algebra routines
   SCALAPACK package :  Parallel linear algebra routines
   Shared memory     :  Shared parallel matrices
   BLAS/LAPACK       :  OpenBLAS 0.3.27  USE64BITINT DYNAMIC_ARCH NO_AFFINITY Zen SINGLE_THREADED
        Core in use  :  Zen
   Copyright (c) 2011-2014, The OpenBLAS Project


Your calculation utilizes the geometrical counterpoise correction gCP
Please cite in your paper:
H.Kruse, S. Grimme J.Chem.Phys., 136, (2012), 154101 
   

Your calculation utilizes the atom-pairwise dispersion correction
based on EEQ partial charges (D4)


Your calculation utilizes the SMD solvation module
Please cite in your paper:
A.V. Marenich, C.J. Cramer, D.G. Truhlar J. Phys. Chem. B, 113, (2009), 6378 

================================================================================

----- Orbital basis set information -----
Your calculation utilizes the basis: def2-mTZVPP
   Stefan Grimme, Andreas Hansen, Sebastian Ehlert, and Jan-Michael Mewes 
   J. Chem. Phys. 154, 064103 (2021). DOI: 10.1063/5.0040021

----- AuxJ basis set information -----
Your calculation utilizes the auxiliary basis: def2/J
   F. Weigend, Phys. Chem. Chem. Phys. 8, 1057 (2006).

================================================================================
                                        WARNINGS
                       Please study these warnings very carefully!
================================================================================

WARNING: Old DensityContainer found on disk!
         Will remove this file - 
         If you want to keep old densities, please start your calculation with a different basename. 



WARNING: SCAN, rSCAN, or r2SCAN functional requested.
  ===> : libXC variant has now been activated.



================================================================================
                                       INPUT FILE
================================================================================
NAME = sp_solv.inp
|  1> ! r2scan-3c def2/J RI DEFGRID2 scfconv6 printgap
|  2> %output
|  3>     printlevel normal
|  4> end
|  5> %cpcm
|  6>     smd true
|  7>     smdsolvent "water"
|  8> end
|  9> * xyz 0 1
| 10> C 5.9109813739 -1.9590130841 -0.7873885759
| 11> C 4.8518896423 -0.996727474 -1.2876393374
| 12> O 3.5596374597 -1.5455103871 -0.961499667
| 13> C 2.4949042294 -0.9104779823 -1.4003632213
| 14> O 2.5283008612 0.1025837235 -2.0640769195
| 15> C 1.2153048196 -1.6160993589 -0.9872134568
| 16> C 0.2046872526 -0.5788035005 -0.5193979244
| 17> H 0.1224304779 0.2185101205 -1.2714705564
| 18> C 0.5900208519 0.0948700708 0.7818400971
| 19> O -0.2396243174 0.4362061368 1.6009357308
| 20> O 1.8801085602 0.2634666722 0.8997818027
| 21> C 2.3708057915 1.008217018 2.0373387612
| 22> C 2.3504964872 2.4988955865 1.745282569
| 23> S -1.451687755 -1.3024484636 -0.2954600331
| 24> P -2.501734278 0.4752070935 0.222550768
| 25> S -1.7677712095 2.1755524686 -0.4144022467
| 26> O -3.9345909343 0.1498023923 -0.4345411299
| 27> C -4.1180609032 0.1258154459 -1.8519555205
| 28> O -2.9266852961 0.4515056719 1.7421871175
| 29> C -3.5862281168 -0.6827348484 2.3387713492
| 30> H 6.8940294091 -1.5590808741 -1.0123016232
| 31> H 5.8151567559 -2.0936681892 0.2856383865
| 32> H 5.797071451 -2.9236020996 -1.2726793457
| 33> H 4.9047134244 -0.8569902168 -2.3717744436
| 34> H 4.9344947104 -0.0145620281 -0.8121341466
| 35> H 1.4354112289 -2.3441322832 -0.2082397806
| 36> H 0.8107956907 -2.1348446251 -1.8583636493
| 37> H 1.7462161871 0.7712492982 2.9027313593
| 38> H 3.386295894 0.6401093621 2.1825139499
| 39> H 2.9263908571 2.7144257608 0.8489813743
| 40> H 1.3274400258 2.8369770448 1.5882279466
| 41> H 2.7750668239 3.0373232246 2.5858989631
| 42> H -3.6794488151 1.0183292021 -2.3017713574
| 43> H -5.1935149866 0.11168401 -2.008655734
| 44> H -3.6559955724 -0.7683103915 -2.270505728
| 45> H -3.633016324 -0.4539200355 3.4002346196
| 46> H -3.0032793902 -1.5874902878 2.1650906088
| 47> H -4.5839551293 -0.792722559 1.9176856433
| 48> *
| 49> 
| 50>                          ****END OF INPUT****
================================================================================

                       ****************************
                       * Single Point Calculation *
                       ****************************

---------------------------------
CARTESIAN COORDINATES (ANGSTROEM)
---------------------------------
  C      5.910981   -1.959013   -0.787389
  C      4.851890   -0.996727   -1.287639
  O      3.559637   -1.545510   -0.961500
  C      2.494904   -0.910478   -1.400363
  O      2.528301    0.102584   -2.064077
  C      1.215305   -1.616099   -0.987213
  C      0.204687   -0.578804   -0.519398
  H      0.122430    0.218510   -1.271471
  C      0.590021    0.094870    0.781840
  O     -0.239624    0.436206    1.600936
  O      1.880109    0.263467    0.899782
  C      2.370806    1.008217    2.037339
  C      2.350496    2.498896    1.745283
  S     -1.451688   -1.302448   -0.295460
  P     -2.501734    0.475207    0.222551
  S     -1.767771    2.175552   -0.414402
  O     -3.934591    0.149802   -0.434541
  C     -4.118061    0.125815   -1.851956
  O     -2.926685    0.451506    1.742187
  C     -3.586228   -0.682735    2.338771
  H      6.894029   -1.559081   -1.012302
  H      5.815157   -2.093668    0.285638
  H      5.797071   -2.923602   -1.272679
  H      4.904713   -0.856990   -2.371774
  H      4.934495   -0.014562   -0.812134
  H      1.435411   -2.344132   -0.208240
  H      0.810796   -2.134845   -1.858364
  H      1.746216    0.771249    2.902731
  H      3.386296    0.640109    2.182514
  H      2.926391    2.714426    0.848981
  H      1.327440    2.836977    1.588228
  H      2.775067    3.037323    2.585899
  H     -3.679449    1.018329   -2.301771
  H     -5.193515    0.111684   -2.008656
  H     -3.655996   -0.768310   -2.270506
  H     -3.633016   -0.453920    3.400235
  H     -3.003279   -1.587490    2.165091
  H     -4.583955   -0.792723    1.917686

----------------------------
CARTESIAN COORDINATES (A.U.)
----------------------------
  NO LB      ZA    FRAG     MASS         X           Y           Z
   0 C     6.0000    0    12.011   11.170136   -3.701998   -1.487949
   1 C     6.0000    0    12.011    9.168743   -1.883542   -2.433286
   2 O     8.0000    0    15.999    6.726740   -2.920591   -1.816971
   3 C     6.0000    0    12.011    4.714686   -1.720554   -2.646303
   4 O     8.0000    0    15.999    4.777796    0.193855   -3.900540
   5 C     6.0000    0    12.011    2.296593   -3.053985   -1.865563
   6 C     6.0000    0    12.011    0.386803   -1.093780   -0.981520
   7 H     1.0000    0     1.008    0.231360    0.412924   -2.402731
   8 C     6.0000    0    12.011    1.114978    0.179278    1.477464
   9 O     8.0000    0    15.999   -0.452824    0.824310    3.025330
  10 O     8.0000    0    15.999    3.552890    0.497880    1.700341
  11 C     6.0000    0    12.011    4.480174    1.905254    3.850012
  12 C     6.0000    0    12.011    4.441795    4.722228    3.298106
  13 S    16.0000    0    32.060   -2.743292   -2.461271   -0.558339
  14 P    15.0000    0    30.974   -4.727593    0.898011    0.420560
  15 S    16.0000    0    32.060   -3.340603    4.111198   -0.783107
  16 O     8.0000    0    15.999   -7.435299    0.283085   -0.821164
  17 C     6.0000    0    12.011   -7.782007    0.237757   -3.499689
  18 O     8.0000    0    15.999   -5.530634    0.853222    3.292257
  19 C     6.0000    0    12.011   -6.776989   -1.290182    4.419637
  20 H     1.0000    0     1.008   13.027828   -2.946236   -1.912973
  21 H     1.0000    0     1.008   10.989054   -3.956459    0.539778
  22 H     1.0000    0     1.008   10.954877   -5.524807   -2.405015
  23 H     1.0000    0     1.008    9.268565   -1.619477   -4.482004
  24 H     1.0000    0     1.008    9.324844   -0.027518   -1.534711
  25 H     1.0000    0     1.008    2.712534   -4.429768   -0.393516
  26 H     1.0000    0     1.008    1.532182   -4.034272   -3.511798
  27 H     1.0000    0     1.008    3.299870    1.457450    5.485367
  28 H     1.0000    0     1.008    6.399172    1.209631    4.124354
  29 H     1.0000    0     1.008    5.530077    5.129521    1.604342
  30 H     1.0000    0     1.008    2.508498    5.361110    3.001316
  31 H     1.0000    0     1.008    5.244116    5.739709    4.886641
  32 H     1.0000    0     1.008   -6.953151    1.924363   -4.349717
  33 H     1.0000    0     1.008   -9.814321    0.211052   -3.795809
  34 H     1.0000    0     1.008   -6.908830   -1.451896   -4.290634
  35 H     1.0000    0     1.008   -6.865406   -0.857785    6.425512
  36 H     1.0000    0     1.008   -5.675376   -2.999922    4.091428
  37 H     1.0000    0     1.008   -8.662420   -1.498029    3.623901

--------------------------------
INTERNAL COORDINATES (ANGSTROEM)
--------------------------------
 C      0   0   0     0.000000000000     0.00000000     0.00000000
 C      1   0   0     1.515889084244     0.00000000     0.00000000
 O      2   1   0     1.441334615471   108.06077581     0.00000000
 C      3   2   1     1.315113769278   117.80797426   185.05234722
 O      4   3   2     1.211579641605   124.34987860     0.24871161
 C      4   3   2     1.518541703274   111.53392497   179.47760342
 C      6   4   3     1.521900764484   109.05545664   137.12416015
 H      7   6   4     1.099130761566   109.49882218    50.29906986
 C      7   6   4     1.515103445978   113.46377471   291.46281667
 O      9   7   6     1.214800014011   122.02774161   214.47287249
 O      9   7   6     1.306392496545   112.71041739    34.92757806
 C     11   9   7     1.445500841994   118.21409643   174.25105474
 C     12  11   9     1.519154989403   110.47083152   274.81282391
 S      7   6   4     1.821369917832   111.77058247   169.57385584
 P     14   7   6     2.128612733733    98.43763171   183.23305073
 S     15  14   7     1.958465042701   117.45415448    25.32828741
 O     15  14   7     1.609576397489    99.84348465   146.70216091
 C     17  15  14     1.429440505151   121.49713016   289.56432492
 O     15  14   7     1.578112720908   110.77083482   249.94194921
 C     19  15  14     1.441322668850   122.25012549   311.11405621
 H      1   2   3     1.084857175370   109.30876907   180.67128064
 H      1   2   3     1.085680071099   110.07357569   300.73753177
 H      1   2   3     1.085778324803   110.06908046    60.66010600
 H      2   1   3     1.094379176291   111.97783582   240.65390614
 H      2   1   3     1.094338954289   111.93787674   118.95204125
 H      6   4   3     1.088705083341   109.57487691    14.54972444
 H      6   4   3     1.091616665529   108.41790079   255.50578067
 H     12  11   9     1.093238410868   108.50145004    36.61696973
 H     12  11   9     1.089862023387   104.30651379   154.66597354
 H     13  12  11     1.086951430809   110.24391695   303.71784940
 H     13  12  11     1.088857084321   110.17950416    63.44374660
 H     13  12  11     1.084804228562   109.44039526   183.26827615
 H     18  17  15     1.091464912839   110.08131667   311.83998907
 H     18  17  15     1.086902083857   105.67472050   192.60774349
 H     18  17  15     1.090022779226   109.88350594    73.14721486
 H     20  19  15     1.086853085446   104.96737957   173.06950535
 H     20  19  15     1.090218612277   110.02637889    53.94503299
 H     20  19  15     1.088517183911   109.80526598   292.53692296

---------------------------
INTERNAL COORDINATES (A.U.)
---------------------------
 C      0   0   0     0.000000000000     0.00000000     0.00000000
 C      1   0   0     2.864615218622     0.00000000     0.00000000
 O      2   1   0     2.723727690580   108.06077581     0.00000000
 C      3   2   1     2.485204858884   117.80797426   185.05234722
 O      4   3   2     2.289553712068   124.34987860     0.24871161
 C      4   3   2     2.869627942126   111.53392497   179.47760342
 C      6   4   3     2.875975647880   109.05545664   137.12416015
 H      7   6   4     2.077056124727   109.49882218    50.29906986
 C      7   6   4     2.863130577459   113.46377471   291.46281667
 O      9   7   6     2.295639333965   122.02774161   214.47287249
 O      9   7   6     2.468724041881   112.71041739    34.92757806
 C     11   9   7     2.731600717722   118.21409643   174.25105474
 C     12  11   9     2.870786884952   110.47083152   274.81282391
 S      7   6   4     3.441890333264   111.77058247   169.57385584
 P     14   7   6     4.022495111932    98.43763171   183.23305073
 S     15  14   7     3.700962573563   117.45415448    25.32828741
 O     15  14   7     3.041658582877    99.84348465   146.70216091
 C     17  15  14     2.701251079469   121.49713016   289.56432492
 O     15  14   7     2.982200850973   110.77083482   249.94194921
 C     19  15  14     2.723705114739   122.25012549   311.11405621
 H      1   2   3     2.050082955869   109.30876907   180.67128064
 H      1   2   3     2.051638003433   110.07357569   300.73753177
 H      1   2   3     2.051823676025   110.06908046    60.66010600
 H      2   1   3     2.068076929857   111.97783582   240.65390614
 H      2   1   3     2.068000921287   111.93787674   118.95204125
 H      6   4   3     2.057354448122   109.57487691    14.54972444
 H      6   4   3     2.062856541075   108.41790079   255.50578067
 H     12  11   9     2.065921195625   108.50145004    36.61696973
 H     12  11   9     2.059540747963   104.30651379   154.66597354
 H     13  12  11     2.054040525102   110.24391695   303.71784940
 H     13  12  11     2.057641688346   110.17950416    63.44374660
 H     13  12  11     2.049982900901   109.44039526   183.26827615
 H     18  17  15     2.062569770051   110.08131667   311.83998907
 H     18  17  15     2.053947272879   105.67472050   192.60774349
 H     18  17  15     2.059844532473   109.88350594    73.14721486
 H     20  19  15     2.053854679300   104.96737957   173.06950535
 H     20  19  15     2.060214603306   110.02637889    53.94503299
 H     20  19  15     2.056999369658   109.80526598   292.53692296

---------------------
BASIS SET INFORMATION
---------------------
There are 5 groups of distinct atoms

 Group   1 Type C   : 11s6p1d contracted to 5s3p1d pattern {62111/411/1}
 Group   2 Type O   : 11s6p2d contracted to 5s3p2d pattern {62111/411/11}
 Group   3 Type H   : 4s1p contracted to 2s1p pattern {31/1}
 Group   4 Type S   : 14s9p2d contracted to 5s4p2d pattern {73211/6111/11}
 Group   5 Type P   : 14s9p2d contracted to 5s4p2d pattern {73211/6111/11}

Atom   0C    basis set group =>   1
Atom   1C    basis set group =>   1
Atom   2O    basis set group =>   2
Atom   3C    basis set group =>   1
Atom   4O    basis set group =>   2
Atom   5C    basis set group =>   1
Atom   6C    basis set group =>   1
Atom   7H    basis set group =>   3
Atom   8C    basis set group =>   1
Atom   9O    basis set group =>   2
Atom  10O    basis set group =>   2
Atom  11C    basis set group =>   1
Atom  12C    basis set group =>   1
Atom  13S    basis set group =>   4
Atom  14P    basis set group =>   5
Atom  15S    basis set group =>   4
Atom  16O    basis set group =>   2
Atom  17C    basis set group =>   1
Atom  18O    basis set group =>   2
Atom  19C    basis set group =>   1
Atom  20H    basis set group =>   3
Atom  21H    basis set group =>   3
Atom  22H    basis set group =>   3
Atom  23H    basis set group =>   3
Atom  24H    basis set group =>   3
Atom  25H    basis set group =>   3
Atom  26H    basis set group =>   3
Atom  27H    basis set group =>   3
Atom  28H    basis set group =>   3
Atom  29H    basis set group =>   3
Atom  30H    basis set group =>   3
Atom  31H    basis set group =>   3
Atom  32H    basis set group =>   3
Atom  33H    basis set group =>   3
Atom  34H    basis set group =>   3
Atom  35H    basis set group =>   3
Atom  36H    basis set group =>   3
Atom  37H    basis set group =>   3
---------------------------------
AUXILIARY/J BASIS SET INFORMATION
---------------------------------
There are 5 groups of distinct atoms

 Group   1 Type C   : 12s5p4d2f1g contracted to 6s4p3d1f1g pattern {711111/2111/211/2/1}
 Group   2 Type O   : 12s5p4d2f1g contracted to 6s4p3d1f1g pattern {711111/2111/211/2/1}
 Group   3 Type H   : 5s2p1d contracted to 3s1p1d pattern {311/2/1}
 Group   4 Type S   : 14s5p5d2f1g contracted to 8s4p3d1f1g pattern {71111111/2111/311/2/1}
 Group   5 Type P   : 14s5p5d2f1g contracted to 8s4p3d1f1g pattern {71111111/2111/311/2/1}

Atom   0C    basis set group =>   1
Atom   1C    basis set group =>   1
Atom   2O    basis set group =>   2
Atom   3C    basis set group =>   1
Atom   4O    basis set group =>   2
Atom   5C    basis set group =>   1
Atom   6C    basis set group =>   1
Atom   7H    basis set group =>   3
Atom   8C    basis set group =>   1
Atom   9O    basis set group =>   2
Atom  10O    basis set group =>   2
Atom  11C    basis set group =>   1
Atom  12C    basis set group =>   1
Atom  13S    basis set group =>   4
Atom  14P    basis set group =>   5
Atom  15S    basis set group =>   4
Atom  16O    basis set group =>   2
Atom  17C    basis set group =>   1
Atom  18O    basis set group =>   2
Atom  19C    basis set group =>   1
Atom  20H    basis set group =>   3
Atom  21H    basis set group =>   3
Atom  22H    basis set group =>   3
Atom  23H    basis set group =>   3
Atom  24H    basis set group =>   3
Atom  25H    basis set group =>   3
Atom  26H    basis set group =>   3
Atom  27H    basis set group =>   3
Atom  28H    basis set group =>   3
Atom  29H    basis set group =>   3
Atom  30H    basis set group =>   3
Atom  31H    basis set group =>   3
Atom  32H    basis set group =>   3
Atom  33H    basis set group =>   3
Atom  34H    basis set group =>   3
Atom  35H    basis set group =>   3
Atom  36H    basis set group =>   3
Atom  37H    basis set group =>   3

Checking for AutoStart:
The File: sp_solv.gbw exists
Trying to determine its content:
     ... Fine, the file contains calculation information
     ... Fine, the calculation information was read
     ... Fine, the file contains a basis set
     ... Fine, the basis set was read
     ... Fine, the file contains a geometry
     ... Fine, the geometry was read
     ... Fine, the file contains a set of orbitals
     ... Fine, the orbitals can be read
     => possible old guess file was deleted
     => GBW file was renamed to GES file
     => GES file is set as startup file
     => Guess is set to MORead
     ... now leaving AutoStart

------------------------------------------------------------------------------
                             ORCA STARTUP CALCULATIONS
                           -- RI-GTO INTEGRALS CHOSEN --
------------------------------------------------------------------------------
------------------------------------------------------------------------------
                   ___                                                        
                  /   \      - P O W E R E D   B Y -                         
                 /     \                                                     
                 |  |  |   _    _      __       _____    __    __             
                 |  |  |  | |  | |    /  \     |  _  \  |  |  /  |          
                  \  \/   | |  | |   /    \    | | | |  |  | /  /          
                 / \  \   | |__| |  /  /\  \   | |_| |  |  |/  /          
                |  |  |   |  __  | /  /__\  \  |    /   |      \           
                |  |  |   | |  | | |   __   |  |    \   |  |\   \          
                \     /   | |  | | |  |  |  |  | |\  \  |  | \   \       
                 \___/    |_|  |_| |__|  |__|  |_| \__\ |__|  \__/        
                                                                              
                      - O R C A' S   B I G   F R I E N D -                    
                                      &                                       
                       - I N T E G R A L  F E E D E R -                       
                                                                              
 v1 FN, 2020, v2 2021, v3 2022-2024                                           
------------------------------------------------------------------------------


----------------------
SHARK INTEGRAL PACKAGE
----------------------

Number of atoms                             ...     38
Number of basis functions                   ...    510
Number of shells                            ...    240
Maximum angular momentum                    ...      2
Integral batch strategy                     ... SHARK/LIBINT Hybrid
RI-J (if used) integral strategy            ... SPLIT-RIJ (Revised 2003 algorithm where possible)
Printlevel                                  ...      1
Contraction scheme used                     ... SEGMENTED contraction
Prescreening option                         ... SCHWARTZ
   Thresh                                   ... 1.000e-10
   Tcut                                     ... 1.000e-11
   Tpresel                                  ... 1.000e-11 
Coulomb Range Separation                    ... NOT USED
Exchange Range Separation                   ... NOT USED
Multipole approximations                    ... NOT USED
Finite Nucleus Model                        ... NOT USED
CABS basis                                  ... NOT available
Auxiliary Coulomb fitting basis             ... AVAILABLE
   # of basis functions in Aux-J            ...   1146
   # of shells in Aux-J                     ...    386
   Maximum angular momentum in Aux-J        ...      4
Auxiliary J/K fitting basis                 ... NOT available
Auxiliary Correlation fitting basis         ... NOT available
Auxiliary 'external' fitting basis          ... NOT available

Checking pre-screening integrals            ... done (  0.0 sec) Dimension = 240
Check shell pair data                       ... done (  0.0 sec)
Shell pair information
Shell pair cut-off parameter TPreSel        ...   1.0e-11
Total number of shell pairs                 ...     28920
Shell pairs after pre-screening             ...     19346
Total number of primitive shell pairs       ...    108409
Primitive shell pairs kept                  ...     44600
          la=0 lb=0:   5547 shell pairs
          la=1 lb=0:   7027 shell pairs
          la=1 lb=1:   2254 shell pairs
          la=2 lb=0:   2578 shell pairs
          la=2 lb=1:   1621 shell pairs
          la=2 lb=2:    319 shell pairs

Calculating one electron integrals          ... done (  0.1 sec)
Calculating RI/J V-Matrix + Cholesky decomp.... done (  0.1 sec)
Calculating Nuclear repulsion               ... done (  0.0 sec) ENN=   2126.403285332316 Eh

Diagonalization of the overlap matrix:
Smallest eigenvalue                        ... 6.272e-05
Time for diagonalization                   ...    0.031 sec
Threshold for overlap eigenvalues          ... 1.000e-07
Number of eigenvalues below threshold      ... 0
Time for construction of square roots      ...    0.018 sec
Total time needed                          ...    0.051 sec

-------------------
DFT GRID GENERATION
-------------------

General Integration Accuracy     IntAcc      ... 4.388
Radial Grid Type                 RadialGrid  ... OptM3 with GC (2021)
Angular Grid (max. ang.)         AngularGrid ... 4 (Lebedev-302)
Angular grid pruning method      GridPruning ... 4 (adaptive)
Weight generation scheme         WeightScheme... mBecke (2022)
Basis function cutoff            BFCut       ... 1.0000e-10
Integration weight cutoff        WCut        ... 1.0000e-14
Partially contracted basis set               ... off
Rotationally invariant grid construction     ... off
Angular grids for H and He will be reduced by one unit
Diffuse basis detected: some atoms will have their outermost
                        angular grid increased by 1.

Total number of grid points                  ...   180294
Total number of batches                      ...     2839
Average number of points per batch           ...       63
Average number of grid points per atom       ...     4745
Initializing property integral containers    ... done (  0.0 sec)

SHARK setup successfully completed in   2.5 seconds

Maximum memory used throughout the entire STARTUP-calculation: 96.7 MB
-------------------------------------------------------------------------------
                                 ORCA GUESS
                   Start orbitals & Density for SCF / CASSCF
-------------------------------------------------------------------------------

------------
SCF SETTINGS
------------
Hamiltonian:
 Density Functional     Method          .... DFT(GTOs)
  Functional kind                       .... Exchange
  Functional name                       .... Re-regularized SCAN exchange by Furness et al
  Functional family                     .... MGGA
  Functional refs                              
    [ 0] J. W. Furness, A. D. Kaplan, J. Ning, J. P. Perdew, and J. Sun.,  J. Phys. Chem. Lett. 11, 8208-8215 (2020), doi: 10.1021/acs.jpclett.0c02405
    [ 1] J. W. Furness, A. D. Kaplan, J. Ning, J. P. Perdew, and J. Sun.,  J. Phys. Chem. Lett. 11, 9248-9248 (2020), doi: 10.1021/acs.jpclett.0c03077
  Functional external parameters        .... 6
    Parameter  0 _c1        =  6.670000e-01 : c1 parameter        
    Parameter  1 _c2        =  8.000000e-01 : c2 parameter        
    Parameter  2 _d         =  1.240000e+00 : d parameter         
    Parameter  3 _k1        =  6.500000e-02 : k1 parameter        
    Parameter  4 _eta       =  1.000000e-03 : eta parameter       
    Parameter  5 _dp2       =  3.610000e-01 : dp2 parameter       
  Functional kind                       .... Correlation
  Functional name                       .... Re-regularized SCAN correlation by Furness et al
  Functional family                     .... MGGA
  Functional refs                              
    [ 0] J. W. Furness, A. D. Kaplan, J. Ning, J. P. Perdew, and J. Sun.,  J. Phys. Chem. Lett. 11, 8208-8215 (2020), doi: 10.1021/acs.jpclett.0c02405
    [ 1] J. W. Furness, A. D. Kaplan, J. Ning, J. P. Perdew, and J. Sun.,  J. Phys. Chem. Lett. 11, 9248-9248 (2020), doi: 10.1021/acs.jpclett.0c03077
  Functional external parameters        .... 1
    Parameter  0 _eta       =  1.000000e-03 : Regularization parameter
 Gradients option       PostSCFGGA      .... off
 RI-approximation to the Coulomb term is turned on
   Number of AuxJ basis functions       .... 1146


General Settings:
 Integral files         IntName         .... sp_solv
 Hartree-Fock type      HFTyp           .... RHF
 Total Charge           Charge          ....    0
 Multiplicity           Mult            ....    1
 Number of Electrons    NEL             ....  174
 Basis Dimension        Dim             ....  510
 Nuclear Repulsion      ENuc            ....   2126.4032853323 Eh

Convergence Acceleration:
 AO-DIIS                CNVDIIS         .... on
   Start iteration      DIISMaxIt       ....    12
   Startup error        DIISStart       ....  0.200000
   # of expansion vecs  DIISMaxEq       ....     5
   Bias factor          DIISBfac        ....   1.050
   Max. coefficient     DIISMaxC        ....  10.000
 MO-DIIS                CNVKDIIS        .... off
 Trust-Rad. Augm. Hess. CNVTRAH         .... auto
   Auto Start mean grad. ratio tolernc. ....  1.125000
   Auto Start start iteration           ....     1
   Auto Start num. interpolation iter.  ....    10
   Max. Number of Micro iterations      ....    24
   Max. Number of Macro iterations      .... Maxiter - #DIIS iter
   Number of Davidson start vectors     ....     2
   Converg. threshold    (grad. norm)   ....   3.330e-04
   Grad. Scal. Fac. for Micro threshold ....   0.100
   Minimum threshold for Micro iter.    ....   1.000e-02
   NR start threshold (gradient norm)   ....   1.000e-04
   Initial trust radius                 ....   0.400
   Minimum AH scaling param. (alpha)    ....   1.000
   Maximum AH scaling param. (alpha)    .... 1000.000
   Quad. conv. algorithm                .... NR
   White noise on init. David. guess    .... on
   Maximum white noise                  ....   0.010
   Pseudo random numbers                .... off
   Inactive MOs                         .... canonical
   Orbital update algorithm             .... Taylor
   Preconditioner                       .... Diag
   Full preconditioner red. dimension   ....   250
   COSX micro iterations for RIJONX calc.... off
 SOSCF                  CNVSOSCF        .... on
   Start iteration      SOSCFMaxIt      ....   150
   Startup grad/error   SOSCFStart      ....  0.003300
   Hessian update       SOSCFHessUp     .... L-BFGS
 Level Shifting         CNVShift        .... on
   Level shift para.    LevelShift      ....    0.2500
   Turn off err/grad.   ShiftErr        ....    0.0010
 Zerner damping         CNVZerner       .... off
 Static damping         CNVDamp         .... on
   Fraction old density DampFac         ....    0.7000
   Max. Damping (<1)    DampMax         ....    0.9800
   Min. Damping (>=0)   DampMin         ....    0.0000
   Turn off err/grad.   DampErr         ....    0.1000

SCF Procedure:
 Maximum # iterations   MaxIter         ....   125
 SCF integral mode      SCFMode         .... Direct
   Integral package                     .... SHARK and LIBINT hybrid scheme
 Reset frequency        DirectResetFreq ....    20
 Integral Threshold     Thresh          ....  1.000e-10 Eh
 Primitive CutOff       TCut            ....  1.000e-11 Eh

Convergence Tolerance:
 Convergence Check Mode ConvCheckMode   .... Total+1el-Energy
 Convergence forced     ConvForced      .... 0
 Energy Change          TolE            ....  1.000e-06 Eh
 1-El. energy change                    ....  1.000e-03 Eh
 Orbital Gradient       TolG            ....  3.330e-04
 Orbital Rotation angle TolX            ....  3.330e-04
 DIIS Error             TolErr          ....  1.000e-06

---------------------
INITIAL GUESS: MOREAD
---------------------
Guess MOs are being read from file: sp_solv.ges
Input Geometry matches current geometry (good)
Atom 0: N(Shells)= 9 and 6 - projection required
Input basis set needs projection
NBasis(read)= 316
NBasis(calc)= 510
Basis set overlap was calculated
Using GuessMode=FMatrix for the initial guess
C*T matrix was formed
Effective Fockian was calculated
Effective Fockian was diagonalized
Initial density was built
                      ------------------
                      INITIAL GUESS DONE (   0.1 sec)
                      ------------------
             **** ENERGY FILE WAS UPDATED (sp_solv.en.tmp) ****
Finished Guess after   0.2 sec
Maximum memory used throughout the entire GUESS-calculation: 56.0 MB

-------------------------------------------------------------------------------------------
                                      ORCA LEAN-SCF
                              memory conserving SCF solver
-------------------------------------------------------------------------------------------

--------------------
CPCM SOLVATION MODEL
--------------------
CPCM parameters:
  Epsilon                                         ...      78.3550
  Refrac                                          ...       1.3328
  Rsolv                                           ...       1.3000
  Surface type                                    ... GAUSSIAN VDW
  Discretization scheme                           ... Constant charge density
    Threshold for H atoms                         ...       5.0000 (charges/Ang^2)
    Threshold for non-H atoms                     ...       5.0000 (charges/Ang^2)
  Epsilon function type                           ...         CPCM
Solvent:                                          ... WATER
SMD-CDS solvent descriptors:
  Soln                                            ...       1.3328
  Soln25                                          ...       1.3323
  Sola                                            ...       0.0000
  Solb                                            ...       0.0000
  Solg                                            ...       0.0000
  Solc                                            ...       0.0000
  Solh                                            ...       0.0000
Radii:
  Scheme                                          ... Element-dependent radii
  Radius for C  used is    3.4960 Bohr (=   1.8500 Ang.)
  Radius for O  used is    2.8724 Bohr (=   1.5200 Ang.)
  Radius for H  used is    2.2677 Bohr (=   1.2000 Ang.)
  Radius for S  used is    4.7054 Bohr (=   2.4900 Ang.)
  Radius for P  used is    4.0062 Bohr (=   2.1200 Ang.)
Calculating surface                               ...        done! (  0.0s)
Cavity surface points                             ...         3003
Cavity Volume                                     ...    2241.8761
Cavity Surface-area                               ...    1244.3461
Calculating surface distance matrix               ...        done! (  0.0s)
Performing Cholesky decomposition & store         ...        done! (  0.3s)
Overall time for CPCM initialization              ...                 0.4s

----------------------------------------D-I-I-S--------------------------------------------
Iteration    Energy (Eh)           Delta-E    RMSDP     MaxDP     DIISErr   Damp  Time(sec)
-------------------------------------------------------------------------------------------
               ***  Starting incremental Fock matrix formation  ***
    1    -1980.9980469613451532     0.00e+00  3.46e-03  3.63e-01  6.33e-01  0.700  11.1
    2    -1981.1473546711690688    -1.49e-01  2.65e-03  2.18e-01  4.45e-01  0.700   9.7
    3    -1981.2528631438885895    -1.06e-01  1.91e-03  1.40e-01  3.12e-01  0.700   9.5
    4    -1981.3269555997335374    -7.41e-02  1.36e-03  9.37e-02  2.19e-01  0.700   9.4
                               ***Turning on AO-DIIS***
    5    -1981.3789474627842537    -5.20e-02  9.73e-04  6.22e-02  1.53e-01  0.700   9.2
    6    -1981.4153830768923399    -3.64e-02  6.88e-04  4.34e-02  1.07e-01  0.700   9.0
    7    -1981.4409490788334551    -2.56e-02  4.84e-04  3.01e-02  7.49e-02  0.700   8.9
    8    -1981.4588637127212678    -1.79e-02  1.13e-03  6.85e-02  5.25e-02  0.000   8.7
                              *** Initializing SOSCF ***
---------------------------------------S-O-S-C-F--------------------------------------
Iteration    Energy (Eh)           Delta-E    RMSDP     MaxDP     MaxGrad    Time(sec)
--------------------------------------------------------------------------------------
    9    -1981.5007308027347790    -4.19e-02  1.07e-05  6.94e-04  2.66e-04     9.2
               *** Restarting incremental Fock matrix formation ***
   10    -1981.5007313631435863    -5.60e-07  9.19e-06  6.75e-04  5.46e-05    11.0
                  *** Gradient check signals convergence ***

               *****************************************************
               *                     SUCCESS                       *
               *           SCF CONVERGED AFTER  10 CYCLES          *
               *****************************************************


SMD CDS free energy correction energy :                 9.92036     Kcal/mol
Total Energy after SMD CDS correction =             -1981.484922257 Eh
             **** ENERGY FILE WAS UPDATED (sp_solv.en.tmp) ****

----------------
TOTAL SCF ENERGY
----------------

Total Energy       :      -1981.48492225726454 Eh          -53918.94592 eV

Components:
Nuclear Repulsion  :       2126.40328533231650 Eh           57862.37506 eV
Electronic Energy  :      -4107.86366740750418 Eh         -111780.65321 eV
One Electron Energy:      -6960.03393724345551 Eh         -189392.15194 eV
Two Electron Energy:       2852.17026983595088 Eh           77611.49873 eV
CPCM Dielectric    :         -0.04034928795626 Eh              -1.09796 eV
SMD CDS (Gcds)     :          0.01580910587910 Eh               0.43019 eV

Virial components:
Potential Energy   :      -3956.63586215046871 Eh         -107665.53542 eV
Kinetic Energy     :       1975.15093989320440 Eh           53746.58950 eV
Virial Ratio       :          2.00320683459483

DFT components:
N(Alpha)           :       87.000002596882 electrons
N(Beta)            :       87.000002596882 electrons
N(Total)           :      174.000005193765 electrons
E(X)               :     -181.426605713236 Eh       
E(C)               :       -5.970994403563 Eh       
E(XC)              :     -187.397600116798 Eh       

CPCM Solvation Model Properties:
Surface-charge          :         -0.04965826918454
Corrected charge        :          0.00000000000000
Outlying charge corr.   :          0.00013201523301 Eh               0.00359 eV
Free-energy (cav+disp)  :          0.01580910587910 Eh               0.43019 eV

---------------
SCF CONVERGENCE
---------------

  Last Energy change         ...    5.6041e-07  Tolerance :   1.0000e-06
  Last MAX-Density change    ...    6.7462e-04  Tolerance :   1.0000e-05
  Last RMS-Density change    ...    9.1869e-06  Tolerance :   1.0000e-06
  Last DIIS Error            ...    2.6601e-04  Tolerance :   1.0000e-06
  Last Orbital Gradient      ...    5.4626e-05  Tolerance :   3.3300e-04
  Last Orbital Rotation      ...    2.3506e-04  Tolerance :   3.3300e-04


----------------
ORBITAL ENERGIES
----------------

  NO   OCC          E(Eh)            E(eV) 
   0   2.0000     -88.579714     -2410.3766 
   1   2.0000     -88.524677     -2408.8789 
   2   2.0000     -76.919868     -2093.0960 
   3   2.0000     -19.017854      -517.5021 
   4   2.0000     -19.009131      -517.2648 
   5   2.0000     -18.994973      -516.8795 
   6   2.0000     -18.988604      -516.7062 
   7   2.0000     -18.953074      -515.7394 
   8   2.0000     -18.948306      -515.6096 
   9   2.0000     -10.176277      -276.9106 
  10   2.0000     -10.172519      -276.8083 
  11   2.0000     -10.098650      -274.7982 
  12   2.0000     -10.090126      -274.5663 
  13   2.0000     -10.086936      -274.4795 
  14   2.0000     -10.084639      -274.4170 
  15   2.0000     -10.078639      -274.2537 
  16   2.0000     -10.059956      -273.7453 
  17   2.0000     -10.020942      -272.6837 
  18   2.0000     -10.019935      -272.6563 
  19   2.0000      -7.873889      -214.2594 
  20   2.0000      -7.819887      -212.7899 
  21   2.0000      -6.597669      -179.5317 
  22   2.0000      -5.820736      -158.3903 
  23   2.0000      -5.817862      -158.3121 
  24   2.0000      -5.810947      -158.1239 
  25   2.0000      -5.767717      -156.9476 
  26   2.0000      -5.760347      -156.7470 
  27   2.0000      -5.759440      -156.7223 
  28   2.0000      -4.743416      -129.0749 
  29   2.0000      -4.742763      -129.0571 
  30   2.0000      -4.741201      -129.0146 
  31   2.0000      -1.097357       -29.8606 
  32   2.0000      -1.087100       -29.5815 
  33   2.0000      -1.051278       -28.6067 
  34   2.0000      -1.007332       -27.4109 
  35   2.0000      -1.002874       -27.2896 
  36   2.0000      -0.995912       -27.1001 
  37   2.0000      -0.814313       -22.1586 
  38   2.0000      -0.752889       -20.4871 
  39   2.0000      -0.746074       -20.3017 
  40   2.0000      -0.729334       -19.8462 
  41   2.0000      -0.697854       -18.9896 
  42   2.0000      -0.667255       -18.1569 
  43   2.0000      -0.659225       -17.9384 
  44   2.0000      -0.654483       -17.8094 
  45   2.0000      -0.619961       -16.8700 
  46   2.0000      -0.593599       -16.1527 
  47   2.0000      -0.541620       -14.7382 
  48   2.0000      -0.536604       -14.6017 
  49   2.0000      -0.527657       -14.3583 
  50   2.0000      -0.498002       -13.5513 
  51   2.0000      -0.494559       -13.4576 
  52   2.0000      -0.488786       -13.3005 
  53   2.0000      -0.476301       -12.9608 
  54   2.0000      -0.462379       -12.5820 
  55   2.0000      -0.460639       -12.5346 
  56   2.0000      -0.447079       -12.1656 
  57   2.0000      -0.446061       -12.1379 
  58   2.0000      -0.437555       -11.9065 
  59   2.0000      -0.427392       -11.6299 
  60   2.0000      -0.424913       -11.5625 
  61   2.0000      -0.415144       -11.2966 
  62   2.0000      -0.408426       -11.1138 
  63   2.0000      -0.405036       -11.0216 
  64   2.0000      -0.386325       -10.5124 
  65   2.0000      -0.379783       -10.3344 
  66   2.0000      -0.370473       -10.0811 
  67   2.0000      -0.363666        -9.8958 
  68   2.0000      -0.362932        -9.8759 
  69   2.0000      -0.352965        -9.6047 
  70   2.0000      -0.351746        -9.5715 
  71   2.0000      -0.344803        -9.3826 
  72   2.0000      -0.333876        -9.0852 
  73   2.0000      -0.328303        -8.9336 
  74   2.0000      -0.320162        -8.7120 
  75   2.0000      -0.319041        -8.6815 
  76   2.0000      -0.312870        -8.5136 
  77   2.0000      -0.309540        -8.4230 
  78   2.0000      -0.291896        -7.9429 
  79   2.0000      -0.287850        -7.8328 
  80   2.0000      -0.281517        -7.6605 
  81   2.0000      -0.276600        -7.5267 
  82   2.0000      -0.263730        -7.1765 
  83   2.0000      -0.258012        -7.0209 
  84   2.0000      -0.242716        -6.6046 
  85   2.0000      -0.227074        -6.1790 
  86   2.0000      -0.218951        -5.9579 
  87   0.0000      -0.052081        -1.4172 
  88   0.0000      -0.038343        -1.0434 
  89   0.0000      -0.022783        -0.6199 
  90   0.0000       0.003312         0.0901 
  91   0.0000       0.017153         0.4668 
  92   0.0000       0.034579         0.9409 
  93   0.0000       0.052212         1.4208 
  94   0.0000       0.070997         1.9319 
  95   0.0000       0.081483         2.2173 
  96   0.0000       0.092924         2.5286 
  97   0.0000       0.098129         2.6702 
*Only the first 10 virtual orbitals were printed.

                    ********************************
                    * MULLIKEN POPULATION ANALYSIS *
                    ********************************

-----------------------
MULLIKEN ATOMIC CHARGES
-----------------------
   0 C :   -0.491290
   1 C :   -0.152614
   2 O :   -0.155697
   3 C :    0.325303
   4 O :   -0.471933
   5 C :   -0.385085
   6 C :   -0.024287
   7 H :    0.275275
   8 C :    0.300007
   9 O :   -0.454304
  10 O :   -0.108320
  11 C :   -0.143255
  12 C :   -0.497263
  13 S :   -0.204994
  14 P :    0.816306
  15 S :   -0.519337
  16 O :   -0.393340
  17 C :   -0.309056
  18 O :   -0.351663
  19 C :   -0.296106
  20 H :    0.170763
  21 H :    0.166108
  22 H :    0.166692
  23 H :    0.175222
  24 H :    0.175704
  25 H :    0.219337
  26 H :    0.221283
  27 H :    0.178923
  28 H :    0.181879
  29 H :    0.170825
  30 H :    0.170042
  31 H :    0.175458
  32 H :    0.175442
  33 H :    0.177261
  34 H :    0.172913
  35 H :    0.182009
  36 H :    0.177862
  37 H :    0.183932
Sum of atomic charges:    0.0000000

--------------------------------
MULLIKEN REDUCED ORBITAL CHARGES
--------------------------------
  0 C s       :     3.341596  s :     3.341596
      pz      :     1.081933  p :     3.124092
      px      :     1.017771
      py      :     1.024389
      dz2     :     0.007352  d :     0.025601
      dxz     :     0.002636
      dyz     :     0.004346
      dx2y2   :     0.005217
      dxy     :     0.006049

  1 C s       :     3.293706  s :     3.293706
      pz      :     1.084212  p :     2.805963
      px      :     0.712783
      py      :     1.008968
      dz2     :     0.011609  d :     0.052946
      dxz     :     0.008743
      dyz     :     0.005988
      dx2y2   :     0.014039
      dxy     :     0.012566

  2 O s       :     3.701460  s :     3.701460
      pz      :     1.693754  p :     4.413394
      px      :     1.069967
      py      :     1.649672
      dz2     :     0.005240  d :     0.040844
      dxz     :     0.007988
      dyz     :     0.007774
      dx2y2   :     0.001484
      dxy     :     0.018358

  3 C s       :     3.180519  s :     3.180519
      pz      :     0.773772  p :     2.366983
      px      :     0.851732
      py      :     0.741479
      dz2     :     0.019322  d :     0.127195
      dxz     :     0.024024
      dyz     :     0.017229
      dx2y2   :     0.025612
      dxy     :     0.041008

  4 O s       :     3.834276  s :     3.834276
      pz      :     1.431494  p :     4.614948
      px      :     1.817189
      py      :     1.366265
      dz2     :     0.004455  d :     0.022710
      dxz     :     0.002610
      dyz     :     0.008969
      dx2y2   :     0.005405
      dxy     :     0.001272

  5 C s       :     3.293091  s :     3.293091
      pz      :     1.133291  p :     3.058115
      px      :     0.978210
      py      :     0.946614
      dz2     :     0.004941  d :     0.033879
      dxz     :     0.005568
      dyz     :     0.008357
      dx2y2   :     0.005316
      dxy     :     0.009697

  6 C s       :     3.007963  s :     3.007963
      pz      :     1.037167  p :     2.972091
      px      :     0.864790
      py      :     1.070135
      dz2     :     0.007805  d :     0.044232
      dxz     :     0.007534
      dyz     :     0.011970
      dx2y2   :     0.008241
      dxy     :     0.008681

  7 H s       :     0.706170  s :     0.706170
      pz      :     0.007227  p :     0.018554
      px      :     0.003209
      py      :     0.008118

  8 C s       :     3.162552  s :     3.162552
      pz      :     0.863926  p :     2.410627
      px      :     0.771076
      py      :     0.775625
      dz2     :     0.029526  d :     0.126814
      dxz     :     0.029875
      dyz     :     0.014231
      dx2y2   :     0.027271
      dxy     :     0.025910

  9 O s       :     3.837432  s :     3.837432
      pz      :     1.532372  p :     4.585701
      px      :     1.529793
      py      :     1.523536
      dz2     :     0.004047  d :     0.031171
      dxz     :     0.009112
      dyz     :     0.006545
      dx2y2   :     0.003896
      dxy     :     0.007571

 10 O s       :     3.693867  s :     3.693867
      pz      :     1.497987  p :     4.379955
      px      :     1.261943
      py      :     1.620025
      dz2     :     0.005755  d :     0.034498
      dxz     :     0.005184
      dyz     :     0.006366
      dx2y2   :     0.011079
      dxy     :     0.006114

 11 C s       :     3.270468  s :     3.270468
      pz      :     0.837476  p :     2.820745
      px      :     1.083930
      py      :     0.899339
      dz2     :     0.011160  d :     0.052043
      dxz     :     0.009285
      dyz     :     0.012992
      dx2y2   :     0.010340
      dxy     :     0.008265

 12 C s       :     3.345465  s :     3.345465
      pz      :     1.108908  p :     3.126331
      px      :     1.101616
      py      :     0.915806
      dz2     :     0.004771  d :     0.025467
      dxz     :     0.004512
      dyz     :     0.004542
      dx2y2   :     0.007102
      dxy     :     0.004540

 13 S s       :     5.933160  s :     5.933160
      pz      :     3.795968  p :    10.172953
      px      :     3.034815
      py      :     3.342169
      dz2     :     0.015306  d :     0.098881
      dxz     :     0.013415
      dyz     :     0.013260
      dx2y2   :     0.025776
      dxy     :     0.031124

 14 P s       :     5.090212  s :     5.090212
      pz      :     2.759516  p :     8.383518
      px      :     2.801115
      py      :     2.822887
      dz2     :     0.141192  d :     0.709964
      dxz     :     0.125519
      dyz     :     0.143166
      dx2y2   :     0.160490
      dxy     :     0.139598

 15 S s       :     5.894460  s :     5.894460
      pz      :     3.650119  p :    10.561536
      px      :     3.668832
      py      :     3.242584
      dz2     :     0.007286  d :     0.063342
      dxz     :     0.005727
      dyz     :     0.015612
      dx2y2   :     0.019280
      dxy     :     0.015438

 16 O s       :     3.766436  s :     3.766436
      pz      :     1.279228  p :     4.592238
      px      :     1.504141
      py      :     1.808869
      dz2     :     0.016276  d :     0.034666
      dxz     :     0.002414
      dyz     :     0.001478
      dx2y2   :     0.011795
      dxy     :     0.002703

 17 C s       :     3.344605  s :     3.344605
      pz      :     0.676439  p :     2.920384
      px      :     1.127935
      py      :     1.116010
      dz2     :     0.015220  d :     0.044067
      dxz     :     0.007695
      dyz     :     0.012315
      dx2y2   :     0.005604
      dxy     :     0.003232

 18 O s       :     3.741231  s :     3.741231
      pz      :     1.354825  p :     4.583560
      px      :     1.687213
      py      :     1.541522
      dz2     :     0.011069  d :     0.026872
      dxz     :     0.005396
      dyz     :    -0.002585
      dx2y2   :     0.008440
      dxy     :     0.004552

 19 C s       :     3.342722  s :     3.342722
      pz      :     1.043640  p :     2.910649
      px      :     1.024645
      py      :     0.842364
      dz2     :     0.009876  d :     0.042734
      dxz     :     0.004626
      dyz     :     0.006975
      dx2y2   :     0.010238
      dxy     :     0.011019

 20 H s       :     0.810746  s :     0.810746
      pz      :     0.003965  p :     0.018491
      px      :     0.010052
      py      :     0.004475

 21 H s       :     0.815573  s :     0.815573
      pz      :     0.011067  p :     0.018319
      px      :     0.003550
      py      :     0.003702

 22 H s       :     0.814997  s :     0.814997
      pz      :     0.005045  p :     0.018311
      px      :     0.003567
      py      :     0.009699

 23 H s       :     0.807154  s :     0.807154
      pz      :     0.011859  p :     0.017623
      px      :     0.002365
      py      :     0.003399

 24 H s       :     0.806743  s :     0.806743
      pz      :     0.004805  p :     0.017553
      px      :     0.002376
      py      :     0.010373

 25 H s       :     0.762735  s :     0.762735
      pz      :     0.007513  p :     0.017928
      px      :     0.003322
      py      :     0.007093

 26 H s       :     0.760437  s :     0.760437
      pz      :     0.008531  p :     0.018280
      px      :     0.004401
      py      :     0.005348

 27 H s       :     0.803210  s :     0.803210
      pz      :     0.008392  p :     0.017867
      px      :     0.006153
      py      :     0.003322

 28 H s       :     0.800553  s :     0.800553
      pz      :     0.002799  p :     0.017568
      px      :     0.010846
      py      :     0.003923

 29 H s       :     0.810919  s :     0.810919
      pz      :     0.008809  p :     0.018256
      px      :     0.005692
      py      :     0.003755

 30 H s       :     0.811679  s :     0.811679
      pz      :     0.003747  p :     0.018278
      px      :     0.010290
      py      :     0.004241

 31 H s       :     0.806020  s :     0.806020
      pz      :     0.008132  p :     0.018522
      px      :     0.004857
      py      :     0.005533

 32 H s       :     0.806326  s :     0.806326
      pz      :     0.003861  p :     0.018232
      px      :     0.005026
      py      :     0.009345

 33 H s       :     0.804859  s :     0.804859
      pz      :     0.002375  p :     0.017879
      px      :     0.011819
      py      :     0.003685

 34 H s       :     0.809102  s :     0.809102
      pz      :     0.003697  p :     0.017985
      px      :     0.005102
      py      :     0.009186

 35 H s       :     0.800127  s :     0.800127
      pz      :     0.011700  p :     0.017864
      px      :     0.003301
      py      :     0.002862

 36 H s       :     0.803978  s :     0.803978
      pz      :     0.003522  p :     0.018160
      px      :     0.005462
      py      :     0.009176

 37 H s       :     0.798211  s :     0.798211
      pz      :     0.004396  p :     0.017857
      px      :     0.010680
      py      :     0.002781


------------------------
MULLIKEN OVERLAP CHARGES
------------------------
B(  0-C ,  1-C ) :   0.4490 B(  0-C ,  2-O ) :  -0.0947 B(  0-C , 20-H ) :   0.8114 
B(  0-C , 21-H ) :   0.8266 B(  0-C , 22-H ) :   0.8385 B(  1-C ,  2-O ) :   0.2712 
B(  1-C ,  3-C ) :  -0.2233 B(  1-C , 20-H ) :  -0.0663 B(  1-C , 21-H ) :  -0.0616 
B(  1-C , 22-H ) :  -0.0739 B(  1-C , 23-H ) :   0.8150 B(  1-C , 24-H ) :   0.7949 
B(  2-O ,  3-C ) :   0.4581 B(  2-O ,  4-O ) :  -0.2094 B(  2-O , 23-H ) :  -0.0647 
B(  2-O , 24-H ) :  -0.0685 B(  3-C ,  4-O ) :   0.9283 B(  3-C ,  5-C ) :  -0.2040 
B(  3-C ,  6-C ) :   0.1111 B(  3-C , 10-O ) :   0.1298 B(  3-C , 25-H ) :  -0.1073 
B(  4-O ,  5-C ) :  -0.1606 B(  4-O ,  6-C ) :   0.1094 B(  5-C ,  6-C ) :  -0.2517 
B(  5-C ,  8-C ) :   0.1121 B(  5-C , 13-S ) :  -0.1309 B(  5-C , 25-H ) :   0.8735 
B(  5-C , 26-H ) :   0.7920 B(  6-C ,  7-H ) :   0.8062 B(  6-C ,  8-C ) :   0.0817 
B(  6-C ,  9-O ) :  -0.2457 B(  6-C , 10-O ) :  -0.2377 B(  6-C , 13-S ) :   0.4242 
B(  6-C , 14-P ) :  -0.0566 B(  6-C , 15-S ) :   0.0672 B(  6-C , 26-H ) :  -0.1134 
B(  7-H , 13-S ) :  -0.0673 B(  8-C ,  9-O ) :   0.9371 B(  8-C , 10-O ) :   0.5241 
B(  8-C , 11-C ) :  -0.1506 B(  8-C , 13-S ) :  -0.0962 B(  8-C , 14-P ) :  -0.0614 
B(  9-O , 10-O ) :  -0.1830 B(  9-O , 14-P ) :   0.1006 B(  9-O , 15-S ) :  -0.0645 
B( 10-O , 11-C ) :   0.2176 B( 10-O , 12-C ) :  -0.0944 B( 10-O , 28-H ) :  -0.0879 
B( 11-C , 12-C ) :   0.4824 B( 11-C , 27-H ) :   0.8237 B( 11-C , 28-H ) :   0.8072 
B( 11-C , 29-H ) :  -0.0723 B( 11-C , 30-H ) :  -0.0804 B( 11-C , 31-H ) :  -0.0700 
B( 12-C , 27-H ) :  -0.0612 B( 12-C , 29-H ) :   0.8377 B( 12-C , 30-H ) :   0.8351 
B( 12-C , 31-H ) :   0.8055 B( 13-S , 14-P ) :   0.6232 B( 13-S , 15-S ) :  -0.1130 
B( 13-S , 16-O ) :  -0.1026 B( 13-S , 18-O ) :  -0.0729 B( 14-P , 15-S ) :   1.2770 
B( 14-P , 16-O ) :   0.4136 B( 14-P , 17-C ) :  -0.1665 B( 14-P , 18-O ) :   0.7377 
B( 14-P , 19-C ) :  -0.1912 B( 15-S , 16-O ) :  -0.0959 B( 15-S , 18-O ) :  -0.0915 
B( 16-O , 17-C ) :   0.3557 B( 16-O , 18-O ) :  -0.2468 B( 16-O , 32-H ) :  -0.0814 
B( 16-O , 33-H ) :  -0.0875 B( 16-O , 34-H ) :  -0.0740 B( 17-C , 32-H ) :   0.8284 
B( 17-C , 33-H ) :   0.8016 B( 17-C , 34-H ) :   0.8009 B( 18-O , 19-C ) :   0.3203 
B( 18-O , 35-H ) :  -0.0747 B( 18-O , 36-H ) :  -0.0788 B( 18-O , 37-H ) :  -0.0738 
B( 19-C , 35-H ) :   0.7868 B( 19-C , 36-H ) :   0.8084 B( 19-C , 37-H ) :   0.8152 
B( 21-H , 22-H ) :  -0.0502 B( 23-H , 24-H ) :  -0.0649 B( 29-H , 30-H ) :  -0.0502 
B( 32-H , 34-H ) :  -0.0603 B( 36-H , 37-H ) :  -0.0580 


                     *******************************
                     * LOEWDIN POPULATION ANALYSIS *
                     *******************************

----------------------
LOEWDIN ATOMIC CHARGES
----------------------
   0 C :   -0.387941
   1 C :    0.040184
   2 O :   -0.581829
   3 C :    0.361887
   4 O :   -0.476419
   5 C :   -0.194474
   6 C :   -0.200231
   7 H :    0.223206
   8 C :    0.366670
   9 O :   -0.490949
  10 O :   -0.567238
  11 C :    0.046526
  12 C :   -0.389017
  13 S :    0.205615
  14 P :    0.406556
  15 S :   -0.133663
  16 O :   -0.707399
  17 C :   -0.060554
  18 O :   -0.669985
  19 C :   -0.041679
  20 H :    0.169183
  21 H :    0.163343
  22 H :    0.163211
  23 H :    0.187004
  24 H :    0.186233
  25 H :    0.202743
  26 H :    0.204935
  27 H :    0.194020
  28 H :    0.192818
  29 H :    0.163808
  30 H :    0.163868
  31 H :    0.170046
  32 H :    0.176445
  33 H :    0.187269
  34 H :    0.174734
  35 H :    0.191177
  36 H :    0.178832
  37 H :    0.181066

-------------------------------
LOEWDIN REDUCED ORBITAL CHARGES
-------------------------------
  0 C s       :     2.970714  s :     2.970714
      pz      :     1.149093  p :     3.357290
      px      :     1.090428
      py      :     1.117769
      dz2     :     0.017921  d :     0.059937
      dxz     :     0.005383
      dyz     :     0.010310
      dx2y2   :     0.012494
      dxy     :     0.013828

  1 C s       :     2.869325  s :     2.869325
      pz      :     1.089132  p :     2.972196
      px      :     0.838157
      py      :     1.044907
      dz2     :     0.027414  d :     0.118295
      dxz     :     0.018242
      dyz     :     0.012835
      dx2y2   :     0.030379
      dxy     :     0.029426

  2 O s       :     3.456508  s :     3.456508
      pz      :     1.676063  p :     4.644567
      px      :     1.318758
      py      :     1.649746
      dz2     :     0.070501  d :     0.480754
      dxz     :     0.102013
      dyz     :     0.044413
      dx2y2   :     0.139215
      dxy     :     0.124612

  3 C s       :     2.734200  s :     2.734200
      pz      :     0.788439  p :     2.627345
      px      :     0.932252
      py      :     0.906654
      dz2     :     0.036940  d :     0.276568
      dxz     :     0.050188
      dyz     :     0.042879
      dx2y2   :     0.055673
      dxy     :     0.090888

  4 O s       :     3.539126  s :     3.539126
      pz      :     1.473992  p :     4.713113
      px      :     1.754564
      py      :     1.484557
      dz2     :     0.032722  d :     0.224180
      dxz     :     0.028961
      dyz     :     0.060296
      dx2y2   :     0.048167
      dxy     :     0.054034

  5 C s       :     2.916763  s :     2.916763
      pz      :     1.123658  p :     3.205263
      px      :     1.011593
      py      :     1.070011
      dz2     :     0.009823  d :     0.072448
      dxz     :     0.011594
      dyz     :     0.019675
      dx2y2   :     0.010155
      dxy     :     0.021201

  6 C s       :     2.913769  s :     2.913769
      pz      :     1.068678  p :     3.195358
      px      :     1.031387
      py      :     1.095293
      dz2     :     0.015331  d :     0.091103
      dxz     :     0.013907
      dyz     :     0.025060
      dx2y2   :     0.016625
      dxy     :     0.020180

  7 H s       :     0.728172  s :     0.728172
      pz      :     0.019521  p :     0.048622
      px      :     0.007372
      py      :     0.021729

  8 C s       :     2.726597  s :     2.726597
      pz      :     0.937364  p :     2.628563
      px      :     0.925976
      py      :     0.765223
      dz2     :     0.062612  d :     0.278170
      dxz     :     0.068740
      dyz     :     0.028811
      dx2y2   :     0.066499
      dxy     :     0.051508

  9 O s       :     3.534124  s :     3.534124
      pz      :     1.578179  p :     4.658082
      px      :     1.565560
      py      :     1.514343
      dz2     :     0.056181  d :     0.298744
      dxz     :     0.085273
      dyz     :     0.049553
      dx2y2   :     0.060483
      dxy     :     0.047254

 10 O s       :     3.445558  s :     3.445558
      pz      :     1.565667  p :     4.622745
      px      :     1.439341
      py      :     1.617737
      dz2     :     0.103686  d :     0.498935
      dxz     :     0.130683
      dyz     :     0.074048
      dx2y2   :     0.108881
      dxy     :     0.081636

 11 C s       :     2.871192  s :     2.871192
      pz      :     0.909336  p :     2.965795
      px      :     1.070951
      py      :     0.985508
      dz2     :     0.026665  d :     0.116487
      dxz     :     0.021964
      dyz     :     0.027119
      dx2y2   :     0.025394
      dxy     :     0.015345

 12 C s       :     2.973290  s :     2.973290
      pz      :     1.156472  p :     3.355898
      px      :     1.159620
      py      :     1.039807
      dz2     :     0.011467  d :     0.059829
      dxz     :     0.011326
      dyz     :     0.010951
      dx2y2   :     0.016319
      dxy     :     0.009766

 13 S s       :     5.412470  s :     5.412470
      pz      :     3.691661  p :    10.091852
      px      :     3.053072
      py      :     3.347119
      dz2     :     0.042425  d :     0.290063
      dxz     :     0.041335
      dyz     :     0.035181
      dx2y2   :     0.075588
      dxy     :     0.095535

 14 P s       :     4.655476  s :     4.655476
      pz      :     2.733213  p :     8.372026
      px      :     2.744209
      py      :     2.894603
      dz2     :     0.339667  d :     1.565942
      dxz     :     0.297194
      dyz     :     0.281101
      dx2y2   :     0.309943
      dxy     :     0.338036

 15 S s       :     5.555447  s :     5.555447
      pz      :     3.583524  p :    10.442311
      px      :     3.588732
      py      :     3.270055
      dz2     :     0.017661  d :     0.135905
      dxz     :     0.011955
      dyz     :     0.030341
      dx2y2   :     0.039236
      dxy     :     0.036712

 16 O s       :     3.472159  s :     3.472159
      pz      :     1.414219  p :     4.757075
      px      :     1.594302
      py      :     1.748554
      dz2     :     0.136348  d :     0.478165
      dxz     :     0.130641
      dyz     :     0.094026
      dx2y2   :     0.058504
      dxy     :     0.058646

 17 C s       :     2.916817  s :     2.916817
      pz      :     0.796257  p :     3.038601
      px      :     1.119897
      py      :     1.122447
      dz2     :     0.036395  d :     0.105136
      dxz     :     0.018038
      dyz     :     0.028916
      dx2y2   :     0.014133
      dxy     :     0.007655

 18 O s       :     3.466701  s :     3.466701
      pz      :     1.516218  p :     4.737026
      px      :     1.661845
      py      :     1.558962
      dz2     :     0.125135  d :     0.466258
      dxz     :     0.086066
      dyz     :     0.102833
      dx2y2   :     0.082103
      dxy     :     0.070120

 19 C s       :     2.916979  s :     2.916979
      pz      :     1.058169  p :     3.022925
      px      :     1.050850
      py      :     0.913905
      dz2     :     0.025578  d :     0.101775
      dxz     :     0.010189
      dyz     :     0.015245
      dx2y2   :     0.024599
      dxy     :     0.026165

 20 H s       :     0.786380  s :     0.786380
      pz      :     0.009036  p :     0.044438
      px      :     0.024761
      py      :     0.010640

 21 H s       :     0.792782  s :     0.792782
      pz      :     0.027792  p :     0.043875
      px      :     0.007844
      py      :     0.008239

 22 H s       :     0.792926  s :     0.792926
      pz      :     0.012004  p :     0.043863
      px      :     0.007907
      py      :     0.023952

 23 H s       :     0.771327  s :     0.771327
      pz      :     0.028505  p :     0.041669
      px      :     0.005503
      py      :     0.007661

 24 H s       :     0.772380  s :     0.772380
      pz      :     0.011605  p :     0.041387
      px      :     0.005466
      py      :     0.024316

 25 H s       :     0.752016  s :     0.752016
      pz      :     0.019255  p :     0.045241
      px      :     0.008097
      py      :     0.017889

 26 H s       :     0.749354  s :     0.749354
      pz      :     0.022095  p :     0.045711
      px      :     0.010803
      py      :     0.012813

 27 H s       :     0.762858  s :     0.762858
      pz      :     0.019087  p :     0.043121
      px      :     0.015716
      py      :     0.008318

 28 H s       :     0.766357  s :     0.766357
      pz      :     0.005812  p :     0.040825
      px      :     0.025463
      py      :     0.009550

 29 H s       :     0.792264  s :     0.792264
      pz      :     0.021923  p :     0.043927
      px      :     0.013768
      py      :     0.008236

 30 H s       :     0.791952  s :     0.791952
      pz      :     0.008446  p :     0.044180
      px      :     0.026177
      py      :     0.009557

 31 H s       :     0.785276  s :     0.785276
      pz      :     0.020219  p :     0.044678
      px      :     0.011379
      py      :     0.013080

 32 H s       :     0.780842  s :     0.780842
      pz      :     0.008170  p :     0.042713
      px      :     0.011612
      py      :     0.022931

 33 H s       :     0.771783  s :     0.771783
      pz      :     0.004497  p :     0.040948
      px      :     0.028481
      py      :     0.007970

 34 H s       :     0.783249  s :     0.783249
      pz      :     0.007708  p :     0.042018
      px      :     0.011845
      py      :     0.022464

 35 H s       :     0.767692  s :     0.767692
      pz      :     0.027361  p :     0.041132
      px      :     0.007047
      py      :     0.006724

 36 H s       :     0.778598  s :     0.778598
      pz      :     0.007938  p :     0.042570
      px      :     0.013660
      py      :     0.020972

 37 H s       :     0.776718  s :     0.776718
      pz      :     0.010501  p :     0.042217
      px      :     0.025602
      py      :     0.006113


---------------------------------
LOEWDIN BOND ORDERS (THRESH 0.050000)
---------------------------------
B(  0-C ,  1-C ) :   1.0919 B(  0-C ,  2-O ) :   0.1697 B(  0-C , 20-H ) :   0.9147 
B(  0-C , 21-H ) :   0.9204 B(  0-C , 22-H ) :   0.9211 B(  1-C ,  2-O ) :   1.2808 
B(  1-C ,  3-C ) :   0.0911 B(  1-C ,  4-O ) :   0.0685 B(  1-C , 23-H ) :   0.8206 
B(  1-C , 24-H ) :   0.8225 B(  2-O ,  3-C ) :   1.4906 B(  2-O ,  4-O ) :   0.4527 
B(  2-O ,  5-C ) :   0.1827 B(  2-O , 23-H ) :   0.0929 B(  2-O , 24-H ) :   0.0936 
B(  3-C ,  4-O ) :   2.1259 B(  3-C ,  5-C ) :   0.8968 B(  3-C ,  6-C ) :   0.0720 
B(  3-C , 10-O ) :   0.0527 B(  4-O ,  5-C ) :   0.1812 B(  5-C ,  6-C ) :   1.0311 
B(  5-C ,  8-C ) :   0.0634 B(  5-C , 13-S ) :   0.1150 B(  5-C , 25-H ) :   0.8493 
B(  5-C , 26-H ) :   0.8451 B(  6-C ,  7-H ) :   0.7856 B(  6-C ,  8-C ) :   0.8570 
B(  6-C ,  9-O ) :   0.1795 B(  6-C , 10-O ) :   0.1613 B(  6-C , 13-S ) :   1.2521 
B(  6-C , 14-P ) :   0.0820 B(  7-H , 13-S ) :   0.0557 B(  8-C ,  9-O ) :   2.0696 
B(  8-C , 10-O ) :   1.4967 B(  8-C , 11-C ) :   0.0850 B(  8-C , 13-S ) :   0.1197 
B(  9-O , 10-O ) :   0.4470 B(  9-O , 11-C ) :   0.0619 B(  9-O , 13-S ) :   0.1154 
B(  9-O , 14-P ) :   0.1404 B(  9-O , 15-S ) :   0.0872 B(  9-O , 18-O ) :   0.1010 
B( 10-O , 11-C ) :   1.2777 B( 10-O , 12-C ) :   0.1576 B( 10-O , 27-H ) :   0.0908 
B( 10-O , 28-H ) :   0.0969 B( 11-C , 12-C ) :   1.0843 B( 11-C , 27-H ) :   0.8151 
B( 11-C , 28-H ) :   0.8270 B( 11-C , 31-H ) :   0.0501 B( 12-C , 29-H ) :   0.9217 
B( 12-C , 30-H ) :   0.9179 B( 12-C , 31-H ) :   0.9131 B( 13-S , 14-P ) :   1.1906 
B( 13-S , 15-S ) :   0.1397 B( 13-S , 16-O ) :   0.1643 B( 13-S , 18-O ) :   0.1289 
B( 14-P , 15-S ) :   1.9922 B( 14-P , 16-O ) :   1.5099 B( 14-P , 17-C ) :   0.0973 
B( 14-P , 18-O ) :   1.5670 B( 14-P , 19-C ) :   0.0991 B( 15-S , 16-O ) :   0.1859 
B( 15-S , 18-O ) :   0.1513 B( 16-O , 17-C ) :   1.3593 B( 16-O , 18-O ) :   0.2394 
B( 16-O , 32-H ) :   0.1033 B( 16-O , 33-H ) :   0.1028 B( 16-O , 34-H ) :   0.1039 
B( 17-C , 32-H ) :   0.8577 B( 17-C , 33-H ) :   0.8572 B( 17-C , 34-H ) :   0.8620 
B( 18-O , 19-C ) :   1.3288 B( 18-O , 35-H ) :   0.1032 B( 18-O , 36-H ) :   0.1011 
B( 18-O , 37-H ) :   0.0997 B( 19-C , 35-H ) :   0.8558 B( 19-C , 36-H ) :   0.8582 
B( 19-C , 37-H ) :   0.8617 

------------------------------------------
LOEWDIN REDUCED ORBITAL POPULATIONS PER MO
-------------------------------------------
THRESHOLD FOR PRINTING IS 0.1%%
                      0         1         2         3         4         5   
                 -88.57971 -88.52468 -76.91987 -19.01785 -19.00913 -18.99497
                   2.00000   2.00000   2.00000   2.00000   2.00000   2.00000
                  --------  --------  --------  --------  --------  --------
 2 O  s               0.0       0.0       0.0       0.0      99.9       0.0
10 O  s               0.0       0.0       0.0      99.9       0.0       0.0
13 S  s             100.0       0.0       0.0       0.0       0.0       0.0
14 P  s               0.0       0.0     100.0       0.0       0.0       0.0
15 S  s               0.0     100.0       0.0       0.0       0.0       0.0
18 O  s               0.0       0.0       0.0       0.0       0.0      99.9

                      6         7         8         9        10        11   
                 -18.98860 -18.95307 -18.94831 -10.17628 -10.17252 -10.09865
                   2.00000   2.00000   2.00000   2.00000   2.00000   2.00000
                  --------  --------  --------  --------  --------  --------
 2 O  dxy             0.0       0.0       0.0       0.0       0.1       0.0
 3 C  s               0.0       0.0       0.0       0.0      98.9       0.0
 4 O  s               0.0       0.0      99.9       0.0       0.0       0.0
 4 O  py              0.0       0.0       0.0       0.0       0.1       0.0
 4 O  dyz             0.0       0.0       0.0       0.0       0.2       0.0
 4 O  dx2y2           0.0       0.0       0.0       0.0       0.1       0.0
 6 C  s               0.0       0.0       0.0       0.0       0.0      99.6
 8 C  s               0.0       0.0       0.0      98.8       0.0       0.0
 9 O  s               0.0      99.9       0.0       0.0       0.0       0.0
[...]
34 H  px              0.2       0.0       0.0       0.0       0.0       0.0
34 H  py              0.4       0.0       0.0       0.0       0.0       0.0

                    492       493       494       495       496       497   
                  18.94163  19.20468  21.91605  21.97013  22.00873  22.01797
                   0.00000   0.00000   0.00000   0.00000   0.00000   0.00000
                  --------  --------  --------  --------  --------  --------
 0 C  s               0.0       0.0      77.2       0.1       3.2      18.0
 1 C  s               0.0       0.0      17.9       0.0       6.2      54.9
 3 C  s               0.0       0.0       0.0       0.0       0.2       1.0
 5 C  s               0.0       0.0       3.6       0.1       1.3       5.8
 6 C  s               0.0       0.3       0.1       0.8       0.5       0.0
 6 C  px              0.0       0.1       0.0       0.0       0.0       0.0
 8 C  s               0.0       0.0       0.0       0.2       0.0       0.0
11 C  s               0.0       0.0       0.6       0.0       1.4       6.9
12 C  s               0.0       0.0       0.1      98.3       0.0       0.0
13 S  s               0.0      98.8       0.0       0.0       0.0       0.0
14 P  s               0.1       0.1       0.0       0.0       0.0       0.0
14 P  py              0.1       0.0       0.0       0.0       0.0       0.0
15 S  s              98.9       0.0       0.0       0.0       0.0       0.0
15 S  py              0.1       0.0       0.0       0.0       0.0       0.0
17 C  s               0.0       0.0       0.0       0.1       4.8       3.0
19 C  s               0.1       0.0       0.1       0.0      81.9      10.0

                    498       499       500       501       502       503   
                  22.03231  22.08251  22.11197  22.18991  22.37987  22.41761
                   0.00000   0.00000   0.00000   0.00000   0.00000   0.00000
                  --------  --------  --------  --------  --------  --------
 0 C  s               0.0       0.5       0.0       0.1       0.2       0.2
 1 C  s               0.9       2.3      14.0       2.9       0.2       0.3
 3 C  s               0.0       0.3       0.1       0.4      40.4      56.6
 5 C  s               0.2       4.9      28.4      54.1       0.2       0.8
 6 C  s               0.0      29.7      32.9      35.4       0.0       0.1
 8 C  s               0.1       0.0       0.1       0.1      57.6      40.7
 9 O  s               0.0       0.0       0.0       0.0       0.1       0.1
10 O  s               0.0       0.0       0.0       0.0       0.1       0.1
11 C  s               0.2      61.7      23.2       5.5       0.1       0.0
12 C  s               0.1       0.1       0.2       0.7       0.1       0.0
17 C  s              91.1       0.1       0.1       0.3       0.0       0.1
19 C  s               6.9       0.1       0.6       0.0       0.0       0.0

                    504       505       506       507       508       509   
                  43.72702  43.77846  43.80453  43.84800  43.88879  43.94040
                   0.00000   0.00000   0.00000   0.00000   0.00000   0.00000
                  --------  --------  --------  --------  --------  --------
 2 O  s              35.3       0.1       7.3       0.0      56.9       0.3
 3 C  s               0.0       0.0       0.0       0.0       0.1       0.0
 4 O  s              61.8       0.1      11.1       1.9      24.6       0.4
 9 O  s               2.4       1.0      19.1      66.8       8.4       2.2
10 O  s               0.2       1.2      48.3      12.0       5.6      32.6
16 O  s               0.2      93.7       1.1       4.0       0.2       0.7
18 O  s               0.1       3.9      13.1      15.1       4.0      63.8



                      *****************************
                      * MAYER POPULATION ANALYSIS *
                      *****************************

  NA   - Mulliken gross atomic population
  ZA   - Total nuclear charge
  QA   - Mulliken gross atomic charge
  VA   - Mayer's total valence
  BVA  - Mayer's bonded valence
  FA   - Mayer's free valence

  ATOM       NA         ZA         QA         VA         BVA        FA
  0 C      6.4913     6.0000    -0.4913     3.8424     3.8424     0.0000
  1 C      6.1526     6.0000    -0.1526     3.6117     3.6117     0.0000
  2 O      8.1557     8.0000    -0.1557     1.9787     1.9787     0.0000
  3 C      5.6747     6.0000     0.3253     3.8959     3.8959     0.0000
  4 O      8.4719     8.0000    -0.4719     1.9061     1.9061     0.0000
  5 C      6.3851     6.0000    -0.3851     3.7421     3.7421     0.0000
  6 C      6.0243     6.0000    -0.0243     3.6869     3.6869    -0.0000
  7 H      0.7247     1.0000     0.2753     0.9172     0.9172     0.0000
  8 C      5.7000     6.0000     0.3000     3.9426     3.9426     0.0000
  9 O      8.4543     8.0000    -0.4543     1.9698     1.9698    -0.0000
 10 O      8.1083     8.0000    -0.1083     2.0196     2.0196     0.0000
 11 C      6.1433     6.0000    -0.1433     3.5929     3.5929     0.0000
 12 C      6.4973     6.0000    -0.4973     3.8139     3.8139     0.0000
 13 S     16.2050    16.0000    -0.2050     2.1371     2.1371     0.0000
 14 P     14.1837    15.0000     0.8163     5.1311     5.1311     0.0000
 15 S     16.5193    16.0000    -0.5193     1.9948     1.9948     0.0000
 16 O      8.3933     8.0000    -0.3933     1.8154     1.8154     0.0000
 17 C      6.3091     6.0000    -0.3091     3.7520     3.7520     0.0000
 18 O      8.3517     8.0000    -0.3517     1.8950     1.8950     0.0000
 19 C      6.2961     6.0000    -0.2961     3.7088     3.7088    -0.0000
 20 H      0.8292     1.0000     0.1708     0.9575     0.9575     0.0000
 21 H      0.8339     1.0000     0.1661     0.9566     0.9566     0.0000
 22 H      0.8333     1.0000     0.1667     0.9566     0.9566     0.0000
 23 H      0.8248     1.0000     0.1752     0.9449     0.9449    -0.0000
 24 H      0.8243     1.0000     0.1757     0.9440     0.9440     0.0000
 25 H      0.7807     1.0000     0.2193     0.9412     0.9412     0.0000
 26 H      0.7787     1.0000     0.2213     0.9380     0.9380    -0.0000
 27 H      0.8211     1.0000     0.1789     0.9527     0.9527     0.0000
 28 H      0.8181     1.0000     0.1819     0.9459     0.9459     0.0000
 29 H      0.8292     1.0000     0.1708     0.9572     0.9572     0.0000
 30 H      0.8300     1.0000     0.1700     0.9573     0.9573     0.0000
 31 H      0.8245     1.0000     0.1755     0.9567     0.9567    -0.0000
 32 H      0.8246     1.0000     0.1754     0.9538     0.9538    -0.0000
 33 H      0.8227     1.0000     0.1773     0.9498     0.9498    -0.0000
 34 H      0.8271     1.0000     0.1729     0.9502     0.9502    -0.0000
 35 H      0.8180     1.0000     0.1820     0.9488     0.9488    -0.0000
 36 H      0.8221     1.0000     0.1779     0.9525     0.9525     0.0000
 37 H      0.8161     1.0000     0.1839     0.9473     0.9473     0.0000

  Mayer bond orders larger than 0.100000
B(  0-C ,  1-C ) :   0.9423 B(  0-C , 20-H ) :   0.9611 B(  0-C , 21-H ) :   0.9692 
B(  0-C , 22-H ) :   0.9717 B(  1-C ,  2-O ) :   0.7784 B(  1-C , 23-H ) :   0.9461 
B(  1-C , 24-H ) :   0.9413 B(  2-O ,  3-C ) :   1.1391 B(  3-C ,  4-O ) :   1.7877 
B(  3-C ,  5-C ) :   0.9061 B(  5-C ,  6-C ) :   0.8466 B(  5-C , 25-H ) :   0.9865 
B(  5-C , 26-H ) :   0.9296 B(  6-C ,  7-H ) :   0.8872 B(  6-C ,  8-C ) :   0.9674 
B(  6-C , 13-S ) :   0.8668 B(  8-C ,  9-O ) :   1.7741 B(  8-C , 10-O ) :   1.1863 
B(  9-O , 14-P ) :   0.1077 B( 10-O , 11-C ) :   0.7532 B( 11-C , 12-C ) :   0.9226 
B( 11-C , 27-H ) :   0.9567 B( 11-C , 28-H ) :   0.9514 B( 12-C , 29-H ) :   0.9714 
B( 12-C , 30-H ) :   0.9679 B( 12-C , 31-H ) :   0.9586 B( 13-S , 14-P ) :   0.9921 
B( 14-P , 15-S ) :   1.7762 B( 14-P , 16-O ) :   1.0045 B( 14-P , 18-O ) :   1.1781 
B( 16-O , 17-C ) :   0.8300 B( 17-C , 32-H ) :   0.9551 B( 17-C , 33-H ) :   0.9589 
B( 17-C , 34-H ) :   0.9501 B( 18-O , 19-C ) :   0.7885 B( 19-C , 35-H ) :   0.9548 
B( 19-C , 36-H ) :   0.9488 B( 19-C , 37-H ) :   0.9534 

-------
TIMINGS
-------

Total SCF time: 0 days 0 hours 1 min 36 sec 

Total time                  ....      96.758 sec
Sum of individual times     ....      96.704 sec  ( 99.9%)

SCF preparation             ....       0.681 sec  (  0.7%)
Fock matrix formation       ....      94.592 sec  ( 97.8%)
  Startup                   ....       0.020 sec  (  0.0% of F)
  Split-RI-J                ....      23.404 sec  ( 24.7% of F)
  XC integration            ....      42.551 sec  ( 45.0% of F)
    XC Preparation          ....       0.000 sec  (  0.0% of XC)
    Basis function eval.    ....       6.581 sec  ( 15.5% of XC)
    Density eval.           ....      16.858 sec  ( 39.6% of XC)
    XC-Functional eval.     ....       3.007 sec  (  7.1% of XC)
    XC-Potential eval.      ....      15.385 sec  ( 36.2% of XC)
  CPCM terms                ....      28.418 sec  ( 30.0% of F)
Diagonalization             ....       0.000 sec  (  0.0%)
Density matrix formation    ....       0.106 sec  (  0.1%)
Total Energy calculation    ....       0.016 sec  (  0.0%)
Population analysis         ....       0.290 sec  (  0.3%)
Orbital Transformation      ....       0.127 sec  (  0.1%)
Orbital Orthonormalization  ....       0.000 sec  (  0.0%)
DIIS solution               ....       0.789 sec  (  0.8%)
  MO trafo                  ....       0.000 sec  (  0.0 % of DIIS)
  Orb grad                  ....       0.000 sec  (  0.0 % of DIIS)
  Energy W gradient         ....       0.000 sec  (  0.0 % of DIIS)
  DIIS error                ....       0.124 sec  ( 15.7 % of DIIS)
  DIIS work                 ....       0.597 sec  ( 75.7 % of DIIS)
  Form Q                    ....       0.000 sec  (  0.0 % of DIIS)
  Form QpQm                 ....       0.000 sec  (  0.0 % of DIIS)
  Exp/Cayley                ....       0.000 sec  (  0.0 % of DIIS)
  Orb update                ....       0.000 sec  (  0.0 % of DIIS)
  Wake-sleep                ....       0.005 sec  (  0.6 % of DIIS)
SOSCF solution              ....       0.103 sec  (  0.1%)
  MO trafo                  ....       0.079 sec  ( 76.8 % of SOSCF)
  Orb grad                  ....       0.000 sec  (  0.3 % of SOSCF)
  Rot update                ....       0.000 sec  (  0.1 % of SOSCF)
  Step                      ....       0.023 sec  ( 22.7 % of SOSCF)
Finished LeanSCF after  96.8 sec

Maximum memory used throughout the entire LEANSCF-calculation: 114.1 MB


-------------------------------------------------------------------------------
                          DFT DISPERSION CORRECTION                            
                                                                               
                                DFTD4 V3.4.0                                   
-------------------------------------------------------------------------------
The R2SCAN3C composite method is recognized
Using three-body term ABC
Active option DFTDOPT                   ...         5   

-------------------------   ----------------
Dispersion correction           -0.016827119
-------------------------   ----------------

------------------   -----------------
gCP correction             0.037544854
------------------   -----------------

-------------------------   --------------------
FINAL SINGLE POINT ENERGY     -1981.464204522945
-------------------------   --------------------


------------------------------------------------------------------------------
                              ORCA PROPERTY CALCULATIONS
------------------------------------------------------------------------------

GBWName                                 ... sp_solv.gbw
Number of atoms                         ...     38
Number of basis functions               ...    510
Max core memory                         ...   1024 MB

Electric properties:
Dipole moment                           ... YES
Quadrupole moment                       ...  NO
Static polarizability (Dipole/Dipole)   ...  NO
Static polarizability (Dipole/Quad.)    ...  NO
Static polarizability (Quad./Quad.)     ...  NO
Static polarizability (Velocity)        ...  NO

Atomic electric properties:
Dipole moment                           ...  NO
Quadrupole moment                       ...  NO
Static polarizability                   ...  NO

Choice of electric origin               ... Center of mass
Position of electric origin             ...     0.000006    -0.000001    -0.000000

General magnetic properties:
Magnetizability                         ...  NO

EPR properties:
g-Tensor (aka g-matrix)                 ...  NO
Zero-Field splitting spin-orbit         ...  NO
Zero-field splitting spin-spin          ...  NO
Hyperfine couplings                     ...  NO (   0 nuclei)
Quadrupole couplings                    ...  NO (   0 nuclei)
Contact density                         ...  NO (   0 nuclei)

NMR properties:
Chemical shifts                         ...  NO (   0 nuclei)
Spin-rotation constants                 ...  NO (   0 nuclei)
Spin-spin couplings                     ...  NO (   0 nuclei,    0 pairs)

Choice of magnetic origin               ... GIAO
Position of magnetic origin             ...     0.000000     0.000000     0.000000

Properties with geometric perturbations:
SCF Hessian                             ...  NO
IR spectrum                             ...  NO
VCD spectrum                            ...  NO
X-ray spectroscopy properties:
SCF XES/XAS/RIXS spectra                ...  NO


-------------
DIPOLE MOMENT
-------------

Method             : SCF
Type of density    : Electron Density
Multiplicity       :   1
Irrep              :   0
Energy             : -1981.4849222572645431 Eh
Relativity type    : 
Basis              : AO
                                X                 Y                 Z
Electronic contribution:    -18.673601917       1.830127694      -1.656046998
Nuclear contribution   :     20.285106235      -4.374205669       2.168500673
                        -----------------------------------------
Total Dipole Moment    :      1.611504318      -2.544077975       0.512453675
                        -----------------------------------------
Magnitude (a.u.)       :      3.054813853
Magnitude (Debye)      :      7.764719742



--------------------
Rotational spectrum 
--------------------
 
Rotational constants in cm-1:             0.017507             0.005399             0.004941 
Rotational constants in MHz :           524.846075           161.851496           148.119521 

Dipole components along the rotational axes: 
x,y,z [a.u.] :     1.927519     0.887226    -2.197587 
x,y,z [Debye]:     4.899364     2.255149    -5.585822 

 

Dipole moment calculation done in   0.0 sec 

Maximum memory used throughout the entire PROP-calculation: 49.5 MB

--------------------------------
SUGGESTED CITATIONS FOR THIS RUN
--------------------------------

Below you find a list of papers that are relevant to this ORCA run
We neither can nor want to force you to cite these papers, but we appreciate if you do
You receive ORCA, which is the product of decades of hard work by many enthusiastic individuals, for free
The only thing we kindly ask in return is that you cite our papers,
We deeply appreciate it, if you show your appreciation for ORCA by not just citing the generic ORCA reference.

Please note that relegating all ORCA citations to the supporting information does *not* help us.
SI sections are not indexed - citations you put there will not count into any citation statistics
But we need these citations in order to attract the funding resources that allow us to do what we are doing

Therefore, if you are a happy ORCA user, please consider citing a few of the papers listed below in the main body of your paper

In addition to the list printed below, the program has created the file sp_solv.bibtex that contains the list in bibtex format
You can import this file easily into all common literature databanks and citation aid programs


List of essential papers. We consider these as the minimum necessary citations

  1. Neese,F.
     Software update: the ORCA program system, version 5.0
     WIRES Comput. Molec. Sci., 2022 12(1)e1606
     doi.org/10.1002/wcms.1606
  2. Grimme,S.; Hansen,A.; Ehlert,S.; Mewes,J.
     r2SCAN-3c: A 'Swiss army knife' composite electronic-structure method
     J. Chem. Phys., 2021 154 064103
     doi.org/10.1063/5.0040021

List of papers to cite with high priority. The work reported in these papers was absolutely
necessary for this run to complete.
Our perspective: the developers of density functionals and basis sets usually get cited in chemistry papers
Good! But without the algorithms to do something with them, the functionals or basis sets would not do anything.
Hence, in our opinion, the algorithm design and method developments papers are equally worthy of getting cited

  1. Neese,F.
     An improvement of the resolution of the identity approximation for the formation of the Coulomb matrix
     J. Comp. Chem., 2003 24(14)1740-1747
     doi.org/10.1002/jcc.10318
  2. Garcia-Rates,M.; Neese,F.
     Effect of the Solute Cavity on the Solvation Energy and its Derivatives within the Framework of the Gaussian Charge Scheme
     J. Comput. Chem., 2020 41 922-939
     doi.org/10.1002/jcc.26139
  3. Neese,F.
     The SHARK Integral Generation and Digestion System
     J. Comp. Chem., 2022  1-16
     doi.org/10.1002/jcc.26942
  4. Lehtola,S.; Steigemann,C.; Oliveira,M.; Marques,M.
     Recent developments in Libxc - A comprehensive library of functionals for density functional theory
     Software X, 2018 7 
     doi.org/10.1016/j.softx.2017.11.002
  5. Caldeweyher,E.; Bannwarth,C.; Grimme,S.
     Extension of the D3 dispersion coefficient model
     J. Chem. Phys., 2017 147 034112
     doi.org/10.1063/1.4993215
  6. Caldeweyher,E.; Ehlert,S.; Hansen,A.; Neugebauer,H.; Spicher,S.; Bannwarth,C.; Grimme,S.
     A generally applicable atomic-charge dependent London dispersion correction
     J. Chem. Phys., 2019 150 154122
     doi.org/10.1063/1.5090222
  7. Caldeweyher,E.; Mewes,J.; Ehlert,S.; Grimme,S.
     Extension and evaluation of the D4 London-dispersion model for periodic systems
     Phys. Chem. Chem. Phys., 2020 22(16)8499-8512
     doi.org/10.1039/D0CP00502A
  8. Wittmann,L.; Gordiy,I.; Friede,M.; Helmich-Paris,B.; Grimme,S.; Hansen,A.; Bursch,M.
     Extension of the D3 and D4 London Dispersion Corrections to the full Actinides Series
     Phys. Chem. Chem. Phys., 2024 26(32)21379-21394
     doi.org/https://doi.org/10.1039/D4CP01514B 

List of suggested additional citations. These are papers that are important in the 'surrounding' of 
of this run, or papers that preceded the highly important papers. If you like your results we are grateful for a citation.

  1. Neese,F.
     The ORCA program system
     WIRES Comput. Molec. Sci., 2012 2(1)73-78
     doi.org/10.1002/wcms.81
  2. Neese,F.
     Software update: the ORCA program system, version 4.0
     WIRES Comput. Molec. Sci., 2018 8(1)1-6
     doi.org/10.1002/wcms.1327
  3. Neese,F.; Wennmohs,F.; Becker,U.; Riplinger,C.
     The ORCA quantum chemistry program package
     J. Chem. Phys., 2020 152 Art. No. L224108
     doi.org/10.1063/5.0004608

List of optional additional citations

  1. Neese,F.
     Approximate second-order SCF convergence for spin unrestricted wavefunctions
     Chem. Phys. Lett., 2000 325(1-3)93-98
     doi.org/10.1016/s0009-2614(00)00662-x

Timings for individual modules:

Sum of individual times          ...       99.817 sec (=   1.664 min)
Startup calculation              ...        2.581 sec (=   0.043 min)   2.6 %
SCF iterations                   ...       97.133 sec (=   1.619 min)  97.3 %
Property calculations            ...        0.103 sec (=   0.002 min)   0.1 %
                             ****ORCA TERMINATED NORMALLY****
TOTAL RUN TIME: 0 days 0 hours 1 minutes 40 seconds 115 msec
