      -----------------------------------------------------------      
     |                   =====================                   |     
     |                           x T B                           |     
     |                   =====================                   |     
     |                         S. Grimme                         |     
     |          Mulliken Center for Theoretical Chemistry        |     
     |                    University of Bonn                     |     
      -----------------------------------------------------------      

   * xtb version 6.7.1 (edcfbbe) compiled by 'albert@albert-system' on 2024-07-22

   xtb is free software: you can redistribute it and/or modify it under
   the terms of the GNU Lesser General Public License as published by
   the Free Software Foundation, either version 3 of the License, or
   (at your option) any later version.
   
   xtb is distributed in the hope that it will be useful,
   but WITHOUT ANY WARRANTY; without even the implied warranty of
   MERCHANTABILITY or FITNESS FOR A PARTICULAR PURPOSE.  See the
   GNU Lesser General Public License for more details.
   
   Cite this work as:
   * C. Bannwarth, E. Caldeweyher, S. Ehlert, A. Hansen, P. Pracht,
     J. Seibert, S. Spicher, S. Grimme, WIREs Comput. Mol. Sci., 2020, 11,
     e01493. DOI: 10.1002/wcms.1493
   
   for GFN2-xTB:
   * C. Bannwarth, S. Ehlert and S. Grimme., J. Chem. Theory Comput., 2019,
     15, 1652-1671. DOI: 10.1021/acs.jctc.8b01176
   for GFN1-xTB:
   * S. Grimme, C. Bannwarth, P. Shushkov, J. Chem. Theory Comput., 2017,
     13, 1989-2009. DOI: 10.1021/acs.jctc.7b00118
   for GFN0-xTB:
   * P. Pracht, E. Caldeweyher, S. Ehlert, S. Grimme, ChemRxiv, 2019, preprint.
     DOI: 10.26434/chemrxiv.8326202.v1
   for GFN-FF:
   * S. Spicher and S. Grimme, Angew. Chem. Int. Ed., 2020, 59, 15665-15673.
     DOI: 10.1002/anie.202004239
   
   for ALPB and GBSA implicit solvation:
   * S. Ehlert, M. Stahn, S. Spicher, S. Grimme, J. Chem. Theory Comput.,
     2021, 17, 4250-4261. DOI: 10.1021/acs.jctc.1c00471
   
   for ddCOSMO and CPCM-X implicit solvation:
   * M. Stahn, S. Ehlert, S. Grimme, J. Phys. Chem. A,
     2023, XX, XXXX-XXXX. DOI: 10.1021/acs.jpca.3c04382
   
   for DFT-D4:
   * E. Caldeweyher, C. Bannwarth and S. Grimme, J. Chem. Phys., 2017,
     147, 034112. DOI: 10.1063/1.4993215
   * E. Caldeweyher, S. Ehlert, A. Hansen, H. Neugebauer, S. Spicher,
     C. Bannwarth and S. Grimme, J. Chem. Phys., 2019, 150, 154122.
     DOI: 10.1063/1.5090222
   * E. Caldeweyher, J.-M. Mewes, S. Ehlert and S. Grimme, Phys. Chem. Chem. Phys.
     2020, 22, 8499-8512. DOI: 10.1039/D0CP00502A
   
   for sTDA-xTB:
   * S. Grimme and C. Bannwarth, J. Chem. Phys., 2016, 145, 054103.
     DOI: 10.1063/1.4959605
   
   in the mass-spec context:
   * V. Asgeirsson, C. Bauer and S. Grimme, Chem. Sci., 2017, 8, 4879.
     DOI: 10.1039/c7sc00601b
   * J. Koopman and S. Grimme, ACS Omega 2019, 4, 12, 15120-15133.
     DOI: 10.1021/acsomega.9b02011
   
   for metadynamics refer to:
   * S. Grimme, J. Chem. Theory Comput., 2019, 155, 2847-2862
     DOI: 10.1021/acs.jctc.9b00143
   
   for SPH calculations refer to:
   * S. Spicher and S. Grimme, J. Chem. Theory Comput., 2021, 17, 1701-1714
     DOI: 10.1021/acs.jctc.0c01306
   
   for ONIOM refer to:
   * C. Plett, A. Katbashev, S. Ehlert, S. Grimme, M. Bursch,
     Phys. Chem. Chem. Phys., 2023, 25, 17860-17868. DOI: 10.1039/D3CP02178E
   
   for DIPRO refer to:
   * J. Kohn, N. Gildemeister, S. Grimme, D. Fazzi, A. Hansen,
     J. Chem. Phys., 2023, just accepted.
   
   for PTB refer to:
   * S. Grimme, M. Mueller, A. Hansen, J. Chem. Phys., 2023, 158, 124111.
     DOI: 10.1063/5.0137838
   
   with help from (in alphabetical order)
   P. Atkinson, C. Bannwarth, F. Bohle, G. Brandenburg, E. Caldeweyher
   M. Checinski, S. Dohm, S. Ehlert, S. Ehrlich, I. Gerasimov, C. Hölzer
   A. Katbashev, J. Kohn, J. Koopman, C. Lavigne, S. Lehtola, F. März, M. Müller,
   F. Musil, H. Neugebauer, J. Pisarek, C. Plett, P. Pracht, F. Pultar,
   J. Seibert, P. Shushkov, S. Spicher, M. Stahn, M. Steiner, T. Strunk,
   J. Stückrath, T. Rose, and J. Unsleber
   
 * started run on 2025/04/03 at 19:55:39.306     
   ID    Z sym.   atoms
    1    6 C      1-8
    2    8 O      9
    3    1 H      10-19

           -------------------------------------------------
          |                Calculation Setup                |
           -------------------------------------------------

          program call               : /srv/scratch/z5358697/.xtb/bin/xtb xtb_rrho.coord --gfn2 --ohess vtight --chrg 0 --enso --norestart -I rrho-xcontrol-inp --parallel 1 --alpb water
          hostname                   : k161
          coordinate file            : xtb_rrho.coord
          omp threads                :                     1


           -------------------------------------------------
          |                 G F N 2 - x T B                 |
           -------------------------------------------------

        Reference                      10.1021/acs.jctc.8b01176
      * Hamiltonian:
        H0-scaling (s, p, d)           1.850000    2.230000    2.230000
        zeta-weighting                 0.500000
      * Dispersion:
        s8                             2.700000
        a1                             0.520000
        a2                             5.000000
        s9                             5.000000
      * Repulsion:
        kExp                           1.500000    1.000000
        rExp                           1.000000
      * Coulomb:
        alpha                          2.000000
        third order                    shell-resolved
        anisotropic                    true
        a3                             3.000000
        a5                             4.000000
        cn-shift                       1.200000
        cn-exp                         4.000000
        max-rad                        5.000000

      * Solvation model:               ALPB
        Solvent                        water
        Parameter file                 internal GFN2-xTB/ALPB
        Dielectric constant                8.0200E+01
        Reference state                gsolv [1 M gas/solution]
        Free energy shift                  1.0808E-03 Eh       6.7819E-01 kcal/mol
        Temperature                        2.9815E+02 K
        Density                            1.0000E+00 kg/L
        Solvent mass                       1.8000E+01 g/mol
        Interaction kernel             P16
        Born radius scaling (c1)           1.4744E+00
        Born radii integrator          GBOBC
        Born offset                        0.0000E+00 a0       0.0000E+00 AA
        H-bond correction              true
        Ion screening                  false
        Surface tension                    1.0000E-05 Eh       1.5569E+01 dyn/cm
        Grid points                               974 per atom

          ...................................................
          :                      SETUP                      :
          :.................................................:
          :  # basis functions                  46          :
          :  # atomic orbitals                  46          :
          :  # shells                           28          :
          :  # electrons                        48          :
          :  max. iterations                   250          :
          :  Hamiltonian                  GFN2-xTB          :
          :  restarted?                      false          :
          :  GBSA solvation                   true          :
          :  PC potential                    false          :
          :  electronic temp.          300.0000000     K    :
          :  accuracy                    1.0000000          :
          :  -> integral cutoff          0.2500000E+02      :
          :  -> integral neglect         0.1000000E-07      :
          :  -> SCF convergence          0.1000000E-05 Eh   :
          :  -> wf. convergence          0.1000000E-03 e    :
          :  Broyden damping             0.4000000          :
          :  net charge                          0          :
          :  unpaired electrons                  0          :
          ...................................................

 iter      E             dE          RMSdq      gap      omega  full diag
   1    -26.6843260 -0.266843E+02  0.400E+00    4.35       0.0  T
   2    -26.6939891 -0.966311E-02  0.231E+00    4.29       1.0  T
   3    -26.6887093  0.527987E-02  0.906E-01    4.24       1.0  T
   4    -26.6963502 -0.764093E-02  0.184E-01    4.25       1.0  T
   5    -26.6964930 -0.142801E-03  0.629E-02    4.28       1.0  T
   6    -26.6964962 -0.324146E-05  0.339E-02    4.27       1.0  T
   7    -26.6965002 -0.399311E-05  0.961E-03    4.27       2.4  T
   8    -26.6965007 -0.492414E-06  0.383E-03    4.27       6.0  T
   9    -26.6965008 -0.183121E-07  0.169E-03    4.27      13.6  T
  10    -26.6965008 -0.229182E-07  0.639E-04    4.27      35.9  T
  11    -26.6965008 -0.158761E-08  0.292E-04    4.27      78.5  T

   *** convergence criteria satisfied after 11 iterations ***

         #    Occupation            Energy/Eh            Energy/eV
      -------------------------------------------------------------
         1        2.0000           -0.6988875             -19.0177
       ...           ...                  ...                  ...
        18        2.0000           -0.4542866             -12.3618
        19        2.0000           -0.4482594             -12.1978
        20        2.0000           -0.4404954             -11.9865
        21        2.0000           -0.4246311             -11.5548
        22        2.0000           -0.4152406             -11.2993
        23        2.0000           -0.3828840             -10.4188
        24        2.0000           -0.3724325             -10.1344 (HOMO)
        25                         -0.2154440              -5.8625 (LUMO)
        26                         -0.2084709              -5.6728
        27                         -0.0895337              -2.4363
        28                          0.0604793               1.6457
        29                          0.0963722               2.6224
       ...                                ...                  ...
        46                          0.6445526              17.5392
      -------------------------------------------------------------
                  HL-Gap            0.1569885 Eh            4.2719 eV
             Fermi-level           -0.2939382 Eh           -7.9985 eV

 SCC (total)                   0 d,  0 h,  0 min,  0.009 sec
 SCC setup                      ...        0 min,  0.001 sec (  8.434%)
 Dispersion                     ...        0 min,  0.000 sec (  0.862%)
 classical contributions        ...        0 min,  0.000 sec (  0.156%)
 integral evaluation            ...        0 min,  0.001 sec ( 11.642%)
 iterations                     ...        0 min,  0.004 sec ( 43.301%)
 molecular gradient             ...        0 min,  0.003 sec ( 34.546%)
 printout                       ...        0 min,  0.000 sec (  0.973%)

         :::::::::::::::::::::::::::::::::::::::::::::::::::::
         ::                     SUMMARY                     ::
         :::::::::::::::::::::::::::::::::::::::::::::::::::::
         :: total energy             -26.296555923444 Eh    ::
         :: total w/o Gsasa/hb       -26.291492767354 Eh    ::
         :: gradient norm              0.023615770999 Eh/a0 ::
         :: HOMO-LUMO gap              4.271874035614 eV    ::
         ::.................................................::
         :: SCC energy               -26.696435422784 Eh    ::
         :: -> isotropic ES            0.030711777406 Eh    ::
         :: -> anisotropic ES          0.005701627267 Eh    ::
         :: -> anisotropic XC          0.011682182656 Eh    ::
         :: -> dispersion             -0.014736592668 Eh    ::
         :: -> Gsolv                  -0.008873643927 Eh    ::
         ::    -> Gelec               -0.003810487837 Eh    ::
         ::    -> Gsasa               -0.000461536668 Eh    ::
         ::    -> Ghb                 -0.005682379121 Eh    ::
         ::    -> Gshift               0.001080759698 Eh    ::
         :: repulsion energy           0.399879499340 Eh    ::
         :: add. restraining           0.000000000000 Eh    ::
         :: total charge              -0.000000000000 e     ::
         :::::::::::::::::::::::::::::::::::::::::::::::::::::

      ----------------------------------------------------------- 
     |                   =====================                   |
     |                        A N C O P T                        |
     |                   =====================                   |
     |               Approximate Normal Coordinate               |
     |                Rational Function Optimizer                |
      ----------------------------------------------------------- 
      ----------------------------------------------------------- 
     |                   =====================                   |
     |                        A N C O P T                        |
     |                   =====================                   |
     |               Approximate Normal Coordinate               |
     |                Rational Function Optimizer                |
      ----------------------------------------------------------- 

          ...................................................
          :                      SETUP                      :
          :.................................................:
          :   optimization level         verytight          :
          :   max. optcycles                   380          :
          :   ANC micro-cycles                  20          :
          :   degrees of freedom                51          :
          :.................................................:
          :   RF solver                   davidson          :
          :   write xtbopt.log                true          :
          :   linear?                        false          :
          :   energy convergence         0.1000000E-06 Eh   :
          :   grad. convergence          0.2000000E-03 Eh/α :
          :   maxmium RF displ.          1.0000000          :
          :   Hlow (freq-cutoff)         0.1000000E-01      :
          :   Hmax (freq-cutoff)         5.0000000          :
          :   S6 in model hess.         20.0000000          :
          ...................................................

generating ANC from exact Hessian ...
Using Lindh-Hessian (1995)
 Shifting diagonal of input Hessian by   7.481950839027605E-003
 Lowest  eigenvalues of input Hessian
    0.000000    0.000000    0.000000    0.000000    0.000000    0.000000
    0.010000    0.012141    0.014388    0.015346    0.016048    0.018713
    0.024872    0.027634    0.043380    0.044079    0.047346    0.051278
 Highest eigenvalues
    1.443182    1.600444    1.662224    1.835569    1.968387    2.010656
 

........................................................................
.............................. CYCLE    1 ..............................
........................................................................

 iter      E             dE          RMSdq      gap      omega  full diag
   1    -26.6965008 -0.266965E+02  0.107E-04    4.27       0.0  T
   2    -26.6965008 -0.163531E-10  0.696E-05    4.27     329.7  T
   3    -26.6965008 -0.875389E-11  0.247E-05    4.27     930.0  T
     SCC iter.                  ...        0 min,  0.001 sec
     gradient                   ...        0 min,  0.003 sec
 * total energy  :   -26.2965559 Eh     change       -0.3860485E-09 Eh
   gradient norm :     0.0236163 Eh/α   predicted     0.0000000E+00 (-100.00%)
   displ. norm   :     0.1290934 α      lambda       -0.1664215E-02
   maximum displ.:     0.0844665 α      in ANC's #14, #2, #9, ...

........................................................................
.............................. CYCLE    2 ..............................
........................................................................

 iter      E             dE          RMSdq      gap      omega  full diag
   1    -26.7126484 -0.267126E+02  0.128E-01    4.33       0.0  T
   2    -26.7126570 -0.860169E-05  0.742E-02    4.34       1.0  T
   3    -26.7126508  0.614949E-05  0.328E-02    4.33       1.0  T
   4    -26.7126600 -0.912272E-05  0.356E-03    4.34       6.4  T
   5    -26.7126600 -0.673217E-07  0.184E-03    4.34      12.5  T
   6    -26.7126601 -0.144503E-07  0.101E-03    4.34      22.6  T
   7    -26.7126601 -0.326249E-08  0.457E-04    4.34      50.2  T
   8    -26.7126601 -0.553857E-09  0.194E-04    4.34     118.1  T
     SCC iter.                  ...        0 min,  0.002 sec
     gradient                   ...        0 min,  0.003 sec
 * total energy  :   -26.2976001 Eh     change       -0.1044177E-02 Eh
   gradient norm :     0.0109010 Eh/α   predicted    -0.8459826E-03 ( -18.98%)
   displ. norm   :     0.0566948 α      lambda       -0.2085056E-03
   maximum displ.:     0.0342064 α      in ANC's #2, #14, #7, ...

........................................................................
.............................. CYCLE    3 ..............................
........................................................................

 iter      E             dE          RMSdq      gap      omega  full diag
   1    -26.7173959 -0.267174E+02  0.518E-02    4.35       0.0  T
   2    -26.7174006 -0.472796E-05  0.290E-02    4.35       1.0  T
   3    -26.7174009 -0.272137E-06  0.173E-02    4.35       1.3  T
   4    -26.7174022 -0.131051E-05  0.251E-03    4.35       9.2  T
   5    -26.7174022 -0.338213E-07  0.106E-03    4.35      21.7  T
   6    -26.7174023 -0.103037E-07  0.479E-04    4.35      47.9  T
   7    -26.7174023 -0.501007E-09  0.215E-04    4.35     106.6  T
     SCC iter.                  ...        0 min,  0.002 sec
     gradient                   ...        0 min,  0.003 sec
 * total energy  :   -26.2977190 Eh     change       -0.1189496E-03 Eh
   gradient norm :     0.0040881 Eh/α   predicted    -0.1046106E-03 ( -12.05%)
   displ. norm   :     0.0144353 α      lambda       -0.2004985E-04
   maximum displ.:     0.0109197 α      in ANC's #7, #9, #19, ...

........................................................................
.............................. CYCLE    4 ..............................
........................................................................

 iter      E             dE          RMSdq      gap      omega  full diag
   1    -26.7173015 -0.267173E+02  0.141E-02    4.35       0.0  T
   2    -26.7173023 -0.839167E-06  0.803E-03    4.35       2.9  T
   3    -26.7173025 -0.224805E-06  0.479E-03    4.35       4.8  T
   4    -26.7173026 -0.443407E-07  0.109E-03    4.35      21.0  T
   5    -26.7173026 -0.492234E-08  0.421E-04    4.35      54.5  T
   6    -26.7173026 -0.190408E-08  0.165E-04    4.35     138.8  T
     SCC iter.                  ...        0 min,  0.001 sec
     gradient                   ...        0 min,  0.003 sec
 * total energy  :   -26.2977331 Eh     change       -0.1401815E-04 Eh
   gradient norm :     0.0015086 Eh/α   predicted    -0.1040291E-04 ( -25.79%)
   displ. norm   :     0.0159860 α      lambda       -0.4156646E-05
   maximum displ.:     0.0097202 α      in ANC's #7, #14, #5, ...

........................................................................
.............................. CYCLE    5 ..............................
........................................................................

 iter      E             dE          RMSdq      gap      omega  full diag
   1    -26.7165337 -0.267165E+02  0.118E-02    4.35       0.0  T
   2    -26.7165343 -0.598706E-06  0.712E-03    4.35       3.2  T
   3    -26.7165345 -0.166598E-06  0.418E-03    4.35       5.5  T
   4    -26.7165345 -0.271167E-07  0.914E-04    4.35      25.1  T
   5    -26.7165345 -0.423407E-08  0.344E-04    4.35      66.8  T
     SCC iter.                  ...        0 min,  0.001 sec
     gradient                   ...        0 min,  0.003 sec
 * total energy  :   -26.2977364 Eh     change       -0.3292286E-05 Eh
   gradient norm :     0.0009003 Eh/α   predicted    -0.3197431E-05 (  -2.88%)
   displ. norm   :     0.0043079 α      lambda       -0.7616304E-06
   maximum displ.:     0.0024827 α      in ANC's #7, #5, #2, ...

........................................................................
.............................. CYCLE    6 ..............................
........................................................................

 iter      E             dE          RMSdq      gap      omega  full diag
   1    -26.7166788 -0.267167E+02  0.350E-03    4.35       0.0  T
   2    -26.7166788 -0.543279E-07  0.208E-03    4.35      11.0  T
   3    -26.7166788 -0.139103E-07  0.122E-03    4.35      18.9  T
   4    -26.7166788 -0.242187E-08  0.294E-04    4.35      77.9  T
   5    -26.7166788 -0.333678E-09  0.108E-04    4.35     212.9  T
     SCC iter.                  ...        0 min,  0.001 sec
     gradient                   ...        0 min,  0.003 sec
 * total energy  :   -26.2977371 Eh     change       -0.7393348E-06 Eh
   gradient norm :     0.0001444 Eh/α   predicted    -0.4280901E-06 ( -42.10%)
   displ. norm   :     0.0056884 α      lambda       -0.2043447E-06
   maximum displ.:     0.0044034 α      in ANC's #5, #3, #1, ...

........................................................................
.............................. CYCLE    7 ..............................
........................................................................

 iter      E             dE          RMSdq      gap      omega  full diag
   1    -26.7167390 -0.267167E+02  0.161E-03    4.35       0.0  T
   2    -26.7167390 -0.194127E-08  0.969E-04    4.35      23.7  T
   3    -26.7167390  0.944276E-09  0.429E-04    4.35      53.4  T
     SCC iter.                  ...        0 min,  0.001 sec
     gradient                   ...        0 min,  0.003 sec
 * total energy  :   -26.2977374 Eh     change       -0.2672876E-06 Eh
   gradient norm :     0.0001116 Eh/α   predicted    -0.1023384E-06 ( -61.71%)
   displ. norm   :     0.0298887 α      lambda       -0.8855869E-06
   maximum displ.:     0.0228945 α      in ANC's #5, #3, #1, ...

........................................................................
.............................. CYCLE    8 ..............................
........................................................................

 iter      E             dE          RMSdq      gap      omega  full diag
   1    -26.7168671 -0.267169E+02  0.765E-03    4.35       0.0  T
   2    -26.7168671 -0.162915E-07  0.462E-03    4.35       5.0  T
   3    -26.7168671  0.164142E-07  0.135E-03    4.35      17.1  T
   4    -26.7168672 -0.206778E-07  0.202E-04    4.35     113.9  T
   5    -26.7168672 -0.218460E-09  0.800E-05    4.35     286.6  T
     SCC iter.                  ...        0 min,  0.001 sec
     gradient                   ...        0 min,  0.003 sec
 * total energy  :   -26.2977386 Eh     change       -0.1253023E-05 Eh
   gradient norm :     0.0007221 Eh/α   predicted    -0.4457199E-06 ( -64.43%)
   displ. norm   :     0.5865618 α      lambda       -0.1695542E-04
   maximum displ.:     0.4507487 α      in ANC's #5, #3, #1, ...

........................................................................
.............................. CYCLE    9 ..............................
........................................................................

 iter      E             dE          RMSdq      gap      omega  full diag
   1    -26.7131396 -0.267131E+02  0.153E-01    4.36       0.0  T
   2    -26.7131521 -0.124986E-04  0.907E-02    4.35       1.0  T
   3    -26.7131486  0.354688E-05  0.245E-02    4.35       1.0  T
   4    -26.7131534 -0.486289E-05  0.617E-03    4.35       3.7  T
   5    -26.7131538 -0.323242E-06  0.202E-03    4.35      11.4  T
   6    -26.7131538 -0.587785E-08  0.103E-03    4.35      22.2  T
   7    -26.7131538 -0.335169E-08  0.349E-04    4.35      65.7  T
   8    -26.7131538 -0.664592E-09  0.119E-04    4.35     193.3  T
     SCC iter.                  ...        0 min,  0.002 sec
     gradient                   ...        0 min,  0.003 sec
 * total energy  :   -26.2975142 Eh     change        0.2244449E-03 Eh
   gradient norm :     0.0190258 Eh/α   predicted    -0.9790301E-05 (-104.36%)
   displ. norm   :     0.3073096 α      lambda       -0.5430123E-03
   maximum displ.:     0.2378466 α      in ANC's #5, #3, #1, ...

........................................................................
.............................. CYCLE   10 ..............................
........................................................................

 iter      E             dE          RMSdq      gap      omega  full diag
   1    -26.7170946 -0.267171E+02  0.871E-02    4.35       0.0  T
   2    -26.7171003 -0.573787E-05  0.510E-02    4.35       1.0  T
   3    -26.7170995  0.831407E-06  0.145E-02    4.35       1.6  T
   4    -26.7171007 -0.124375E-05  0.421E-03    4.35       5.4  T
   5    -26.7171009 -0.162872E-06  0.129E-03    4.35      17.8  T
   6    -26.7171009 -0.223863E-08  0.622E-04    4.35      36.9  T
   7    -26.7171009 -0.101407E-08  0.218E-04    4.35     105.2  T
     SCC iter.                  ...        0 min,  0.002 sec
     gradient                   ...        0 min,  0.003 sec
 * total energy  :   -26.2977482 Eh     change       -0.2339845E-03 Eh
   gradient norm :     0.0062468 Eh/α   predicted    -0.2960916E-03 (  26.54%)
   displ. norm   :     0.0106087 α      lambda       -0.2161590E-04
   maximum displ.:     0.0059781 α      in ANC's #5, #2, #3, ...

........................................................................
.............................. CYCLE   11 ..............................
........................................................................

 iter      E             dE          RMSdq      gap      omega  full diag
   1    -26.7174938 -0.267175E+02  0.474E-03    4.35       0.0  T
   2    -26.7174939 -0.432759E-07  0.257E-03    4.35       8.9  T
   3    -26.7174939 -0.228447E-09  0.101E-03    4.35      22.8  T
   4    -26.7174939 -0.170146E-08  0.333E-04    4.35      69.0  T
   5    -26.7174939 -0.962647E-09  0.112E-04    4.35     204.0  T
     SCC iter.                  ...        0 min,  0.001 sec
     gradient                   ...        0 min,  0.003 sec
 * total energy  :   -26.2977585 Eh     change       -0.1031484E-04 Eh
   gradient norm :     0.0054918 Eh/α   predicted    -0.5915414E-05 ( -42.65%)
   displ. norm   :     0.0856789 α      lambda       -0.1251966E-03
   maximum displ.:     0.0596982 α      in ANC's #5, #3, #6, ...

........................................................................
.............................. CYCLE   12 ..............................
........................................................................

 iter      E             dE          RMSdq      gap      omega  full diag
   1    -26.7184773 -0.267185E+02  0.235E-02    4.35       0.0  T
   2    -26.7184777 -0.382576E-06  0.137E-02    4.35       1.7  T
   3    -26.7184777  0.382003E-07  0.341E-03    4.35       6.7  T
   4    -26.7184777 -0.579484E-07  0.104E-03    4.35      22.1  T
   5    -26.7184777 -0.113617E-07  0.327E-04    4.35      70.1  T
   6    -26.7184777 -0.142954E-09  0.147E-04    4.35     155.9  T
     SCC iter.                  ...        0 min,  0.001 sec
     gradient                   ...        0 min,  0.003 sec
 * total energy  :   -26.2977926 Eh     change       -0.3416314E-04 Eh
   gradient norm :     0.0041070 Eh/α   predicted    -0.2247603E-04 ( -34.21%)
   displ. norm   :     0.2846896 α      lambda       -0.3679344E-03
   maximum displ.:     0.2045455 α      in ANC's #5, #3, #6, ...

........................................................................
.............................. CYCLE   13 ..............................
........................................................................

 iter      E             dE          RMSdq      gap      omega  full diag
   1    -26.7184897 -0.267185E+02  0.694E-02    4.35       0.0  T
   2    -26.7184901 -0.429188E-06  0.417E-02    4.35       1.0  T
   3    -26.7184899  0.196701E-06  0.475E-03    4.35       4.8  T
   4    -26.7184902 -0.287366E-06  0.121E-03    4.35      19.0  T
   5    -26.7184902 -0.975873E-08  0.561E-04    4.35      40.9  T
   6    -26.7184902 -0.118316E-09  0.233E-04    4.35      98.3  T
     SCC iter.                  ...        0 min,  0.001 sec
     gradient                   ...        0 min,  0.003 sec
 * total energy  :   -26.2979187 Eh     change       -0.1260713E-03 Eh
   gradient norm :     0.0036743 Eh/α   predicted    -0.5761833E-04 ( -54.30%)
   displ. norm   :     0.4234613 α      lambda       -0.1256784E-02
   maximum displ.:     0.3077389 α      in ANC's #5, #3, #1, ...

........................................................................
.............................. CYCLE   14 ..............................
........................................................................

 iter      E             dE          RMSdq      gap      omega  full diag
   1    -26.7137965 -0.267138E+02  0.107E-01    4.34       0.0  T
   2    -26.7137992 -0.271550E-05  0.635E-02    4.34       1.0  T
   3    -26.7137993 -0.910223E-07  0.700E-03    4.34       3.3  T
   4    -26.7137996 -0.273675E-06  0.299E-03    4.35       7.7  T
   5    -26.7137996 -0.554652E-07  0.145E-03    4.35      15.8  T
   6    -26.7137996 -0.284572E-08  0.405E-04    4.35      56.7  T
   7    -26.7137996 -0.650772E-09  0.181E-04    4.35     127.0  T
     SCC iter.                  ...        0 min,  0.002 sec
     gradient                   ...        0 min,  0.003 sec
 * total energy  :   -26.2981311 Eh     change       -0.2124365E-03 Eh
   gradient norm :     0.0084875 Eh/α   predicted    -0.1752383E-03 ( -17.51%)
   displ. norm   :     0.2905282 α      lambda       -0.6673539E-03
   maximum displ.:     0.2213485 α      in ANC's #5, #3, #6, ...

........................................................................
.............................. CYCLE   15 ..............................
........................................................................

 iter      E             dE          RMSdq      gap      omega  full diag
   1    -26.7090167 -0.267090E+02  0.803E-02    4.34       0.0  T
   2    -26.7090195 -0.283618E-05  0.471E-02    4.34       1.0  T
   3    -26.7090193  0.201715E-06  0.948E-03    4.34       2.4  T
   4    -26.7090198 -0.537343E-06  0.346E-03    4.34       6.6  T
   5    -26.7090199 -0.786713E-07  0.145E-03    4.34      15.8  T
   6    -26.7090199 -0.675335E-09  0.397E-04    4.34      57.7  T
   7    -26.7090199 -0.107738E-08  0.169E-04    4.34     135.8  T
     SCC iter.                  ...        0 min,  0.002 sec
     gradient                   ...        0 min,  0.003 sec
 * total energy  :   -26.2980980 Eh     change        0.3314072E-04 Eh
   gradient norm :     0.0163017 Eh/α   predicted    -0.7374376E-04 (-322.52%)
   displ. norm   :     0.0639430 α      lambda       -0.1403302E-02
   maximum displ.:     0.0424528 α      in ANC's #5, #3, #1, ...

........................................................................
.............................. CYCLE   16 ..............................
........................................................................

 iter      E             dE          RMSdq      gap      omega  full diag
   1    -26.7127313 -0.267127E+02  0.434E-02    4.34       0.0  T
   2    -26.7127345 -0.326070E-05  0.238E-02    4.34       1.0  T
   3    -26.7127346 -0.248362E-07  0.870E-03    4.34       2.6  T
   4    -26.7127347 -0.152735E-06  0.303E-03    4.34       7.6  T
   5    -26.7127348 -0.730835E-07  0.103E-03    4.34      22.3  T
   6    -26.7127348 -0.125727E-08  0.439E-04    4.34      52.3  T
   7    -26.7127348 -0.253507E-09  0.147E-04    4.34     156.4  T
     SCC iter.                  ...        0 min,  0.002 sec
     gradient                   ...        0 min,  0.003 sec
 * total energy  :   -26.2983016 Eh     change       -0.2035665E-03 Eh
   gradient norm :     0.0090527 Eh/α   predicted    -0.1833155E-03 (  -9.95%)
   displ. norm   :     0.1170929 α      lambda       -0.1262849E-02
   maximum displ.:     0.0840492 α      in ANC's #4, #3, #6, ...

........................................................................
.............................. CYCLE   17 ..............................
........................................................................

 iter      E             dE          RMSdq      gap      omega  full diag
   1    -26.7141458 -0.267141E+02  0.526E-02    4.33       0.0  T
   2    -26.7141497 -0.385361E-05  0.293E-02    4.34       1.0  T
   3    -26.7141497 -0.507920E-07  0.920E-03    4.34       2.5  T
   4    -26.7141499 -0.136236E-06  0.291E-03    4.34       7.9  T
   5    -26.7141499 -0.723467E-07  0.133E-03    4.34      17.2  T
   6    -26.7141500 -0.206175E-08  0.328E-04    4.34      70.0  T
   7    -26.7141500 -0.537316E-09  0.115E-04    4.34     199.9  T
     SCC iter.                  ...        0 min,  0.002 sec
     gradient                   ...        0 min,  0.003 sec
 * total energy  :   -26.2984089 Eh     change       -0.1072902E-03 Eh
   gradient norm :     0.0089378 Eh/α   predicted    -0.1431665E-03 (  33.44%)
   displ. norm   :     0.1240516 α      lambda       -0.7984866E-03
   maximum displ.:     0.0832704 α      in ANC's #5, #3, #2, ...

........................................................................
.............................. CYCLE   18 ..............................
........................................................................

 iter      E             dE          RMSdq      gap      omega  full diag
   1    -26.7144438 -0.267144E+02  0.308E-02    4.33       0.0  T
   2    -26.7144440 -0.236428E-06  0.183E-02    4.33       1.3  T
   3    -26.7144440  0.745631E-07  0.341E-03    4.33       6.7  T
   4    -26.7144441 -0.108809E-06  0.101E-03    4.33      22.7  T
   5    -26.7144441 -0.677194E-08  0.391E-04    4.33      58.6  T
   6    -26.7144441  0.152447E-10  0.138E-04    4.33     166.1  T
     SCC iter.                  ...        0 min,  0.001 sec
     gradient                   ...        0 min,  0.003 sec
 * total energy  :   -26.2985456 Eh     change       -0.1367198E-03 Eh
   gradient norm :     0.0086960 Eh/α   predicted    -0.7766754E-04 ( -43.19%)
   displ. norm   :     0.3293344 α      lambda       -0.3293175E-02
   maximum displ.:     0.2160773 α      in ANC's #5, #3, #6, ...

........................................................................
.............................. CYCLE   19 ..............................
........................................................................

 iter      E             dE          RMSdq      gap      omega  full diag
   1    -26.7136377 -0.267136E+02  0.794E-02    4.34       0.0  T
   2    -26.7136386 -0.891788E-06  0.475E-02    4.33       1.0  T
   3    -26.7136387 -0.107239E-06  0.337E-03    4.33       6.8  T
   4    -26.7136388 -0.518320E-07  0.155E-03    4.33      14.8  T
   5    -26.7136388 -0.846656E-08  0.877E-04    4.33      26.2  T
   6    -26.7136388 -0.168510E-08  0.227E-04    4.33     101.2  T
     SCC iter.                  ...        0 min,  0.001 sec
     gradient                   ...        0 min,  0.003 sec
 * total energy  :   -26.2988755 Eh     change       -0.3298749E-03 Eh
   gradient norm :     0.0095136 Eh/α   predicted    -0.3089895E-03 (  -6.33%)
   displ. norm   :     0.4133765 α      lambda       -0.4694414E-02
   maximum displ.:     0.2431714 α      in ANC's #5, #3, #6, ...

........................................................................
.............................. CYCLE   20 ..............................
........................................................................

 iter      E             dE          RMSdq      gap      omega  full diag
   1    -26.7125929 -0.267126E+02  0.993E-02    4.34       0.0  T
   2    -26.7125955 -0.253029E-05  0.595E-02    4.33       1.0  T
   3    -26.7125947  0.804048E-06  0.108E-02    4.33       2.1  T
   4    -26.7125958 -0.117277E-05  0.292E-03    4.33       7.9  T
   5    -26.7125959 -0.628278E-07  0.113E-03    4.33      20.4  T
   6    -26.7125959 -0.154247E-08  0.572E-04    4.33      40.1  T
   7    -26.7125959 -0.124483E-08  0.188E-04    4.33     122.3  T
     SCC iter.                  ...        0 min,  0.002 sec
     gradient                   ...        0 min,  0.003 sec
 * total energy  :   -26.2992405 Eh     change       -0.3650843E-03 Eh
   gradient norm :     0.0129271 Eh/α   predicted    -0.3619859E-03 (  -0.85%)
   displ. norm   :     0.3905808 α      lambda       -0.7180782E-02
   maximum displ.:     0.1964918 α      in ANC's #3, #5, #6, ...
 * RMSD in coord.:     0.5965211 α      energy gain  -0.2684617E-02 Eh

generating ANC from exact Hessian ...
Using Lindh-Hessian (1995)
 Shifting diagonal of input Hessian by   7.266133559616434E-003
 Lowest  eigenvalues of input Hessian
    0.000000    0.000000    0.000000    0.000000    0.000000    0.000000
    0.010000    0.014761    0.015653    0.016236    0.017736    0.019413
    0.025445    0.029268    0.044765    0.046408    0.048159    0.054783
 Highest eigenvalues
    1.499164    1.644936    1.726333    1.891458    2.036298    2.078892
 

........................................................................
.............................. CYCLE   21 ..............................
........................................................................

 iter      E             dE          RMSdq      gap      omega  full diag
   1    -26.7195178 -0.267195E+02  0.109E-01    4.35       0.0  T
   2    -26.7195273 -0.946781E-05  0.652E-02    4.34       1.0  T
   3    -26.7195235  0.381404E-05  0.287E-02    4.34       1.0  T
   4    -26.7195298 -0.630272E-05  0.528E-03    4.34       4.3  T
   5    -26.7195299 -0.127337E-06  0.200E-03    4.34      11.5  T
   6    -26.7195300 -0.222581E-07  0.101E-03    4.34      22.8  T
   7    -26.7195300 -0.372950E-08  0.462E-04    4.34      49.7  T
   8    -26.7195300 -0.634071E-09  0.204E-04    4.34     112.3  T
     SCC iter.                  ...        0 min,  0.002 sec
     gradient                   ...        0 min,  0.003 sec
 * total energy  :   -26.2996530 Eh     change       -0.4124397E-03 Eh
   gradient norm :     0.0155354 Eh/α   predicted     0.0000000E+00 (-100.00%)
   displ. norm   :     0.0847841 α      lambda       -0.4148903E-03
   maximum displ.:     0.0445370 α      in ANC's #4, #2, #6, ...

........................................................................
.............................. CYCLE   22 ..............................
........................................................................

 iter      E             dE          RMSdq      gap      omega  full diag
   1    -26.7190017 -0.267190E+02  0.450E-02    4.33       0.0  T
   2    -26.7190041 -0.245324E-05  0.267E-02    4.33       1.0  T
   3    -26.7190037  0.450543E-06  0.107E-02    4.33       2.1  T
   4    -26.7190045 -0.797338E-06  0.261E-03    4.33       8.8  T
   5    -26.7190045 -0.453416E-07  0.975E-04    4.33      23.5  T
   6    -26.7190045 -0.238470E-08  0.553E-04    4.33      41.5  T
     SCC iter.                  ...        0 min,  0.001 sec
     gradient                   ...        0 min,  0.003 sec
 * total energy  :   -26.2999461 Eh     change       -0.2930971E-03 Eh
   gradient norm :     0.0064142 Eh/α   predicted    -0.2089373E-03 ( -28.71%)
   displ. norm   :     0.1329986 α      lambda       -0.2390865E-03
   maximum displ.:     0.0870939 α      in ANC's #4, #2, #6, ...

........................................................................
.............................. CYCLE   23 ..............................
........................................................................

 iter      E             dE          RMSdq      gap      omega  full diag
   1    -26.7184087 -0.267184E+02  0.429E-02    4.33       0.0  T
   2    -26.7184105 -0.184234E-05  0.255E-02    4.33       1.0  T
   3    -26.7184100  0.567344E-06  0.117E-02    4.33       2.0  T
   4    -26.7184110 -0.978913E-06  0.222E-03    4.33      10.3  T
   5    -26.7184110 -0.265766E-07  0.864E-04    4.33      26.6  T
   6    -26.7184110 -0.289961E-08  0.508E-04    4.33      45.2  T
     SCC iter.                  ...        0 min,  0.001 sec
     gradient                   ...        0 min,  0.003 sec
 * total energy  :   -26.3001152 Eh     change       -0.1691724E-03 Eh
   gradient norm :     0.0030554 Eh/α   predicted    -0.1216874E-03 ( -28.07%)
   displ. norm   :     0.1989571 α      lambda       -0.1955875E-03
   maximum displ.:     0.1395112 α      in ANC's #4, #2, #6, ...

........................................................................
.............................. CYCLE   24 ..............................
........................................................................

 iter      E             dE          RMSdq      gap      omega  full diag
   1    -26.7174283 -0.267174E+02  0.529E-02    4.33       0.0  T
   2    -26.7174293 -0.950114E-06  0.317E-02    4.33       1.0  T
   3    -26.7174284  0.888305E-06  0.107E-02    4.33       2.1  T
   4    -26.7174296 -0.118243E-05  0.171E-03    4.33      13.4  T
   5    -26.7174296 -0.122455E-07  0.748E-04    4.33      30.7  T
   6    -26.7174296 -0.151019E-08  0.387E-04    4.33      59.2  T
     SCC iter.                  ...        0 min,  0.001 sec
     gradient                   ...        0 min,  0.003 sec
 * total energy  :   -26.3002687 Eh     change       -0.1534815E-03 Eh
   gradient norm :     0.0072083 Eh/α   predicted    -0.1017169E-03 ( -33.73%)
   displ. norm   :     0.3551700 α      lambda       -0.2951308E-03
   maximum displ.:     0.2568812 α      in ANC's #4, #2, #6, ...

........................................................................
.............................. CYCLE   25 ..............................
........................................................................

 iter      E             dE          RMSdq      gap      omega  full diag
   1    -26.7147536 -0.267148E+02  0.917E-02    4.33       0.0  T
   2    -26.7147556 -0.196786E-05  0.546E-02    4.33       1.0  T
   3    -26.7147548  0.755202E-06  0.105E-02    4.33       2.2  T
   4    -26.7147559 -0.112451E-05  0.288E-03    4.33       8.0  T
   5    -26.7147560 -0.499569E-07  0.124E-03    4.33      18.4  T
   6    -26.7147560 -0.979721E-09  0.401E-04    4.33      57.2  T
   7    -26.7147560 -0.951701E-09  0.189E-04    4.33     121.3  T
     SCC iter.                  ...        0 min,  0.002 sec
     gradient                   ...        0 min,  0.003 sec
 * total energy  :   -26.3004333 Eh     change       -0.1645462E-03 Eh
   gradient norm :     0.0121752 Eh/α   predicted    -0.1661885E-03 (   1.00%)
   displ. norm   :     0.0857930 α      lambda       -0.2023791E-03
   maximum displ.:     0.0603555 α      in ANC's #4, #2, #6, ...

........................................................................
.............................. CYCLE   26 ..............................
........................................................................

 iter      E             dE          RMSdq      gap      omega  full diag
   1    -26.7171063 -0.267171E+02  0.296E-02    4.34       0.0  T
   2    -26.7171070 -0.715590E-06  0.172E-02    4.34       1.3  T
   3    -26.7171069  0.136598E-06  0.584E-03    4.34       3.9  T
   4    -26.7171071 -0.246947E-06  0.148E-03    4.34      15.5  T
   5    -26.7171071 -0.123588E-07  0.641E-04    4.34      35.8  T
   6    -26.7171071 -0.463796E-09  0.284E-04    4.34      80.8  T
     SCC iter.                  ...        0 min,  0.001 sec
     gradient                   ...        0 min,  0.003 sec
 * total energy  :   -26.3005967 Eh     change       -0.1633842E-03 Eh
   gradient norm :     0.0081371 Eh/α   predicted    -0.1019357E-03 ( -37.61%)
   displ. norm   :     0.2822159 α      lambda       -0.3315476E-03
   maximum displ.:     0.1978299 α      in ANC's #4, #2, #6, ...

........................................................................
.............................. CYCLE   27 ..............................
........................................................................

 iter      E             dE          RMSdq      gap      omega  full diag
   1    -26.7189019 -0.267189E+02  0.751E-02    4.34       0.0  T
   2    -26.7189040 -0.213185E-05  0.451E-02    4.34       1.0  T
   3    -26.7189023  0.175751E-05  0.149E-02    4.34       1.5  T
   4    -26.7189046 -0.235257E-05  0.242E-03    4.34       9.5  T
   5    -26.7189046 -0.262074E-07  0.103E-03    4.34      22.4  T
   6    -26.7189046 -0.657069E-08  0.538E-04    4.34      42.6  T
   7    -26.7189046 -0.831452E-09  0.184E-04    4.34     124.6  T
     SCC iter.                  ...        0 min,  0.001 sec
     gradient                   ...        0 min,  0.003 sec
 * total energy  :   -26.3008120 Eh     change       -0.2153569E-03 Eh
   gradient norm :     0.0061417 Eh/α   predicted    -0.1789776E-03 ( -16.89%)
   displ. norm   :     0.1070401 α      lambda       -0.1400744E-03
   maximum displ.:     0.0583384 α      in ANC's #4, #2, #6, ...

........................................................................
.............................. CYCLE   28 ..............................
........................................................................

 iter      E             dE          RMSdq      gap      omega  full diag
   1    -26.7213611 -0.267214E+02  0.412E-02    4.34       0.0  T
   2    -26.7213623 -0.114436E-05  0.239E-02    4.34       1.0  T
   3    -26.7213618  0.462743E-06  0.985E-03    4.34       2.3  T
   4    -26.7213626 -0.769874E-06  0.209E-03    4.34      11.0  T
   5    -26.7213626 -0.162988E-07  0.863E-04    4.34      26.6  T
   6    -26.7213626 -0.945750E-09  0.336E-04    4.34      68.2  T
     SCC iter.                  ...        0 min,  0.001 sec
     gradient                   ...        0 min,  0.003 sec
 * total energy  :   -26.3008853 Eh     change       -0.7325902E-04 Eh
   gradient norm :     0.0050598 Eh/α   predicted    -0.7085521E-04 (  -3.28%)
   displ. norm   :     0.3692820 α      lambda       -0.1820113E-03
   maximum displ.:     0.2527459 α      in ANC's #4, #2, #6, ...

........................................................................
.............................. CYCLE   29 ..............................
........................................................................

 iter      E             dE          RMSdq      gap      omega  full diag
   1    -26.7164160 -0.267164E+02  0.101E-01    4.33       0.0  T
   2    -26.7164204 -0.441394E-05  0.594E-02    4.33       1.0  T
   3    -26.7164202  0.256846E-06  0.106E-02    4.33       2.2  T
   4    -26.7164207 -0.550944E-06  0.372E-03    4.33       6.2  T
   5    -26.7164208 -0.121989E-06  0.139E-03    4.33      16.5  T
   6    -26.7164208 -0.185818E-08  0.481E-04    4.33      47.7  T
   7    -26.7164208 -0.166562E-09  0.130E-04    4.33     176.1  T
     SCC iter.                  ...        0 min,  0.002 sec
     gradient                   ...        0 min,  0.003 sec
 * total energy  :   -26.3008978 Eh     change       -0.1254580E-04 Eh
   gradient norm :     0.0118594 Eh/α   predicted    -0.1034266E-03 ( 724.39%)
   displ. norm   :     0.1499701 α      lambda       -0.2120059E-03
   maximum displ.:     0.1058385 α      in ANC's #4, #2, #6, ...

........................................................................
.............................. CYCLE   30 ..............................
........................................................................

 iter      E             dE          RMSdq      gap      omega  full diag
   1    -26.7198009 -0.267198E+02  0.487E-02    4.33       0.0  T
   2    -26.7198038 -0.290365E-05  0.279E-02    4.33       1.0  T
   3    -26.7198035  0.271828E-06  0.101E-02    4.33       2.3  T
   4    -26.7198040 -0.485589E-06  0.296E-03    4.33       7.8  T
   5    -26.7198041 -0.717438E-07  0.862E-04    4.33      26.6  T
   6    -26.7198041 -0.863306E-09  0.451E-04    4.33      50.8  T
     SCC iter.                  ...        0 min,  0.001 sec
     gradient                   ...        0 min,  0.003 sec
 * total energy  :   -26.3009924 Eh     change       -0.9459743E-04 Eh
   gradient norm :     0.0036775 Eh/α   predicted    -0.1083872E-03 (  14.58%)
   displ. norm   :     0.0842131 α      lambda       -0.4242689E-04
   maximum displ.:     0.0517199 α      in ANC's #4, #2, #6, ...

........................................................................
.............................. CYCLE   31 ..............................
........................................................................

 iter      E             dE          RMSdq      gap      omega  full diag
   1    -26.7198054 -0.267198E+02  0.224E-02    4.33       0.0  T
   2    -26.7198055 -0.158796E-06  0.135E-02    4.33       1.7  T
   3    -26.7198054  0.136926E-06  0.408E-03    4.33       5.6  T
   4    -26.7198056 -0.176379E-06  0.602E-04    4.33      38.1  T
   5    -26.7198056 -0.194801E-08  0.290E-04    4.33      79.2  T
     SCC iter.                  ...        0 min,  0.001 sec
     gradient                   ...        0 min,  0.003 sec
 * total energy  :   -26.3010276 Eh     change       -0.3515588E-04 Eh
   gradient norm :     0.0019804 Eh/α   predicted    -0.2137541E-04 ( -39.20%)
   displ. norm   :     0.4316289 α      lambda       -0.9801360E-04
   maximum displ.:     0.2797184 α      in ANC's #4, #2, #6, ...

........................................................................
.............................. CYCLE   32 ..............................
........................................................................

 iter      E             dE          RMSdq      gap      omega  full diag
   1    -26.7160168 -0.267160E+02  0.114E-01    4.33       0.0  T
   2    -26.7160196 -0.278345E-05  0.678E-02    4.33       1.0  T
   3    -26.7160183  0.128266E-05  0.135E-02    4.33       1.7  T
   4    -26.7160202 -0.188348E-05  0.337E-03    4.33       6.8  T
   5    -26.7160203 -0.534268E-07  0.155E-03    4.33      14.8  T
   6    -26.7160203 -0.102374E-08  0.573E-04    4.33      40.0  T
   7    -26.7160203 -0.252702E-08  0.215E-04    4.33     106.8  T
     SCC iter.                  ...        0 min,  0.001 sec
     gradient                   ...        0 min,  0.003 sec
 * total energy  :   -26.3010032 Eh     change        0.2433558E-04 Eh
   gradient norm :     0.0087753 Eh/α   predicted    -0.5306706E-04 (-318.06%)
   displ. norm   :     0.1333443 α      lambda       -0.1668238E-03
   maximum displ.:     0.0888648 α      in ANC's #4, #2, #6, ...

........................................................................
.............................. CYCLE   33 ..............................
........................................................................

 iter      E             dE          RMSdq      gap      omega  full diag
   1    -26.7193162 -0.267193E+02  0.438E-02    4.34       0.0  T
   2    -26.7193175 -0.138098E-05  0.252E-02    4.34       1.0  T
   3    -26.7193176 -0.580706E-07  0.532E-03    4.34       4.3  T
   4    -26.7193177 -0.492261E-07  0.162E-03    4.33      14.2  T
   5    -26.7193177 -0.132920E-07  0.805E-04    4.34      28.5  T
   6    -26.7193177 -0.115166E-08  0.249E-04    4.34      92.0  T
     SCC iter.                  ...        0 min,  0.001 sec
     gradient                   ...        0 min,  0.003 sec
 * total energy  :   -26.3010901 Eh     change       -0.8689045E-04 Eh
   gradient norm :     0.0029440 Eh/α   predicted    -0.8489801E-04 (  -2.29%)
   displ. norm   :     0.0267839 α      lambda       -0.1606052E-04
   maximum displ.:     0.0174261 α      in ANC's #4, #2, #30, ...

........................................................................
.............................. CYCLE   34 ..............................
........................................................................

 iter      E             dE          RMSdq      gap      omega  full diag
   1    -26.7199160 -0.267199E+02  0.958E-03    4.34       0.0  T
   2    -26.7199161 -0.642597E-07  0.562E-03    4.34       4.1  T
   3    -26.7199161  0.275849E-07  0.241E-03    4.34       9.5  T
   4    -26.7199161 -0.471621E-07  0.460E-04    4.34      49.9  T
   5    -26.7199161 -0.768960E-09  0.210E-04    4.34     109.5  T
     SCC iter.                  ...        0 min,  0.001 sec
     gradient                   ...        0 min,  0.003 sec
 * total energy  :   -26.3011025 Eh     change       -0.1240664E-04 Eh
   gradient norm :     0.0015004 Eh/α   predicted    -0.8042034E-05 ( -35.18%)
   displ. norm   :     0.1218174 α      lambda       -0.2371646E-04
   maximum displ.:     0.0791416 α      in ANC's #4, #2, #1, ...

........................................................................
.............................. CYCLE   35 ..............................
........................................................................

 iter      E             dE          RMSdq      gap      omega  full diag
   1    -26.7210667 -0.267211E+02  0.321E-02    4.34       0.0  T
   2    -26.7210670 -0.337027E-06  0.192E-02    4.34       1.2  T
   3    -26.7210667  0.265894E-06  0.585E-03    4.34       3.9  T
   4    -26.7210671 -0.355088E-06  0.950E-04    4.34      24.1  T
   5    -26.7210671 -0.400114E-08  0.465E-04    4.34      49.3  T
     SCC iter.                  ...        0 min,  0.001 sec
     gradient                   ...        0 min,  0.003 sec
 * total energy  :   -26.3011196 Eh     change       -0.1703721E-04 Eh
   gradient norm :     0.0022256 Eh/α   predicted    -0.1193843E-04 ( -29.93%)
   displ. norm   :     0.1156996 α      lambda       -0.1815614E-04
   maximum displ.:     0.0740604 α      in ANC's #4, #2, #6, ...

........................................................................
.............................. CYCLE   36 ..............................
........................................................................

 iter      E             dE          RMSdq      gap      omega  full diag
   1    -26.7203862 -0.267204E+02  0.292E-02    4.34       0.0  T
   2    -26.7203864 -0.184145E-06  0.175E-02    4.34       1.3  T
   3    -26.7203864 -0.377273E-08  0.163E-03    4.34      14.1  T
   4    -26.7203864 -0.157336E-07  0.593E-04    4.34      38.7  T
   5    -26.7203864 -0.221986E-08  0.311E-04    4.34      73.7  T
     SCC iter.                  ...        0 min,  0.001 sec
     gradient                   ...        0 min,  0.003 sec
 * total energy  :   -26.3011290 Eh     change       -0.9414868E-05 Eh
   gradient norm :     0.0021731 Eh/α   predicted    -0.9207232E-05 (  -2.21%)
   displ. norm   :     0.0437339 α      lambda       -0.8743559E-05
   maximum displ.:     0.0257470 α      in ANC's #4, #2, #1, ...

........................................................................
.............................. CYCLE   37 ..............................
........................................................................

 iter      E             dE          RMSdq      gap      omega  full diag
   1    -26.7201961 -0.267202E+02  0.118E-02    4.34       0.0  T
   2    -26.7201962 -0.411360E-07  0.707E-03    4.34       3.2  T
   3    -26.7201961  0.429886E-07  0.226E-03    4.34      10.2  T
   4    -26.7201962 -0.560716E-07  0.356E-04    4.34      64.4  T
   5    -26.7201962 -0.516071E-09  0.157E-04    4.34     146.0  T
     SCC iter.                  ...        0 min,  0.001 sec
     gradient                   ...        0 min,  0.003 sec
 * total energy  :   -26.3011350 Eh     change       -0.6011824E-05 Eh
   gradient norm :     0.0011740 Eh/α   predicted    -0.4380828E-05 ( -27.13%)
   displ. norm   :     0.0476576 α      lambda       -0.4312363E-05
   maximum displ.:     0.0254314 α      in ANC's #4, #2, #1, ...

........................................................................
.............................. CYCLE   38 ..............................
........................................................................

 iter      E             dE          RMSdq      gap      omega  full diag
   1    -26.7203384 -0.267203E+02  0.124E-02    4.34       0.0  T
   2    -26.7203385 -0.519543E-07  0.745E-03    4.34       3.1  T
   3    -26.7203384  0.308944E-07  0.190E-03    4.34      12.1  T
   4    -26.7203385 -0.405596E-07  0.384E-04    4.34      59.8  T
   5    -26.7203385 -0.950148E-09  0.166E-04    4.34     137.8  T
     SCC iter.                  ...        0 min,  0.001 sec
     gradient                   ...        0 min,  0.003 sec
 * total energy  :   -26.3011378 Eh     change       -0.2767340E-05 Eh
   gradient norm :     0.0009891 Eh/α   predicted    -0.2164633E-05 ( -21.78%)
   displ. norm   :     0.0411855 α      lambda       -0.1630616E-05
   maximum displ.:     0.0275317 α      in ANC's #4, #2, #6, ...

........................................................................
.............................. CYCLE   39 ..............................
........................................................................

 iter      E             dE          RMSdq      gap      omega  full diag
   1    -26.7201728 -0.267202E+02  0.104E-02    4.34       0.0  T
   2    -26.7201728 -0.187757E-07  0.625E-03    4.34       3.7  T
   3    -26.7201728  0.111095E-07  0.114E-03    4.34      20.2  T
   4    -26.7201728 -0.146645E-07  0.252E-04    4.34      91.2  T
   5    -26.7201728 -0.402512E-09  0.996E-05    4.34     230.2  T
     SCC iter.                  ...        0 min,  0.001 sec
     gradient                   ...        0 min,  0.003 sec
 * total energy  :   -26.3011391 Eh     change       -0.1324658E-05 Eh
   gradient norm :     0.0007179 Eh/α   predicted    -0.8195666E-06 ( -38.13%)
   displ. norm   :     0.0102436 α      lambda       -0.1842206E-05
   maximum displ.:     0.0053630 α      in ANC's #3, #5, #6, ...

........................................................................
.............................. CYCLE   40 ..............................
........................................................................

 iter      E             dE          RMSdq      gap      omega  full diag
   1    -26.7206154 -0.267206E+02  0.513E-03    4.34       0.0  T
   2    -26.7206154 -0.245331E-07  0.296E-03    4.34       7.7  T
   3    -26.7206154  0.603012E-08  0.130E-03    4.34      17.7  T
   4    -26.7206154 -0.124959E-07  0.314E-04    4.34      73.1  T
   5    -26.7206154 -0.371319E-09  0.134E-04    4.34     171.6  T
     SCC iter.                  ...        0 min,  0.001 sec
     gradient                   ...        0 min,  0.003 sec
 * total energy  :   -26.3011403 Eh     change       -0.1233737E-05 Eh
   gradient norm :     0.0007917 Eh/α   predicted    -0.9257693E-06 ( -24.96%)
   displ. norm   :     0.0233433 α      lambda       -0.1065451E-05
   maximum displ.:     0.0144018 α      in ANC's #4, #2, #3, ...

........................................................................
.............................. CYCLE   41 ..............................
........................................................................

 iter      E             dE          RMSdq      gap      omega  full diag
   1    -26.7205754 -0.267206E+02  0.588E-03    4.34       0.0  T
   2    -26.7205754 -0.303525E-08  0.355E-03    4.34       6.5  T
   3    -26.7205754  0.159060E-08  0.474E-04    4.34      48.4  T
   4    -26.7205754 -0.268894E-08  0.126E-04    4.34     182.2  T
     SCC iter.                  ...        0 min,  0.001 sec
     gradient                   ...        0 min,  0.003 sec
 * total energy  :   -26.3011414 Eh     change       -0.1121338E-05 Eh
   gradient norm :     0.0006870 Eh/α   predicted    -0.5348594E-06 ( -52.30%)
   displ. norm   :     0.0486138 α      lambda       -0.2335748E-05
   maximum displ.:     0.0297175 α      in ANC's #4, #3, #2, ...

........................................................................
.............................. CYCLE   42 ..............................
........................................................................

 iter      E             dE          RMSdq      gap      omega  full diag
   1    -26.7204599 -0.267205E+02  0.123E-02    4.34       0.0  T
   2    -26.7204599 -0.269798E-07  0.738E-03    4.34       3.1  T
   3    -26.7204599  0.360555E-07  0.199E-03    4.34      11.5  T
   4    -26.7204600 -0.455635E-07  0.277E-04    4.34      82.7  T
   5    -26.7204600 -0.270095E-09  0.128E-04    4.34     178.7  T
     SCC iter.                  ...        0 min,  0.001 sec
     gradient                   ...        0 min,  0.003 sec
 * total energy  :   -26.3011438 Eh     change       -0.2390227E-05 Eh
   gradient norm :     0.0006300 Eh/α   predicted    -0.1173703E-05 ( -50.90%)
   displ. norm   :     0.0309289 α      lambda       -0.2493241E-05
   maximum displ.:     0.0247716 α      in ANC's #3, #4, #35, ...
 * RMSD in coord.:     0.5055774 α      energy gain  -0.1903299E-02 Eh

generating ANC from exact Hessian ...
Using Lindh-Hessian (1995)
 Shifting diagonal of input Hessian by   7.334354081041177E-003
 Lowest  eigenvalues of input Hessian
    0.000000    0.000000    0.000000    0.000000    0.000000    0.000000
    0.010000    0.014788    0.016118    0.016376    0.017470    0.019442
    0.025286    0.028944    0.044779    0.045564    0.047771    0.054592
 Highest eigenvalues
    1.493286    1.633762    1.724715    1.888015    2.024976    2.073756
 

........................................................................
.............................. CYCLE   43 ..............................
........................................................................

 iter      E             dE          RMSdq      gap      omega  full diag
   1    -26.7204949 -0.267205E+02  0.800E-03    4.34       0.0  T
   2    -26.7204949 -0.144125E-07  0.480E-03    4.34       4.8  T
   3    -26.7204949  0.126321E-07  0.120E-03    4.34      19.1  T
   4    -26.7204949 -0.162599E-07  0.191E-04    4.34     119.8  T
   5    -26.7204949 -0.191555E-09  0.871E-05    4.34     263.4  T
     SCC iter.                  ...        0 min,  0.001 sec
     gradient                   ...        0 min,  0.003 sec
 * total energy  :   -26.3011467 Eh     change       -0.2862379E-05 Eh
   gradient norm :     0.0007038 Eh/α   predicted     0.0000000E+00 (-100.00%)
   displ. norm   :     0.0092201 α      lambda       -0.1054539E-05
   maximum displ.:     0.0055830 α      in ANC's #3, #1, #6, ...

........................................................................
.............................. CYCLE   44 ..............................
........................................................................

 iter      E             dE          RMSdq      gap      omega  full diag
   1    -26.7203808 -0.267204E+02  0.365E-03    4.34       0.0  T
   2    -26.7203808 -0.201216E-07  0.213E-03    4.34      10.8  T
   3    -26.7203808  0.187525E-08  0.112E-03    4.34      20.6  T
   4    -26.7203808 -0.663550E-08  0.212E-04    4.34     108.4  T
   5    -26.7203808 -0.214037E-09  0.757E-05    4.34     303.0  T
     SCC iter.                  ...        0 min,  0.001 sec
     gradient                   ...        0 min,  0.003 sec
 * total energy  :   -26.3011480 Eh     change       -0.1263511E-05 Eh
   gradient norm :     0.0002222 Eh/α   predicted    -0.5916963E-06 ( -53.17%)
   displ. norm   :     0.0200080 α      lambda       -0.1245348E-05
   maximum displ.:     0.0125106 α      in ANC's #3, #6, #4, ...

........................................................................
.............................. CYCLE   45 ..............................
........................................................................

 iter      E             dE          RMSdq      gap      omega  full diag
   1    -26.7203399 -0.267203E+02  0.555E-03    4.34       0.0  T
   2    -26.7203400 -0.243668E-07  0.331E-03    4.34       6.9  T
   3    -26.7203400  0.103736E-07  0.157E-03    4.34      14.6  T
   4    -26.7203400 -0.176716E-07  0.211E-04    4.34     108.5  T
   5    -26.7203400 -0.235168E-09  0.891E-05    4.34     257.4  T
     SCC iter.                  ...        0 min,  0.001 sec
     gradient                   ...        0 min,  0.003 sec
 * total energy  :   -26.3011493 Eh     change       -0.1347209E-05 Eh
   gradient norm :     0.0004232 Eh/α   predicted    -0.6232916E-06 ( -53.73%)
   displ. norm   :     0.0268788 α      lambda       -0.1066564E-05
   maximum displ.:     0.0174004 α      in ANC's #3, #6, #2, ...

........................................................................
.............................. CYCLE   46 ..............................
........................................................................

 iter      E             dE          RMSdq      gap      omega  full diag
   1    -26.7203418 -0.267203E+02  0.674E-03    4.34       0.0  T
   2    -26.7203418 -0.488636E-08  0.407E-03    4.34       5.6  T
   3    -26.7203418  0.536805E-08  0.740E-04    4.34      31.0  T
   4    -26.7203418 -0.710912E-08  0.119E-04    4.34     193.3  T
     SCC iter.                  ...        0 min,  0.001 sec
     gradient                   ...        0 min,  0.003 sec
 * total energy  :   -26.3011504 Eh     change       -0.1088805E-05 Eh
   gradient norm :     0.0005519 Eh/α   predicted    -0.5336054E-06 ( -50.99%)
   displ. norm   :     0.0201097 α      lambda       -0.5941002E-06
   maximum displ.:     0.0138469 α      in ANC's #3, #6, #2, ...

........................................................................
.............................. CYCLE   47 ..............................
........................................................................

 iter      E             dE          RMSdq      gap      omega  full diag
   1    -26.7203744 -0.267204E+02  0.511E-03    4.34       0.0  T
   2    -26.7203744 -0.433826E-08  0.308E-03    4.34       7.5  T
   3    -26.7203744  0.495866E-08  0.716E-04    4.34      32.0  T
   4    -26.7203744 -0.625365E-08  0.103E-04    4.34     222.4  T
     SCC iter.                  ...        0 min,  0.001 sec
     gradient                   ...        0 min,  0.003 sec
 * total energy  :   -26.3011510 Eh     change       -0.5978962E-06 Eh
   gradient norm :     0.0003248 Eh/α   predicted    -0.3026818E-06 ( -49.38%)
   displ. norm   :     0.0096544 α      lambda       -0.2452387E-06
   maximum displ.:     0.0067026 α      in ANC's #3, #2, #6, ...

........................................................................
.............................. CYCLE   48 ..............................
........................................................................

 iter      E             dE          RMSdq      gap      omega  full diag
   1    -26.7204183 -0.267204E+02  0.293E-03    4.34       0.0  T
   2    -26.7204184 -0.712791E-08  0.174E-03    4.34      13.2  T
   3    -26.7204183  0.281494E-08  0.825E-04    4.34      27.8  T
   4    -26.7204184 -0.479323E-08  0.113E-04    4.34     202.9  T
     SCC iter.                  ...        0 min,  0.001 sec
     gradient                   ...        0 min,  0.003 sec
 * total energy  :   -26.3011512 Eh     change       -0.2347735E-06 Eh
   gradient norm :     0.0000806 Eh/α   predicted    -0.1280741E-06 ( -45.45%)
   displ. norm   :     0.0089391 α      lambda        0.9215279E-07
   maximum displ.:     0.0061942 α      in ANC's #3, #2, #6, ...

........................................................................
.............................. CYCLE   49 ..............................
........................................................................

 iter      E             dE          RMSdq      gap      omega  full diag
   1    -26.7204587 -0.267205E+02  0.276E-03    4.34       0.0  T
   2    -26.7204587 -0.632214E-08  0.164E-03    4.34      14.0  T
   3    -26.7204587  0.249574E-08  0.780E-04    4.34      29.4  T
   4    -26.7204587 -0.427170E-08  0.107E-04    4.34     215.1  T
     SCC iter.                  ...        0 min,  0.001 sec
     gradient                   ...        0 min,  0.003 sec
 * total energy  :   -26.3011512 Eh     change        0.5997060E-07 Eh
   gradient norm :     0.0002851 Eh/α   predicted     0.4568136E-07 ( -23.83%)
   displ. norm   :     0.0048205 α      lambda       -0.1705507E-06
   maximum displ.:     0.0026876 α      in ANC's #3, #6, #4, ...

........................................................................
.............................. CYCLE   50 ..............................
........................................................................

 iter      E             dE          RMSdq      gap      omega  full diag
   1    -26.7204221 -0.267204E+02  0.205E-03    4.34       0.0  T
   2    -26.7204221 -0.202042E-08  0.122E-03    4.34      18.8  T
   3    -26.7204221  0.120927E-08  0.408E-04    4.34      56.2  T
   4    -26.7204221 -0.164804E-08  0.635E-05    4.34     361.2  T
     SCC iter.                  ...        0 min,  0.001 sec
     gradient                   ...        0 min,  0.003 sec
 * total energy  :   -26.3011513 Eh     change       -0.1493608E-06 Eh
   gradient norm :     0.0000954 Eh/α   predicted    -0.8707756E-07 ( -41.70%)
   displ. norm   :     0.0027568 α      lambda       -0.3566947E-07
   maximum displ.:     0.0019630 α      in ANC's #4, #1, #6, ...

........................................................................
.............................. CYCLE   51 ..............................
........................................................................

 iter      E             dE          RMSdq      gap      omega  full diag
   1    -26.7204083 -0.267204E+02  0.810E-04    4.34       0.0  T
   2    -26.7204083 -0.439691E-09  0.481E-04    4.34      47.7  T
   3    -26.7204083  0.240608E-09  0.222E-04    4.34     103.4  T
     SCC iter.                  ...        0 min,  0.001 sec
     gradient                   ...        0 min,  0.003 sec
 * total energy  :   -26.3011514 Eh     change       -0.4631585E-07 Eh
   gradient norm :     0.0000233 Eh/α   predicted    -0.2056294E-07 ( -55.60%)
   displ. norm   :     0.0057479 α      lambda       -0.5031175E-07
   maximum displ.:     0.0038543 α      in ANC's #4, #2, #1, ...

   *** GEOMETRY OPTIMIZATION CONVERGED AFTER 51 ITERATIONS ***

------------------------------------------------------------------------
 total energy gain   :        -0.0045954 Eh       -2.8837 kcal/mol
 total RMSD          :         1.0585919 a0        0.5602 Å
 total power (kW/mol):        -0.2365753 (step)  -38.2240 (real)
------------------------------------------------------------------------

 ANCopt (total)                0 d,  0 h,  0 min,  0.316 sec
 optimizer setup                ...        0 min,  0.000 sec (  0.084%)
 model hessian                  ...        0 min,  0.007 sec (  2.066%)
 ANC generation                 ...        0 min,  0.001 sec (  0.245%)
 coordinate transformation      ...        0 min,  0.000 sec (  0.050%)
 single point calculation       ...        0 min,  0.292 sec ( 92.633%)
 optimization log               ...        0 min,  0.011 sec (  3.629%)
 hessian update                 ...        0 min,  0.000 sec (  0.066%)
 rational function              ...        0 min,  0.002 sec (  0.779%)

================
 final structure:
================
$coord
       -4.81077391433144        1.16539150599816        0.20439356705081      C
       -2.29329694779479       -0.12613774983793        0.11611723773604      C
       -2.14865153015417       -2.74549782484386        0.22343189824567      C
        0.16277030669303       -3.95655609241924        0.14367476686275      C
        2.36195115938273       -2.55943382465308       -0.04516481527096      C
        2.24428840063723        0.06009314320387       -0.15405668603895      C
       -0.08644146515762        1.30280388015150       -0.07392786520678      C
       -0.18686423277951        4.13170435329346       -0.19259688262101      C
        4.39124474848120        1.48537281389414       -0.34130248486512      O
       -6.32641205815543       -0.21238146889049        0.34443486085121      H
       -4.91616898480886        2.42925114188221        1.82480164341336      H
       -5.10086136805923        2.29628783865771       -1.48989825907235      H
       -3.86353417692231       -3.84212574540027        0.37084214030395      H
        0.26046374146630       -5.99256997036014        0.22814379221017      H
        4.17395321864353       -3.50004979102952       -0.10836509693018      H
        1.71184992956758        4.89849887489035       -0.32333713582517      H
       -1.26698494891016        4.74640802978817       -1.83278912984288      H
       -1.09793104614858        4.89200153430422        1.48850026504511      H
        5.86140289676694        0.39757704709326       -0.37837440319673      H
$end
 
 Bond Distances (Angstroems)
 ---------------------------
C1-C2=1.4980         C1-H10=1.0864        C1-H11=1.0889        C1-H12=1.0888        C2-C1=1.4980         C2-C3=1.3894         
C2-C7=1.3949         C3-C2=1.3894         C3-C4=1.3815         C3-H13=1.0800        C4-C3=1.3815         C4-C5=1.3824         
C4-H14=1.0796        C5-C4=1.3824         C5-C6=1.3888         C5-H15=1.0809        C6-C5=1.3888         C6-C7=1.3984         
C6-O9=1.3673         C7-C2=1.3949         C7-C6=1.3984         C7-C8=1.4992         C8-C7=1.4992         C8-H16=1.0858        
C8-H17=1.0890        C8-H18=1.0889        O9-C6=1.3673         O9-H19=0.9680        H10-C1=1.0864        H11-C1=1.0889        
H12-C1=1.0888        H13-C3=1.0800        H14-C4=1.0796        H15-C5=1.0809        H16-C8=1.0858        H17-C8=1.0890        
H18-C8=1.0889        H19-O9=0.9680        
 C  H  Rav=1.0854 sigma=0.0039  Rmin=1.0796  Rmax=1.0890     9
 C  C  Rav=1.4166 sigma=0.0477  Rmin=1.3815  Rmax=1.4992     8
 O  H  Rav=0.9680 sigma=0.0000  Rmin=0.9680  Rmax=0.9680     1
 O  C  Rav=1.3673 sigma=0.0000  Rmin=1.3673  Rmax=1.3673     1
 
 selected bond angles (degree)
 --------------------
H10-C1-C2=110.64               H11-C1-C2=110.51               H11-C1-H10=108.70              H12-C1-C2=110.52               
H12-C1-H10=108.72              H12-C1-H11=107.68              C3-C2-C1=120.19                C7-C2-C1=119.96                
C7-C2-C3=119.84                C4-C3-C2=120.69                H13-C3-C2=119.52               H13-C3-C4=119.79               
C5-C4-C3=119.96                H14-C4-C3=120.27               H14-C4-C5=119.76               C6-C5-C4=119.94                
H15-C5-C4=120.18               H15-C5-C6=119.88               C7-C6-C5=120.51                O9-C6-C5=121.09                
O9-C6-C7=118.40                C6-C7-C2=119.06                C8-C7-C2=120.97                C8-C7-C6=119.97                
H16-C8-C7=110.06               H17-C8-C7=110.50               H17-C8-H16=108.86              H18-C8-C7=110.51               
H18-C8-H16=108.89              H18-C8-H17=107.96              H19-O9-C6=109.95               
 
 selected dihedral angles (degree)
 ---------------------------------
C3-C2-C1-H10=359.75           C3-C2-C1-H11=120.20           C3-C2-C1-H12=239.28           C7-C2-C1-H10=179.76           
C7-C2-C1-H11=300.21           C7-C2-C1-H12= 59.29           C4-C3-C2-C1=180.00            C4-C3-C2-C7=  0.00            
H13-C3-C2-C1=  0.00           H13-C3-C2-C7=179.99           C5-C4-C3-C2=  0.00            C5-C4-C3-H13=179.99           
H14-C4-C3-C2=179.99           H14-C4-C3-H13=  0.00          C6-C5-C4-C3=  0.00            C6-C5-C4-H14=180.01           
H15-C5-C4-C3=180.01           H15-C5-C4-H14=  0.00          C7-C6-C5-C4=  0.00            C7-C6-C5-H15=180.01           
O9-C6-C5-C4=180.00            O9-C6-C5-H15=  0.00           C6-C7-C2-C1=180.01            C6-C7-C2-C3=  0.00            
C8-C7-C2-C1=  0.00            C8-C7-C2-C3=180.01            C2-C7-C6-C5=  0.00            C2-C7-C6-O9=179.98            
C8-C7-C6-C5=179.99            C8-C7-C6-O9=  0.00            H16-C8-C7-C2=179.63           H16-C8-C7-C6=359.62           
H17-C8-C7-C2=299.90           H17-C8-C7-C6=119.88           H18-C8-C7-C2= 59.33           H18-C8-C7-C6=239.32           
H19-O9-C6-C5=  0.00           H19-O9-C6-C7=180.00           
           -------------------------------------------------
          |                Final Singlepoint                |
           -------------------------------------------------

          ...................................................
          :                      SETUP                      :
          :.................................................:
          :  # basis functions                  46          :
          :  # atomic orbitals                  46          :
          :  # shells                           28          :
          :  # electrons                        48          :
          :  max. iterations                   250          :
          :  Hamiltonian                  GFN2-xTB          :
          :  restarted?                      false          :
          :  GBSA solvation                   true          :
          :  PC potential                    false          :
          :  electronic temp.          300.0000000     K    :
          :  accuracy                    1.0000000          :
          :  -> integral cutoff          0.2500000E+02      :
          :  -> integral neglect         0.1000000E-07      :
          :  -> SCF convergence          0.1000000E-05 Eh   :
          :  -> wf. convergence          0.1000000E-03 e    :
          :  Broyden damping             0.4000000          :
          :  net charge                          0          :
          :  unpaired electrons                  0          :
          ...................................................

 iter      E             dE          RMSdq      gap      omega  full diag
   1    -26.7204083 -0.267204E+02  0.303E-05    4.34       0.0  T
   2    -26.7204083 -0.382627E-11  0.168E-05    4.34    1368.8  T
   3    -26.7204083 -0.157030E-11  0.968E-06    4.34    2371.2  T

   *** convergence criteria satisfied after 3 iterations ***

         #    Occupation            Energy/Eh            Energy/eV
      -------------------------------------------------------------
         1        2.0000           -0.7016825             -19.0938
       ...           ...                  ...                  ...
        18        2.0000           -0.4549156             -12.3789
        19        2.0000           -0.4480385             -12.1917
        20        2.0000           -0.4427678             -12.0483
        21        2.0000           -0.4225696             -11.4987
        22        2.0000           -0.4148130             -11.2876
        23        2.0000           -0.3839662             -10.4483
        24        2.0000           -0.3722945             -10.1306 (HOMO)
        25                         -0.2129575              -5.7949 (LUMO)
        26                         -0.2044142              -5.5624
        27                         -0.0824701              -2.2441
        28                          0.0680242               1.8510
        29                          0.1086378               2.9562
       ...                                ...                  ...
        46                          0.6609202              17.9846
      -------------------------------------------------------------
                  HL-Gap            0.1593371 Eh            4.3358 eV
             Fermi-level           -0.2926260 Eh           -7.9628 eV

 SCC (total)                   0 d,  0 h,  0 min,  0.006 sec
 SCC setup                      ...        0 min,  0.001 sec ( 14.586%)
 Dispersion                     ...        0 min,  0.000 sec (  0.637%)
 classical contributions        ...        0 min,  0.000 sec (  0.204%)
 integral evaluation            ...        0 min,  0.001 sec ( 16.414%)
 iterations                     ...        0 min,  0.001 sec ( 14.378%)
 molecular gradient             ...        0 min,  0.003 sec ( 52.312%)
 printout                       ...        0 min,  0.000 sec (  1.318%)

         :::::::::::::::::::::::::::::::::::::::::::::::::::::
         ::                     SUMMARY                     ::
         :::::::::::::::::::::::::::::::::::::::::::::::::::::
         :: total energy             -26.301151369879 Eh    ::
         :: total w/o Gsasa/hb       -26.295973674432 Eh    ::
         :: gradient norm              0.000022776235 Eh/a0 ::
         :: HOMO-LUMO gap              4.335782478913 eV    ::
         ::.................................................::
         :: SCC energy               -26.720344031449 Eh    ::
         :: -> isotropic ES            0.030784904817 Eh    ::
         :: -> anisotropic ES          0.004637030338 Eh    ::
         :: -> anisotropic XC          0.011025745299 Eh    ::
         :: -> dispersion             -0.014887264035 Eh    ::
         :: -> Gsolv                  -0.009025982714 Eh    ::
         ::    -> Gelec               -0.003848287267 Eh    ::
         ::    -> Gsasa               -0.000430837613 Eh    ::
         ::    -> Ghb                 -0.005827617533 Eh    ::
         ::    -> Gshift               0.001080759698 Eh    ::
         :: repulsion energy           0.419192661570 Eh    ::
         :: add. restraining           0.000000000000 Eh    ::
         :: total charge               0.000000000000 e     ::
         :::::::::::::::::::::::::::::::::::::::::::::::::::::

           ------------------------------------------------- 
          |                Numerical Hessian                |
           ------------------------------------------------- 
step length          :   0.00500
SCC accuracy         :   0.30000
Hessian scale factor :   1.00000
frozen atoms in %    :   0.00000    0
RMS gradient         :   0.00002
estimated CPU  time      0.01 min
estimated wall time      0.01 min

writing file <hessian>.

 projected vibrational frequencies (cm⁻¹)
eigval :       -0.00    -0.00     0.00     0.00     0.00     0.00
eigval :      105.97   130.00   169.78   217.65   273.70   307.19
eigval :      316.63   387.24   461.30   477.88   485.24   513.06
eigval :      539.14   662.47   704.70   788.35   807.36   870.78
eigval :      913.40   930.67  1006.33  1022.81  1035.98  1067.99
eigval :     1120.70  1135.42  1190.75  1202.32  1249.77  1294.83
eigval :     1334.50  1397.64  1404.32  1450.55  1469.56  1475.63
eigval :     1483.98  1485.11  1486.02  1589.35  1600.07  2999.29
eigval :     3005.02  3014.18  3019.44  3047.66  3062.53  3064.32
eigval :     3071.39  3087.08  3471.65
           -------------------------------------------------
          |                Property Printout                |
           -------------------------------------------------

    * Orbital Energies and Occupations

         #    Occupation            Energy/Eh            Energy/eV
      -------------------------------------------------------------
         1        2.0000           -0.7016826             -19.0938
       ...           ...                  ...                  ...
        12        2.0000           -0.5072974             -13.8043
        13        2.0000           -0.4866156             -13.2415
        14        2.0000           -0.4848904             -13.1945
        15        2.0000           -0.4738990             -12.8954
        16        2.0000           -0.4660347             -12.6814
        17        2.0000           -0.4638902             -12.6231
        18        2.0000           -0.4549156             -12.3789
        19        2.0000           -0.4480385             -12.1917
        20        2.0000           -0.4427678             -12.0483
        21        2.0000           -0.4225696             -11.4987
        22        2.0000           -0.4148130             -11.2876
        23        2.0000           -0.3839662             -10.4483
        24        2.0000           -0.3722945             -10.1307 (HOMO)
        25                         -0.2129575              -5.7949 (LUMO)
        26                         -0.2044142              -5.5624
        27                         -0.0824701              -2.2441
        28                          0.0680241               1.8510
        29                          0.1086378               2.9562
        30                          0.1322729               3.5993
        31                          0.1487841               4.0486
        32                          0.1534269               4.1750
        33                          0.1755750               4.7776
        34                          0.1976696               5.3789
        35                          0.2007961               5.4639
       ...                                ...                  ...
        46                          0.6609202              17.9846
      -------------------------------------------------------------
                  HL-Gap            0.1593371 Eh            4.3358 eV
             Fermi-level           -0.2926260 Eh           -7.9628 eV

     #   Z          covCN         q      C6AA      α(0)
     1   6 C        3.759    -0.119    22.832     6.812
     2   6 C        2.970     0.003    27.945     8.671
     3   6 C        2.923    -0.060    29.501     8.907
     4   6 C        2.918    -0.045    29.121     8.849
     5   6 C        2.918    -0.084    30.103     8.997
     6   6 C        2.849     0.130    25.150     8.219
     7   6 C        2.969    -0.019    28.473     8.753
     8   6 C        3.758    -0.115    22.749     6.800
     9   8 O        1.659    -0.461    22.065     6.341
    10   1 H        0.925     0.046     2.371     2.408
    11   1 H        0.925     0.055     2.258     2.350
    12   1 H        0.925     0.055     2.258     2.350
    13   1 H        0.926     0.031     2.577     2.510
    14   1 H        0.926     0.032     2.562     2.503
    15   1 H        0.926     0.033     2.549     2.497
    16   1 H        0.925     0.055     2.255     2.348
    17   1 H        0.925     0.050     2.318     2.381
    18   1 H        0.925     0.050     2.317     2.380
    19   1 H        0.805     0.363     0.559     1.174

 Mol. C6AA /au·bohr⁶  :       3687.996734
 Mol. C8AA /au·bohr⁸  :      86836.468722
 Mol. α(0) /au        :         95.251421


Wiberg/Mayer (AO) data.
largest (>0.10) Wiberg bond orders for each atom

 ---------------------------------------------------------------------------
     #   Z sym  total        # sym  WBO       # sym  WBO       # sym  WBO
 ---------------------------------------------------------------------------
     1   6 C    3.995 --     2 C    1.030    10 H    0.985    12 H    0.969
                            11 H    0.968
     2   6 C    3.989 --     3 C    1.405     7 C    1.394     1 C    1.030
     3   6 C    3.990 --     4 C    1.442     2 C    1.405    13 H    0.969
     4   6 C    3.992 --     3 C    1.442     5 C    1.438    14 H    0.971
                             7 C    0.104
     5   6 C    3.985 --     4 C    1.438     6 C    1.380    15 H    0.966
     6   6 C    3.937 --     5 C    1.380     7 C    1.347     9 O    1.061
     7   6 C    3.986 --     2 C    1.394     6 C    1.347     8 C    1.029
                             4 C    0.104
     8   6 C    3.995 --     7 C    1.029    16 H    0.983    18 H    0.970
                            17 H    0.969
     9   8 O    2.068 --     6 C    1.061    19 H    0.847
    10   1 H    0.998 --     1 C    0.985
    11   1 H    0.997 --     1 C    0.968
    12   1 H    0.997 --     1 C    0.969
    13   1 H    0.999 --     3 C    0.969
    14   1 H    0.998 --     4 C    0.971
    15   1 H    0.998 --     5 C    0.966
    16   1 H    0.997 --     8 C    0.983
    17   1 H    0.997 --     8 C    0.969
    18   1 H    0.997 --     8 C    0.970
    19   1 H    0.868 --     9 O    0.847
 ---------------------------------------------------------------------------

Topologies differ in total number of bonds
Writing topology from bond orders to xtbtopo.mol

molecular dipole:
                 x           y           z       tot (Debye)
 q only:        0.067      -0.028      -0.003
   full:        0.172      -0.192      -0.001       0.655
molecular quadrupole (traceless):
                xx          xy          yy          xz          yz          zz
 q only:        5.660      -3.932      -2.191      -0.357       0.172      -3.470
  q+dip:        7.638      -5.406      -1.546      -0.564       0.116      -6.091
   full:        6.836      -5.304      -2.590      -0.415       0.238      -4.246

           -------------------------------------------------
          |                Geometry Summary                 |
           -------------------------------------------------

      molecular mass/u    :      122.1646996
   center of mass at/Å    :        0.0107160      -0.0122776      -0.0115693
  moments of inertia/u·Å² :        0.2220565E+03   0.2833422E+03   0.4991553E+03
rotational constants/cm⁻¹ :        0.7591597E-01   0.5949567E-01   0.3377232E-01

 * 17 selected distances

     #   Z          #   Z                                           value/Å
     2   6 C        3   6 C                                       1.3893786
     3   6 C        4   6 C                                       1.3815170
     4   6 C        5   6 C                                       1.3823592
     5   6 C        6   6 C                                       1.3887877
     2   6 C        7   6 C                                       1.3948818
     6   6 C        7   6 C                                       1.3983755 (max)
     6   6 C        9   8 O                                       1.3672761
     1   6 C       10   1 H                                       1.0864293
     1   6 C       11   1 H                                       1.0888935
     1   6 C       12   1 H                                       1.0888331
     3   6 C       13   1 H                                       1.0799813
     4   6 C       14   1 H                                       1.0795776
     5   6 C       15   1 H                                       1.0808831
     8   6 C       16   1 H                                       1.0858045
     8   6 C       17   1 H                                       1.0889681
     8   6 C       18   1 H                                       1.0888948
     9   8 O       19   1 H                                       0.9679806 (min)

 * 4 distinct bonds (by element types)

   Z      Z             #   av. dist./Å        max./Å        min./Å
   1 H    6 C           9     1.0853628     1.0889681     1.0795776
   6 C    6 C           6     1.3892167     1.3983755     1.3815170
   1 H    8 O           1     0.9679806     0.9679806     0.9679806
   6 C    8 O           1     1.3672761     1.3672761     1.3672761

           -------------------------------------------------
          |               Frequency Printout                |
           -------------------------------------------------
 projected vibrational frequencies (cm⁻¹)
eigval :       -0.00    -0.00     0.00     0.00     0.00     0.00
eigval :      105.97   130.00   169.78   217.65   273.70   307.19
eigval :      316.63   387.24   461.30   477.88   485.24   513.06
eigval :      539.14   662.47   704.70   788.35   807.36   870.78
eigval :      913.40   930.67  1006.33  1022.81  1035.98  1067.99
eigval :     1120.70  1135.42  1190.75  1202.32  1249.77  1294.83
eigval :     1334.50  1397.64  1404.32  1450.55  1469.56  1475.63
eigval :     1483.98  1485.11  1486.02  1589.35  1600.07  2999.29
eigval :     3005.02  3014.18  3019.44  3047.66  3062.53  3064.32
eigval :     3071.39  3087.08  3471.65
 reduced masses (amu)
   1: 10.16   2: 10.28   3: 10.48   4: 12.03   5: 11.59   6: 12.51   7:  1.56   8:  9.91
   9:  2.03  10:  9.15  11:  9.18  12:  8.64  13: 11.27  14:  2.61  15: 10.68  16:  9.31
  17: 10.49  18: 11.62  19: 10.49  20: 10.73  21: 11.18  22:  3.19  23: 10.62  24:  3.76
  25:  3.20  26:  8.13  27:  3.93  28:  4.38  29:  4.74  30:  6.82  31:  6.35  32:  3.39
  33:  3.21  34:  8.70  35:  4.92  36:  9.98  37: 11.28  38:  3.41  39:  3.07  40:  7.14
  41:  1.58  42:  6.73  43:  1.57  44:  7.17  45:  2.73  46: 11.54  47: 11.44  48:  1.93
  49:  1.94  50:  1.53  51:  1.54  52:  1.64  53:  1.79  54:  1.68  55:  1.80  56:  1.90
  57:  1.87
 IR intensities (km·mol⁻¹)
   1:  0.03   2:  0.03   3:  0.02   4:  0.01   5:  0.00   6:  0.02   7:  0.12   8:  0.02
   9:  1.99  10:  3.21  11:  8.57  12:  1.23  13: 10.68  14:187.33  15:  0.27  16:  1.74
  17:  7.96  18:  2.62  19:  5.23  20:  2.79  21:  6.32  22: 24.80  23:  6.35  24:  0.29
  25:  0.03  26: 46.49  27: 12.67  28: 12.75  29:  0.16  30:303.76  31:  3.49  32: 56.74
  33: 17.64  34:  9.42  35:131.19  36:211.39  37: 30.71  38:  0.27  39:  3.86  40: 74.07
  41:  0.00  42: 21.81  43:  8.85  44: 17.66  45: 23.38  46: 90.83  47: 12.35  48: 69.02
  49:  7.88  50: 24.84  51: 87.78  52: 45.15  53: 60.95  54: 29.36  55:100.08  56:161.91
  57:135.42
 Raman intensities (Ä⁴*amu⁻¹)
   1:  0.00   2:  0.00   3:  0.00   4:  0.00   5:  0.00   6:  0.00   7:  0.00   8:  0.00
   9:  0.00  10:  0.00  11:  0.00  12:  0.00  13:  0.00  14:  0.00  15:  0.00  16:  0.00
  17:  0.00  18:  0.00  19:  0.00  20:  0.00  21:  0.00  22:  0.00  23:  0.00  24:  0.00
  25:  0.00  26:  0.00  27:  0.00  28:  0.00  29:  0.00  30:  0.00  31:  0.00  32:  0.00
  33:  0.00  34:  0.00  35:  0.00  36:  0.00  37:  0.00  38:  0.00  39:  0.00  40:  0.00
  41:  0.00  42:  0.00  43:  0.00  44:  0.00  45:  0.00  46:  0.00  47:  0.00  48:  0.00
  49:  0.00  50:  0.00  51:  0.00  52:  0.00  53:  0.00  54:  0.00  55:  0.00  56:  0.00
  57:  0.00
 output can be read by thermo (or use thermo option).
 writing <g98.out> molden fake output.
 recommended (thermochemical) frequency scaling factor: 1.0
           -------------------------------------------------
          |             Thermodynamic Functions             |
           -------------------------------------------------

Molecule has the following symmetry elements: (sigma) 
It seems to be the Cs point group
cs  symmetry found (for desy threshold:  0.10E+00) used in thermo

          ...................................................
          :                      SETUP                      :
          :.................................................:
          :  # frequencies                          51      :
          :  # imaginary freq.                       0      :
          :  linear?                             false      :
          :  only rotor calc.                    false      :
          :  symmetry                               cs      :
          :  rotational number                       1      :
          :  scaling factor                  1.0000000      :
          :  rotor cutoff                    0.0000000 cm⁻¹ :
          :  imag. cutoff                 -100.0000000 cm⁻¹ :
          :.................................................:

    mode    ω/cm⁻¹     T·S(HO)/kcal·mol⁻¹    T·S(FR)/kcal·mol⁻¹   T·S(vib)
   ------------------------------------------------------------------------
       1    105.97    -0.99623 (100.00%)    -0.83388 (  0.00%)    -0.99623
       2    130.00    -0.87834 (100.00%)    -0.77336 (  0.00%)    -0.87834
       3    169.78    -0.72687 (100.00%)    -0.69432 (  0.00%)    -0.72687
       4    217.65    -0.58990 (100.00%)    -0.62075 (  0.00%)    -0.58990
       5    273.70    -0.46890 (100.00%)    -0.55288 (  0.00%)    -0.46890
   ------------------------------------------------------------------------

   temp. (K)  partition function   enthalpy   heat capacity  entropy
                                   cal/mol     cal/K/mol   cal/K/mol   J/K/mol
 298.15  VIB   79.0                 3846.259     28.467     21.585
         ROT  0.428E+06              888.752      2.981     28.750
         INT  0.338E+08             4735.011     31.448     50.335
         TR   0.131E+28             1481.254      4.968     40.296
         TOT                        6216.2649    36.4162    90.6312   379.2008

       T/K    H(0)-H(T)+PV         H(T)/Eh          T*S/Eh         G(T)/Eh
   ------------------------------------------------------------------------
    298.15    0.990625E-02    0.165753E+00    0.430618E-01    0.122691E+00
   ------------------------------------------------------------------------

         :::::::::::::::::::::::::::::::::::::::::::::::::::::
         ::                  THERMODYNAMIC                  ::
         :::::::::::::::::::::::::::::::::::::::::::::::::::::
         :: total free energy         -26.178460395695 Eh   ::
         ::.................................................::
         :: total energy              -26.301151369467 Eh   ::
         :: zero point energy           0.155846513928 Eh   ::
         :: G(RRHO) w/o ZPVE           -0.033155540156 Eh   ::
         :: G(RRHO) contrib.            0.122690973772 Eh   ::
         :::::::::::::::::::::::::::::::::::::::::::::::::::::

optimized geometry written to: xtbopt.coord


           -------------------------------------------------
          | TOTAL ENERGY              -26.301151369467 Eh   |
          | TOTAL ENTHALPY            -26.135398606885 Eh   |
          | TOTAL FREE ENERGY         -26.178460395695 Eh   |
          | GRADIENT NORM               0.000022870837 Eh/α |
          | HOMO-LUMO GAP               4.335782724805 eV   |
           -------------------------------------------------

------------------------------------------------------------------------
 * finished run on 2025/04/03 at 19:55:40.379     
------------------------------------------------------------------------
 total:
 * wall-time:     0 d,  0 h,  0 min,  1.072 sec
 *  cpu-time:     0 d,  0 h,  0 min,  0.997 sec
 * ratio c/w:     0.929 speedup
 SCF:
 * wall-time:     0 d,  0 h,  0 min,  0.009 sec
 *  cpu-time:     0 d,  0 h,  0 min,  0.009 sec
 * ratio c/w:     0.988 speedup
 ANC optimizer:
 * wall-time:     0 d,  0 h,  0 min,  0.333 sec
 *  cpu-time:     0 d,  0 h,  0 min,  0.314 sec
 * ratio c/w:     0.944 speedup
 analytical hessian:
 * wall-time:     0 d,  0 h,  0 min,  0.672 sec
 *  cpu-time:     0 d,  0 h,  0 min,  0.663 sec
 * ratio c/w:     0.986 speedup

