      -----------------------------------------------------------      
     |                   =====================                   |     
     |                           x T B                           |     
     |                   =====================                   |     
     |                         S. Grimme                         |     
     |          Mulliken Center for Theoretical Chemistry        |     
     |                    University of Bonn                     |     
      -----------------------------------------------------------      

   * xtb version 6.7.1 (edcfbbe) compiled by 'albert@albert-system' on 2024-07-22

   xtb is free software: you can redistribute it and/or modify it under
   the terms of the GNU Lesser General Public License as published by
   the Free Software Foundation, either version 3 of the License, or
   (at your option) any later version.
   
   xtb is distributed in the hope that it will be useful,
   but WITHOUT ANY WARRANTY; without even the implied warranty of
   MERCHANTABILITY or FITNESS FOR A PARTICULAR PURPOSE.  See the
   GNU Lesser General Public License for more details.
   
   Cite this work as:
   * C. Bannwarth, E. Caldeweyher, S. Ehlert, A. Hansen, P. Pracht,
     J. Seibert, S. Spicher, S. Grimme, WIREs Comput. Mol. Sci., 2020, 11,
     e01493. DOI: 10.1002/wcms.1493
   
   for GFN2-xTB:
   * C. Bannwarth, S. Ehlert and S. Grimme., J. Chem. Theory Comput., 2019,
     15, 1652-1671. DOI: 10.1021/acs.jctc.8b01176
   for GFN1-xTB:
   * S. Grimme, C. Bannwarth, P. Shushkov, J. Chem. Theory Comput., 2017,
     13, 1989-2009. DOI: 10.1021/acs.jctc.7b00118
   for GFN0-xTB:
   * P. Pracht, E. Caldeweyher, S. Ehlert, S. Grimme, ChemRxiv, 2019, preprint.
     DOI: 10.26434/chemrxiv.8326202.v1
   for GFN-FF:
   * S. Spicher and S. Grimme, Angew. Chem. Int. Ed., 2020, 59, 15665-15673.
     DOI: 10.1002/anie.202004239
   
   for ALPB and GBSA implicit solvation:
   * S. Ehlert, M. Stahn, S. Spicher, S. Grimme, J. Chem. Theory Comput.,
     2021, 17, 4250-4261. DOI: 10.1021/acs.jctc.1c00471
   
   for ddCOSMO and CPCM-X implicit solvation:
   * M. Stahn, S. Ehlert, S. Grimme, J. Phys. Chem. A,
     2023, XX, XXXX-XXXX. DOI: 10.1021/acs.jpca.3c04382
   
   for DFT-D4:
   * E. Caldeweyher, C. Bannwarth and S. Grimme, J. Chem. Phys., 2017,
     147, 034112. DOI: 10.1063/1.4993215
   * E. Caldeweyher, S. Ehlert, A. Hansen, H. Neugebauer, S. Spicher,
     C. Bannwarth and S. Grimme, J. Chem. Phys., 2019, 150, 154122.
     DOI: 10.1063/1.5090222
   * E. Caldeweyher, J.-M. Mewes, S. Ehlert and S. Grimme, Phys. Chem. Chem. Phys.
     2020, 22, 8499-8512. DOI: 10.1039/D0CP00502A
   
   for sTDA-xTB:
   * S. Grimme and C. Bannwarth, J. Chem. Phys., 2016, 145, 054103.
     DOI: 10.1063/1.4959605
   
   in the mass-spec context:
   * V. Asgeirsson, C. Bauer and S. Grimme, Chem. Sci., 2017, 8, 4879.
     DOI: 10.1039/c7sc00601b
   * J. Koopman and S. Grimme, ACS Omega 2019, 4, 12, 15120-15133.
     DOI: 10.1021/acsomega.9b02011
   
   for metadynamics refer to:
   * S. Grimme, J. Chem. Theory Comput., 2019, 155, 2847-2862
     DOI: 10.1021/acs.jctc.9b00143
   
   for SPH calculations refer to:
   * S. Spicher and S. Grimme, J. Chem. Theory Comput., 2021, 17, 1701-1714
     DOI: 10.1021/acs.jctc.0c01306
   
   for ONIOM refer to:
   * C. Plett, A. Katbashev, S. Ehlert, S. Grimme, M. Bursch,
     Phys. Chem. Chem. Phys., 2023, 25, 17860-17868. DOI: 10.1039/D3CP02178E
   
   for DIPRO refer to:
   * J. Kohn, N. Gildemeister, S. Grimme, D. Fazzi, A. Hansen,
     J. Chem. Phys., 2023, just accepted.
   
   for PTB refer to:
   * S. Grimme, M. Mueller, A. Hansen, J. Chem. Phys., 2023, 158, 124111.
     DOI: 10.1063/5.0137838
   
   with help from (in alphabetical order)
   P. Atkinson, C. Bannwarth, F. Bohle, G. Brandenburg, E. Caldeweyher
   M. Checinski, S. Dohm, S. Ehlert, S. Ehrlich, I. Gerasimov, C. Hölzer
   A. Katbashev, J. Kohn, J. Koopman, C. Lavigne, S. Lehtola, F. März, M. Müller,
   F. Musil, H. Neugebauer, J. Pisarek, C. Plett, P. Pracht, F. Pultar,
   J. Seibert, P. Shushkov, S. Spicher, M. Stahn, M. Steiner, T. Strunk,
   J. Stückrath, T. Rose, and J. Unsleber
   
 * started run on 2025/04/09 at 05:20:58.376     
   ID    Z sym.   atoms
    1    6 C      1, 2, 7, 8, 10, 15, 16, 18, 19
    2    8 O      3, 6, 14, 17
    3   15 P      4, 12
    4   16 S      5, 9, 11, 13
    5    1 H      20-41

           -------------------------------------------------
          |                Calculation Setup                |
           -------------------------------------------------

          program call               : /srv/scratch/z5358697/.xtb/bin/xtb solv.coord --gfn2 --sp --chrg 0 --norestart --parallel 1 --alpb water reference -I xtb_sp-xcontrol-inp
          hostname                   : k163
          coordinate file            : solv.coord
          omp threads                :                     1


           -------------------------------------------------
          |                 G F N 2 - x T B                 |
           -------------------------------------------------

        Reference                      10.1021/acs.jctc.8b01176
      * Hamiltonian:
        H0-scaling (s, p, d)           1.850000    2.230000    2.230000
        zeta-weighting                 0.500000
      * Dispersion:
        s8                             2.700000
        a1                             0.520000
        a2                             5.000000
        s9                             5.000000
      * Repulsion:
        kExp                           1.500000    1.000000
        rExp                           1.000000
      * Coulomb:
        alpha                          2.000000
        third order                    shell-resolved
        anisotropic                    true
        a3                             3.000000
        a5                             4.000000
        cn-shift                       1.200000
        cn-exp                         4.000000
        max-rad                        5.000000

      * Solvation model:               ALPB
        Solvent                        water
        Parameter file                 internal GFN2-xTB/ALPB
        Dielectric constant                8.0200E+01
        Reference state                gsolv=reference [X=1]
        Free energy shift                  2.8945E-03 Eh       1.8164E+00 kcal/mol
        Temperature                        2.9815E+02 K
        Density                            1.0000E+00 kg/L
        Solvent mass                       1.8000E+01 g/mol
        Interaction kernel             P16
        Born radius scaling (c1)           1.4744E+00
        Born radii integrator          GBOBC
        Born offset                        0.0000E+00 a0       0.0000E+00 AA
        H-bond correction              true
        Ion screening                  false
        Surface tension                    1.0000E-05 Eh       1.5569E+01 dyn/cm
        Grid points                               974 per atom

          ...................................................
          :                      SETUP                      :
          :.................................................:
          :  # basis functions                 134          :
          :  # atomic orbitals                 128          :
          :  # shells                           66          :
          :  # electrons                       116          :
          :  max. iterations                   250          :
          :  Hamiltonian                  GFN2-xTB          :
          :  restarted?                      false          :
          :  GBSA solvation                   true          :
          :  PC potential                    false          :
          :  electronic temp.          300.0000000     K    :
          :  accuracy                    1.0000000          :
          :  -> integral cutoff          0.2500000E+02      :
          :  -> integral neglect         0.1000000E-07      :
          :  -> SCF convergence          0.1000000E-05 Eh   :
          :  -> wf. convergence          0.1000000E-03 e    :
          :  Broyden damping             0.4000000          :
          :  net charge                          0          :
          :  unpaired electrons                  0          :
          ...................................................

 iter      E             dE          RMSdq      gap      omega  full diag
   1    -65.4439384 -0.654439E+02  0.641E+00    4.16       0.0  T
   2    -65.5648128 -0.120874E+00  0.372E+00    3.57       1.0  T
   3    -65.5842248 -0.194120E-01  0.110E+00    3.06       1.0  T
   4    -65.5867432 -0.251838E-02  0.515E-01    3.01       1.0  T
   5    -65.5873886 -0.645384E-03  0.269E-01    3.06       1.0  T
   6    -65.5875614 -0.172855E-03  0.125E-01    3.05       1.0  T
   7    -65.5876190 -0.575688E-04  0.442E-02    3.07       1.0  T
   8    -65.5876230 -0.398722E-05  0.184E-02    3.07       1.0  T
   9    -65.5876239 -0.941057E-06  0.524E-03    3.07       3.0  T
  10    -65.5876240 -0.229871E-07  0.252E-03    3.07       6.2  T
  11    -65.5876240 -0.321067E-07  0.835E-04    3.07      18.7  T
  12    -65.5876240 -0.149836E-08  0.503E-04    3.07      31.1  T

   *** convergence criteria satisfied after 12 iterations ***

         #    Occupation            Energy/Eh            Energy/eV
      -------------------------------------------------------------
         1        2.0000           -0.7648109             -20.8116
       ...           ...                  ...                  ...
        52        2.0000           -0.4427453             -12.0477
        53        2.0000           -0.4199170             -11.4265
        54        2.0000           -0.4125408             -11.2258
        55        2.0000           -0.3969420             -10.8013
        56        2.0000           -0.3937111             -10.7134
        57        2.0000           -0.3916536             -10.6574
        58        2.0000           -0.3882718             -10.5654 (HOMO)
        59                         -0.2756165              -7.4999 (LUMO)
        60                         -0.2556488              -6.9566
        61                         -0.2189193              -5.9571
        62                         -0.1880831              -5.1180
        63                         -0.1824382              -4.9644
       ...                                ...                  ...
       128                          1.2718260              34.6081
      -------------------------------------------------------------
                  HL-Gap            0.1126553 Eh            3.0655 eV
             Fermi-level           -0.3319442 Eh           -9.0327 eV

 SCC (total)                   0 d,  0 h,  0 min,  0.064 sec
 SCC setup                      ...        0 min,  0.002 sec (  3.863%)
 Dispersion                     ...        0 min,  0.000 sec (  0.458%)
 classical contributions        ...        0 min,  0.000 sec (  0.088%)
 integral evaluation            ...        0 min,  0.013 sec ( 19.779%)
 iterations                     ...        0 min,  0.026 sec ( 40.670%)
 molecular gradient             ...        0 min,  0.022 sec ( 34.772%)
 printout                       ...        0 min,  0.000 sec (  0.342%)

         :::::::::::::::::::::::::::::::::::::::::::::::::::::
         ::                     SUMMARY                     ::
         :::::::::::::::::::::::::::::::::::::::::::::::::::::
         :: total energy             -65.025826833386 Eh    ::
         :: total w/o Gsasa/hb       -65.029168284993 Eh    ::
         :: gradient norm              0.000133967529 Eh/a0 ::
         :: HOMO-LUMO gap              3.065506881243 eV    ::
         ::.................................................::
         :: SCC energy               -65.586347129155 Eh    ::
         :: -> isotropic ES            0.121819681312 Eh    ::
         :: -> anisotropic ES         -0.014256453766 Eh    ::
         :: -> anisotropic XC          0.030185337709 Eh    ::
         :: -> dispersion             -0.052781674861 Eh    ::
         :: -> Gsolv                  -0.018964688820 Eh    ::
         ::    -> Gelec               -0.022306140428 Eh    ::
         ::    -> Gsasa                0.004461502862 Eh    ::
         ::    -> Ghb                 -0.004014600415 Eh    ::
         ::    -> Gshift               0.002894549160 Eh    ::
         :: repulsion energy           0.560520295769 Eh    ::
         :: add. restraining           0.000000000000 Eh    ::
         :: total charge               0.000000000000 e     ::
         :::::::::::::::::::::::::::::::::::::::::::::::::::::

           -------------------------------------------------
          |                Property Printout                |
           -------------------------------------------------

    * Orbital Energies and Occupations

         #    Occupation            Energy/Eh            Energy/eV
      -------------------------------------------------------------
         1        2.0000           -0.7648109             -20.8116
       ...           ...                  ...                  ...
        46        2.0000           -0.4660140             -12.6809
        47        2.0000           -0.4614745             -12.5574
        48        2.0000           -0.4557603             -12.4019
        49        2.0000           -0.4523460             -12.3090
        50        2.0000           -0.4512922             -12.2803
        51        2.0000           -0.4474892             -12.1768
        52        2.0000           -0.4427453             -12.0477
        53        2.0000           -0.4199170             -11.4265
        54        2.0000           -0.4125408             -11.2258
        55        2.0000           -0.3969420             -10.8013
        56        2.0000           -0.3937111             -10.7134
        57        2.0000           -0.3916536             -10.6574
        58        2.0000           -0.3882718             -10.5654 (HOMO)
        59                         -0.2756165              -7.4999 (LUMO)
        60                         -0.2556488              -6.9566
        61                         -0.2189193              -5.9571
        62                         -0.1880831              -5.1180
        63                         -0.1824382              -4.9644
        64                         -0.1801464              -4.9020
        65                         -0.1623029              -4.4165
        66                         -0.1501125              -4.0848
        67                         -0.1355546              -3.6886
        68                         -0.1287014              -3.5021
        69                         -0.0537476              -1.4625
       ...                                ...                  ...
       128                          1.2718260              34.6081
      -------------------------------------------------------------
                  HL-Gap            0.1126553 Eh            3.0655 eV
             Fermi-level           -0.3319442 Eh           -9.0327 eV

     #   Z          covCN         q      C6AA      α(0)
     1   6 C        3.751    -0.132    23.097     6.854
     2   6 C        3.816     0.069    19.412     6.271
     3   8 O        1.654    -0.260    18.324     5.779
     4  15 P        3.787     0.376   144.594    21.601
     5  16 S        0.926    -0.461   159.520    21.363
     6   8 O        1.655    -0.251    18.181     5.756
     7   6 C        3.841     0.081    19.212     6.235
     8   6 C        3.751    -0.127    22.991     6.838
     9  16 S        2.016    -0.151   147.410    20.435
    10   6 C        3.824     0.041    19.866     6.343
    11  16 S        2.015    -0.140   146.957    20.403
    12  15 P        3.839     0.381   144.411    21.587
    13  16 S        0.926    -0.475   160.206    21.409
    14   8 O        1.655    -0.255    18.243     5.766
    15   6 C        3.825     0.069    19.410     6.269
    16   6 C        3.752    -0.125    22.963     6.834
    17   8 O        1.655    -0.257    18.281     5.772
    18   6 C        3.868     0.078    19.240     6.237
    19   6 C        3.751    -0.127    23.006     6.840
    20   1 H        0.925     0.090     1.883     2.146
    21   1 H        0.925     0.073     2.050     2.239
    22   1 H        0.925     0.064     2.155     2.295
    23   1 H        0.924     0.074     2.044     2.236
    24   1 H        0.924     0.098     1.807     2.102
    25   1 H        0.924     0.081     1.969     2.194
    26   1 H        0.924     0.052     2.296     2.370
    27   1 H        0.925     0.058     2.224     2.332
    28   1 H        0.925     0.075     2.031     2.229
    29   1 H        0.925     0.079     1.991     2.207
    30   1 H        0.925     0.093     1.846     2.125
    31   1 H        0.925     0.094     1.841     2.122
    32   1 H        0.924     0.099     1.797     2.096
    33   1 H        0.924     0.071     2.078     2.254
    34   1 H        0.925     0.067     2.116     2.275
    35   1 H        0.925     0.084     1.941     2.179
    36   1 H        0.925     0.053     2.282     2.362
    37   1 H        0.924     0.063     2.168     2.303
    38   1 H        0.924     0.090     1.879     2.144
    39   1 H        0.925     0.074     2.047     2.237
    40   1 H        0.925     0.053     2.279     2.361
    41   1 H        0.925     0.083     1.948     2.182

 Mol. C6AA /au·bohr⁶  :      26396.301099
 Mol. C8AA /au·bohr⁸  :     862658.547391
 Mol. α(0) /au        :        257.579378


Wiberg/Mayer (AO) data.
largest (>0.10) Wiberg bond orders for each atom

 ---------------------------------------------------------------------------
     #   Z sym  total        # sym  WBO       # sym  WBO       # sym  WBO
 ---------------------------------------------------------------------------
     1   6 C    3.984 --     2 C    1.025    21 H    0.981    20 H    0.974
                            22 H    0.973
     2   6 C    3.879 --     1 C    1.025    23 H    0.968    24 H    0.964
                             3 O    0.861
     3   8 O    2.405 --     4 P    1.364     2 C    0.861
     4  15 P    5.296 --     5 S    1.539     3 O    1.364     6 O    1.315
                             9 S    0.946
     5  16 S    1.867 --     4 P    1.539     9 S    0.137
     6   8 O    2.415 --     4 P    1.315     7 C    0.889
     7   6 C    3.893 --     8 C    1.019    25 H    0.967    26 H    0.966
                             6 O    0.889
     8   6 C    3.985 --     7 C    1.019    28 H    0.982    27 H    0.977
                            29 H    0.977
     9  16 S    2.280 --    10 C    0.992     4 P    0.946     5 S    0.137
    10   6 C    3.952 --     9 S    0.992    11 S    0.986    30 H    0.951
                            31 H    0.948
    11  16 S    2.295 --    10 C    0.986    12 P    0.985    13 S    0.135
    12  15 P    5.284 --    13 S    1.497    14 O    1.326    17 O    1.319
                            11 S    0.985
    13  16 S    1.833 --    12 P    1.497    11 S    0.135
    14   8 O    2.411 --    12 P    1.326    15 C    0.885
    15   6 C    3.889 --    16 C    1.023    33 H    0.968    32 H    0.963
                            14 O    0.885
    16   6 C    3.988 --    15 C    1.023    34 H    0.982    35 H    0.976
                            36 H    0.974
    17   8 O    2.398 --    12 P    1.319    18 C    0.879
    18   6 C    3.890 --    19 C    1.023    37 H    0.966    38 H    0.965
                            17 O    0.879
    19   6 C    3.987 --    18 C    1.023    39 H    0.982    41 H    0.976
                            40 H    0.976
    20   1 H    0.991 --     1 C    0.974
    21   1 H    0.995 --     1 C    0.981
    22   1 H    0.996 --     1 C    0.973
    23   1 H    0.994 --     2 C    0.968
    24   1 H    0.990 --     2 C    0.964
    25   1 H    0.993 --     7 C    0.967
    26   1 H    0.997 --     7 C    0.966
    27   1 H    0.997 --     8 C    0.977
    28   1 H    0.994 --     8 C    0.982
    29   1 H    0.993 --     8 C    0.977
    30   1 H    0.991 --    10 C    0.951
    31   1 H    0.991 --    10 C    0.948
    32   1 H    0.990 --    15 C    0.963
    33   1 H    0.995 --    15 C    0.968
    34   1 H    0.995 --    16 C    0.982
    35   1 H    0.992 --    16 C    0.976
    36   1 H    0.997 --    16 C    0.974
    37   1 H    0.996 --    18 C    0.966
    38   1 H    0.991 --    18 C    0.965
    39   1 H    0.995 --    19 C    0.982
    40   1 H    0.997 --    19 C    0.976
    41   1 H    0.992 --    19 C    0.976
 ---------------------------------------------------------------------------

Topologies differ in total number of bonds
Writing topology from bond orders to xtbtopo.mol

molecular dipole:
                 x           y           z       tot (Debye)
 q only:       -1.121      -2.860       1.437
   full:       -0.813      -2.864       1.460       8.428
molecular quadrupole (traceless):
                xx          xy          yy          xz          yz          zz
 q only:       -9.398     -24.804       8.059     -23.494       7.984       1.339
  q+dip:       -4.372     -24.652       3.261     -23.167       3.313       1.111
   full:       -4.530     -24.323       3.699     -24.126       5.473       0.831


           -------------------------------------------------
          | TOTAL ENERGY              -65.025826833386 Eh   |
          | GRADIENT NORM               0.000133967529 Eh/α |
          | HOMO-LUMO GAP               3.065506881243 eV   |
           -------------------------------------------------

------------------------------------------------------------------------
 * finished run on 2025/04/09 at 05:20:58.478     
------------------------------------------------------------------------
 total:
 * wall-time:     0 d,  0 h,  0 min,  0.101 sec
 *  cpu-time:     0 d,  0 h,  0 min,  0.072 sec
 * ratio c/w:     0.717 speedup
 SCF:
 * wall-time:     0 d,  0 h,  0 min,  0.064 sec
 *  cpu-time:     0 d,  0 h,  0 min,  0.059 sec
 * ratio c/w:     0.924 speedup

