      -----------------------------------------------------------      
     |                   =====================                   |     
     |                           x T B                           |     
     |                   =====================                   |     
     |                         S. Grimme                         |     
     |          Mulliken Center for Theoretical Chemistry        |     
     |                    University of Bonn                     |     
      -----------------------------------------------------------      

   * xtb version 6.7.1 (edcfbbe) compiled by 'albert@albert-system' on 2024-07-22

   xtb is free software: you can redistribute it and/or modify it under
   the terms of the GNU Lesser General Public License as published by
   the Free Software Foundation, either version 3 of the License, or
   (at your option) any later version.
   
   xtb is distributed in the hope that it will be useful,
   but WITHOUT ANY WARRANTY; without even the implied warranty of
   MERCHANTABILITY or FITNESS FOR A PARTICULAR PURPOSE.  See the
   GNU Lesser General Public License for more details.
   
   Cite this work as:
   * C. Bannwarth, E. Caldeweyher, S. Ehlert, A. Hansen, P. Pracht,
     J. Seibert, S. Spicher, S. Grimme, WIREs Comput. Mol. Sci., 2020, 11,
     e01493. DOI: 10.1002/wcms.1493
   
   for GFN2-xTB:
   * C. Bannwarth, S. Ehlert and S. Grimme., J. Chem. Theory Comput., 2019,
     15, 1652-1671. DOI: 10.1021/acs.jctc.8b01176
   for GFN1-xTB:
   * S. Grimme, C. Bannwarth, P. Shushkov, J. Chem. Theory Comput., 2017,
     13, 1989-2009. DOI: 10.1021/acs.jctc.7b00118
   for GFN0-xTB:
   * P. Pracht, E. Caldeweyher, S. Ehlert, S. Grimme, ChemRxiv, 2019, preprint.
     DOI: 10.26434/chemrxiv.8326202.v1
   for GFN-FF:
   * S. Spicher and S. Grimme, Angew. Chem. Int. Ed., 2020, 59, 15665-15673.
     DOI: 10.1002/anie.202004239
   
   for ALPB and GBSA implicit solvation:
   * S. Ehlert, M. Stahn, S. Spicher, S. Grimme, J. Chem. Theory Comput.,
     2021, 17, 4250-4261. DOI: 10.1021/acs.jctc.1c00471
   
   for ddCOSMO and CPCM-X implicit solvation:
   * M. Stahn, S. Ehlert, S. Grimme, J. Phys. Chem. A,
     2023, XX, XXXX-XXXX. DOI: 10.1021/acs.jpca.3c04382
   
   for DFT-D4:
   * E. Caldeweyher, C. Bannwarth and S. Grimme, J. Chem. Phys., 2017,
     147, 034112. DOI: 10.1063/1.4993215
   * E. Caldeweyher, S. Ehlert, A. Hansen, H. Neugebauer, S. Spicher,
     C. Bannwarth and S. Grimme, J. Chem. Phys., 2019, 150, 154122.
     DOI: 10.1063/1.5090222
   * E. Caldeweyher, J.-M. Mewes, S. Ehlert and S. Grimme, Phys. Chem. Chem. Phys.
     2020, 22, 8499-8512. DOI: 10.1039/D0CP00502A
   
   for sTDA-xTB:
   * S. Grimme and C. Bannwarth, J. Chem. Phys., 2016, 145, 054103.
     DOI: 10.1063/1.4959605
   
   in the mass-spec context:
   * V. Asgeirsson, C. Bauer and S. Grimme, Chem. Sci., 2017, 8, 4879.
     DOI: 10.1039/c7sc00601b
   * J. Koopman and S. Grimme, ACS Omega 2019, 4, 12, 15120-15133.
     DOI: 10.1021/acsomega.9b02011
   
   for metadynamics refer to:
   * S. Grimme, J. Chem. Theory Comput., 2019, 155, 2847-2862
     DOI: 10.1021/acs.jctc.9b00143
   
   for SPH calculations refer to:
   * S. Spicher and S. Grimme, J. Chem. Theory Comput., 2021, 17, 1701-1714
     DOI: 10.1021/acs.jctc.0c01306
   
   for ONIOM refer to:
   * C. Plett, A. Katbashev, S. Ehlert, S. Grimme, M. Bursch,
     Phys. Chem. Chem. Phys., 2023, 25, 17860-17868. DOI: 10.1039/D3CP02178E
   
   for DIPRO refer to:
   * J. Kohn, N. Gildemeister, S. Grimme, D. Fazzi, A. Hansen,
     J. Chem. Phys., 2023, just accepted.
   
   for PTB refer to:
   * S. Grimme, M. Mueller, A. Hansen, J. Chem. Phys., 2023, 158, 124111.
     DOI: 10.1063/5.0137838
   
   with help from (in alphabetical order)
   P. Atkinson, C. Bannwarth, F. Bohle, G. Brandenburg, E. Caldeweyher
   M. Checinski, S. Dohm, S. Ehlert, S. Ehrlich, I. Gerasimov, C. Hölzer
   A. Katbashev, J. Kohn, J. Koopman, C. Lavigne, S. Lehtola, F. März, M. Müller,
   F. Musil, H. Neugebauer, J. Pisarek, C. Plett, P. Pracht, F. Pultar,
   J. Seibert, P. Shushkov, S. Spicher, M. Stahn, M. Steiner, T. Strunk,
   J. Stückrath, T. Rose, and J. Unsleber
   
 * started run on 2025/04/11 at 01:50:46.156     
   ID    Z sym.   atoms
    1    6 C      1, 2, 7, 8, 10, 15, 16, 18, 19
    2    8 O      3, 6, 14, 17
    3   15 P      4, 12
    4   16 S      5, 9, 11, 13
    5    1 H      20-41

           -------------------------------------------------
          |                Calculation Setup                |
           -------------------------------------------------

          program call               : /srv/scratch/z5358697/.xtb/bin/xtb xtb_opt.coord --opt normal --orca -I xtb_opt-xcontrol-inp
          hostname                   : k163
          coordinate file            : xtb_opt.coord
          omp threads                :                    24

           -------------------------------------------------
          |                   Orca driver                   |
           -------------------------------------------------
orca executable           : /apps/z_install_tree/linux-rocky8-ivybridge/gcc-12.2.0/orca-6.0.0-srtngmq3qlimg2qxbl6avaaiffipurdx/bin/orca
orca input file           : xtb_opt.inp
orca input line           : 
orca parallel             : true
orca number of threads    : 24
                         * ORCA takes the control...
  ------------------------------------------------------------------------

                                 *****************
                                 * O   R   C   A *
                                 *****************

                                            #,                                       
                                            ###                                      
                                            ####                                     
                                            #####                                    
                                            ######                                   
                                           ########,                                 
                                     ,,################,,,,,                         
                               ,,#################################,,                 
                          ,,##########################################,,             
                       ,#########################################, ''#####,          
                    ,#############################################,,   '####,        
                  ,##################################################,,,,####,       
                ,###########''''           ''''###############################       
              ,#####''   ,,,,##########,,,,          '''####'''          '####       
            ,##' ,,,,###########################,,,                        '##       
           ' ,,###''''                  '''############,,,                           
         ,,##''                                '''############,,,,        ,,,,,,###''
      ,#''                                            '''#######################'''  
     '                                                          ''''####''''         
             ,#######,   #######,   ,#######,      ##                                
            ,#'     '#,  ##    ##  ,#'     '#,    #''#        ,####,   ,####,        
            ##       ##  ##   ,#'  ##            #'  '#       #'       #'  '#        
            ##       ##  #######   ##           ,######,      #####,   #    #        
            '#,     ,#'  ##    ##  '#,     ,#' ,#      #,     #,   #   #,  ,#        
             '#######'   ##     ##  '#######'  #'      '#     '####' # '####'        



                #########################################################
                #                        -***-                          #
                #          Department of theory and spectroscopy        #
                #                                                       #
                #                      Frank Neese                      #
                #                                                       #
                #     Directorship, Architecture, Infrastructure        #
                #                    SHARK, DRIVERS                     #
                #        Core code/Algorithms in most modules           #
                #                                                       #
                #        Max Planck Institute fuer Kohlenforschung      #
                #                Kaiser Wilhelm Platz 1                 #
                #                 D-45470 Muelheim/Ruhr                 #
                #                      Germany                          #
                #                                                       #
                #                  All rights reserved                  #
                #                        -***-                          #
                #########################################################


                         Program Version 6.0.0  -   RELEASE  -


 With contributions from (in alphabetic order):
   Daniel Aravena         : Magnetic Suceptibility
   Michael Atanasov       : Ab Initio Ligand Field Theory (pilot matlab implementation)
   Alexander A. Auer      : GIAO ZORA, VPT2 properties, NMR spectrum
   Ute Becker             : All parallelization in ORCA, NUMFREQ, NUMCALC
   Giovanni Bistoni       : ED, misc. LED, open-shell LED, HFLD
   Martin Brehm           : Molecular dynamics
   Dmytro Bykov           : pre 5.0 version of the SCF Hessian
   Marcos Casanova-Páez   : Triplet and SCS-CIS(D). UHF-(DLPNO)-IP/EA/STEOM-CCSD. UHF-CVS-IP/STEOM-CCSD
   Vijay G. Chilkuri      : MRCI spin determinant printing, contributions to CSF-ICE
   Pauline Colinet        : FMM embedding
   Dipayan Datta          : RHF DLPNO-CCSD density
   Achintya Kumar Dutta   : EOM-CC, STEOM-CC
   Nicolas Foglia         : Exact transition moments, OPA infrastructure, MCD improvements
   Dmitry Ganyushin       : Spin-Orbit,Spin-Spin,Magnetic field MRCI
   Miquel Garcia          : C-PCM and meta-GGA Hessian, CCSD/C-PCM, Gaussian charge scheme
   Tiago L. C. Gouveia    : GS-ROHF, GS-ROCIS
   Yang Guo               : DLPNO-NEVPT2, F12-NEVPT2, CIM, IAO-localization
   Andreas Hansen         : Spin unrestricted coupled pair/coupled cluster methods
   Ingolf Harden          : AUTO-CI MPn and infrastructure 
   Benjamin Helmich-Paris : MC-RPA, TRAH-(SCF,CASSCF), AVAS, COSX integrals, SCF dyn. polar.
   Lee Huntington         : MR-EOM, pCC
   Robert Izsak           : Overlap fitted RIJCOSX, COSX-SCS-MP3, EOM
   Riya Kayal             : Wick's Theorem for AUTO-CI, AUTO-CI UHF-CCSDT
   Emily Kempfer          : AUTO-CI, RHF CISDT and CCSDT
   Christian Kollmar      : KDIIS, OOCD, Brueckner-CCSD(T), CCSD density, CASPT2, CASPT2-K, improved NEVPT2
   Axel Koslowski         : Symmetry handling
   Simone Kossmann        : Meta GGA functionals, TD-DFT gradient, OOMP2, (MP2 Hessian; deprecated post 5.0)
   Lucas Lang             : DCDCAS
   Marvin Lechner         : AUTO-CI (C++ implementation), FIC-MRCC
   Spencer Leger          : CASSCF response
   Dagmar Lenk            : GEPOL surface, SMD, ORCA-2-JSON
   Dimitrios Liakos       : Extrapolation schemes; Compound Job, initial MDCI parallelization
   Dimitrios Manganas     : Further ROCIS development; embedding schemes. LFT, Crystal Embedding
   Dimitrios Pantazis     : SARC Basis sets
   Anastasios Papadopoulos: AUTO-CI, single reference methods and gradients
   Taras Petrenko         : pre 6.0 DFT Hessian and TD-DFT gradient, (ASA, deprecated), ECA, 1-Electron XAS/XES, NRVS
   Peter Pinski           : DLPNO-MP2, DLPNO-MP2 Gradient
   Christoph Reimann      : Effective Core Potentials
   Marius Retegan         : Local ZFS, SOC
   Christoph Riplinger    : Optimizer, TS searches, QM/MM, DLPNO-CCSD(T), (RO)-DLPNO pert. Triples
   Michael Roemelt        : Original ROCIS implementation
   Masaaki Saitow         : Open-shell DLPNO-CCSD energy and density
   Barbara Sandhoefer     : DKH picture change effects
   Kantharuban Sivalingam : CASSCF convergence/infrastructure, NEVPT2 and variants, FIC-MRCI
   Bernardo de Souza      : ESD, SOC TD-DFT
   Georgi Stoychev        : AutoAux, RI-MP2 NMR, DLPNO-MP2 response, X2C
   Van Anh Tran           : RI-MP2 g-tensors
   Willem Van den Heuvel  : Paramagnetic NMR
   Zikuan Wang            : NOTCH, Electric field optimization 
   Frank Wennmohs         : Technical directorship and infrastructure
   Hang Xu                : AUTO-CI-Response properties 


 We gratefully acknowledge several colleagues who have allowed us to
 interface, adapt or use parts of their codes:
   Stefan Grimme, W. Hujo, H. Kruse, P. Pracht,  : VdW corrections, initial TS optimization,
                  C. Bannwarth, S. Ehlert,         DFT functionals, gCP, sTDA/sTD-DF
                  L. Wittmann, M. Mueller
   Ed Valeev, F. Pavosevic, A. Kumar             : LibInt (2-el integral package), F12 methods
   Garnet Chan, S. Sharma, J. Yang, R. Olivares  : DMRG
   Ulf Ekstrom                                   : XCFun DFT Library
   Mihaly Kallay                                 : mrcc  (arbitrary order and MRCC methods)
   Frank Weinhold                                : gennbo (NPA and NBO analysis)
   Simon Mueller                                 : openCOSMO-RS
   Christopher J. Cramer and Donald G. Truhlar   : smd solvation model
   Lars Goerigk                                  : TD-DFT with DH, B97 family of functionals
   V. Asgeirsson, H. Jonsson                     : NEB implementation
   FAccTs GmbH                                   : IRC, NEB, NEB-TS, DLPNO-Multilevel, CI-OPT
                                                   MM, QMMM, 2- and 3-layer-ONIOM, Crystal-QMMM,
                                                   LR-CPCM, SF, NACMEs, symmetry and pop. for TD-DFT,
                                                   nearIR, NL-DFT gradient (VV10), updates on ESD,
                                                   ML-optimized integration grids, MBIS, APM,
                                                   GOAT, DOCKER, SOLVATOR, interface openCOSMO-RS
   S Lehtola, MJT Oliveira, MAL Marques          : LibXC Library
   Liviu Ungur et al                             : ANISO software


 Your calculation uses the libint2 library for the computation of 2-el integrals
 For citations please refer to: http://libint.valeyev.net

 Your ORCA version has been built with support for libXC version: 6.2.2
 For citations please refer to: https://libxc.gitlab.io

 This ORCA versions uses:
   CBLAS   interface :  Fast vector & matrix operations
   LAPACKE interface :  Fast linear algebra routines
   SCALAPACK package :  Parallel linear algebra routines
   Shared memory     :  Shared parallel matrices
   BLAS/LAPACK       :  OpenBLAS 0.3.27  USE64BITINT DYNAMIC_ARCH NO_AFFINITY SapphireRapids SINGLE_THREADED
        Core in use  :  SapphireRapids
   Copyright (c) 2011-2014, The OpenBLAS Project




***************************************
The coordinates will be read from file: xtb_opt.xyz
***************************************


Your calculation utilizes the geometrical counterpoise correction gCP
Please cite in your paper:
H.Kruse, S. Grimme J.Chem.Phys., 136, (2012), 154101 
   

Your calculation utilizes the atom-pairwise dispersion correction
based on EEQ partial charges (D4)


Your calculation utilizes the SMD solvation module
Please cite in your paper:
A.V. Marenich, C.J. Cramer, D.G. Truhlar J. Phys. Chem. B, 113, (2009), 6378 

================================================================================

----- Orbital basis set information -----
Your calculation utilizes the basis: def2-mTZVPP
   Stefan Grimme, Andreas Hansen, Sebastian Ehlert, and Jan-Michael Mewes 
   J. Chem. Phys. 154, 064103 (2021). DOI: 10.1063/5.0040021

----- AuxJ basis set information -----
Your calculation utilizes the auxiliary basis: def2/J
   F. Weigend, Phys. Chem. Chem. Phys. 8, 1057 (2006).

================================================================================
                                        WARNINGS
                       Please study these warnings very carefully!
================================================================================

WARNING: Old DensityContainer found on disk!
         Will remove this file - 
         If you want to keep old densities, please start your calculation with a different basename. 

Using LibXC functional ID 497 : Re-regularized SCAN exchange by Furness et al
[ 1]  J. W. Furness, A. D. Kaplan, J. Ning, J. P. Perdew, and J. Sun.,  J. Phys. Chem. Lett. 11, 8208-8215 (2020)
[ 2]  J. W. Furness, A. D. Kaplan, J. Ning, J. P. Perdew, and J. Sun.,  J. Phys. Chem. Lett. 11, 9248-9248 (2020)
Using LibXC functional ID 498 : Re-regularized SCAN correlation by Furness et al
[ 1]  J. W. Furness, A. D. Kaplan, J. Ning, J. P. Perdew, and J. Sun.,  J. Phys. Chem. Lett. 11, 8208-8215 (2020)
[ 2]  J. W. Furness, A. D. Kaplan, J. Ning, J. P. Perdew, and J. Sun.,  J. Phys. Chem. Lett. 11, 9248-9248 (2020)
Using LibXC functional ID 497 : Re-regularized SCAN exchange by Furness et al
[ 1]  J. W. Furness, A. D. Kaplan, J. Ning, J. P. Perdew, and J. Sun.,  J. Phys. Chem. Lett. 11, 8208-8215 (2020)
[ 2]  J. W. Furness, A. D. Kaplan, J. Ning, J. P. Perdew, and J. Sun.,  J. Phys. Chem. Lett. 11, 9248-9248 (2020)
Using LibXC functional ID 498 : Re-regularized SCAN correlation by Furness et al
[ 1]  J. W. Furness, A. D. Kaplan, J. Ning, J. P. Perdew, and J. Sun.,  J. Phys. Chem. Lett. 11, 8208-8215 (2020)
[ 2]  J. W. Furness, A. D. Kaplan, J. Ning, J. P. Perdew, and J. Sun.,  J. Phys. Chem. Lett. 11, 9248-9248 (2020)

================================================================================
                                       INPUT FILE
================================================================================
NAME = xtb_opt.inp
|  1> ! r2scan-3c def2/J RI DEFGRID2 scfconv7 ENGRAD tightSCF miniprint
|  2> %cpcm
|  3>     smd true
|  4>     smdsolvent "water"
|  5> end
|  6> * xyzfile 0 1 xtb_opt.xyz
|  7> 
|  8>                          ****END OF INPUT****
================================================================================

                     *******************************
                     * Energy+Gradient Calculation *
                     *******************************

---------------------------------
CARTESIAN COORDINATES (ANGSTROEM)
---------------------------------
  C      5.737688   -1.327313   -1.604705
  C      4.373929   -0.786918   -1.951589
  O      3.420444   -1.255007   -0.933562
  P      2.423160   -0.232865   -0.189580
  S      3.215528    1.394057    0.535001
  O      1.705578   -1.223402    0.850238
  C      2.328125   -1.531989    2.154968
  C      1.514396   -0.902504    3.255554
  S      0.917123    0.023460   -1.651674
  C      0.085089    1.541516   -1.039574
  S     -0.842351    1.399995    0.533921
  P     -2.629737    0.382614   -0.031630
  S     -2.886668    0.184945   -1.949251
  O     -3.761958    1.149625    0.809635
  C     -4.254032    2.453315    0.351145
  C     -5.140713    3.001251    1.439178
  O     -2.651432   -0.949970    0.866010
  C     -1.727106   -2.047695    0.556806
  C     -2.529233   -3.260914    0.146148
  H      5.715964   -2.418125   -1.525233
  H      6.443011   -1.053235   -2.395974
  H      6.093936   -0.906877   -0.659455
  H      4.009903   -1.169727   -2.908927
  H      4.371117    0.307216   -1.978614
  H      2.324138   -2.622864    2.213145
  H      3.363403   -1.179130    2.158841
  H      1.935066   -1.201177    4.222084
  H      1.538185    0.188812    3.188460
  H      0.474560   -1.240911    3.213228
  H     -0.589314    1.853719   -1.841030
  H      0.837061    2.316775   -0.865928
  H     -3.395538    3.107791    0.163583
  H     -4.801967    2.299655   -0.583394
  H     -5.984164    2.331929    1.630345
  H     -4.579912    3.146314    2.366939
  H     -5.534576    3.970268    1.116931
  H     -1.031541   -1.739945   -0.234905
  H     -1.157301   -2.219650    1.476594
  H     -3.063850   -3.075528   -0.792239
  H     -1.848941   -4.105904   -0.001465
  H     -3.251287   -3.530262    0.924085

----------------------------
CARTESIAN COORDINATES (A.U.)
----------------------------
  NO LB      ZA    FRAG     MASS         X           Y           Z
   0 C     6.0000    0    12.011   10.842658   -2.508257   -3.032454
   1 C     6.0000    0    12.011    8.265529   -1.487059   -3.687969
   2 O     8.0000    0    15.999    6.463703   -2.371619   -1.764176
   3 P    15.0000    0    30.974    4.579108   -0.440052   -0.358253
   4 S    16.0000    0    32.060    6.076468    2.634387    1.011005
   5 O     8.0000    0    15.999    3.223075   -2.311894    1.606717
   6 C     6.0000    0    12.011    4.399518   -2.895040    4.072299
   7 C     6.0000    0    12.011    2.861794   -1.705484    6.152106
   8 S    16.0000    0    32.060    1.733112    0.044333   -3.121212
   9 C     6.0000    0    12.011    0.160795    2.913043   -1.964510
  10 S    16.0000    0    32.060   -1.591812    2.645607    1.008964
  11 P    15.0000    0    30.974   -4.969482    0.723036   -0.059772
  12 S    16.0000    0    32.060   -5.455012    0.349495   -3.683550
  13 O     8.0000    0    15.999   -7.109070    2.172476    1.529989
  14 C     6.0000    0    12.011   -8.038956    4.636093    0.663568
  15 C     6.0000    0    12.011   -9.714540    5.671542    2.719653
  16 O     8.0000    0    15.999   -5.010480   -1.795183    1.636521
  17 C     6.0000    0    12.011   -3.263757   -3.869582    1.052211
  18 C     6.0000    0    12.011   -4.779558   -6.162234    0.276180
  19 H     1.0000    0     1.008   10.801606   -4.569594   -2.882273
  20 H     1.0000    0     1.008   12.175526   -1.990325   -4.527736
  21 H     1.0000    0     1.008   11.515870   -1.713749   -1.246189
  22 H     1.0000    0     1.008    7.577619   -2.210463   -5.497076
  23 H     1.0000    0     1.008    8.260213    0.580555   -3.739038
  24 H     1.0000    0     1.008    4.391984   -4.956494    4.182238
  25 H     1.0000    0     1.008    6.355911   -2.228232    4.079618
  26 H     1.0000    0     1.008    3.656745   -2.269896    7.978583
  27 H     1.0000    0     1.008    2.906748    0.356803    6.025317
  28 H     1.0000    0     1.008    0.896789   -2.344982    6.072120
  29 H     1.0000    0     1.008   -1.113642    3.503020   -3.479042
  30 H     1.0000    0     1.008    1.581816    4.378071   -1.636367
  31 H     1.0000    0     1.008   -6.416637    5.872875    0.309127
  32 H     1.0000    0     1.008   -9.074402    4.345719   -1.102456
  33 H     1.0000    0     1.008  -11.308431    4.406707    3.080905
  34 H     1.0000    0     1.008   -8.654778    5.945671    4.472866
  35 H     1.0000    0     1.008  -10.458833    7.502720    2.110693
  36 H     1.0000    0     1.008   -1.949329   -3.288020   -0.443907
  37 H     1.0000    0     1.008   -2.186982   -4.194530    2.790359
  38 H     1.0000    0     1.008   -5.789837   -5.811907   -1.497115
  39 H     1.0000    0     1.008   -3.493993   -7.759034   -0.002768
  40 H     1.0000    0     1.008   -6.144041   -6.671229    1.746267

------------------------------------------------------------------------------
                   ___                                                        
                  /   \      - P O W E R E D   B Y -                         
                 /     \                                                     
                 |  |  |   _    _      __       _____    __    __             
                 |  |  |  | |  | |    /  \     |  _  \  |  |  /  |          
                  \  \/   | |  | |   /    \    | | | |  |  | /  /          
                 / \  \   | |__| |  /  /\  \   | |_| |  |  |/  /          
                |  |  |   |  __  | /  /__\  \  |    /   |      \           
                |  |  |   | |  | | |   __   |  |    \   |  |\   \          
                \     /   | |  | | |  |  |  |  | |\  \  |  | \   \       
                 \___/    |_|  |_| |__|  |__|  |_| \__\ |__|  \__/        
                                                                              
                      - O R C A' S   B I G   F R I E N D -                    
                                      &                                       
                       - I N T E G R A L  F E E D E R -                       
                                                                              
 v1 FN, 2020, v2 2021, v3 2022-2024                                           
------------------------------------------------------------------------------


----------------------
SHARK INTEGRAL PACKAGE
----------------------

Number of atoms                             ...     41
Number of basis functions                   ...    539
Number of shells                            ...    253
Maximum angular momentum                    ...      2
Integral batch strategy                     ... SHARK/LIBINT Hybrid
RI-J (if used) integral strategy            ... SPLIT-RIJ (Revised 2003 algorithm where possible)
Printlevel                                  ...      1
Contraction scheme used                     ... SEGMENTED contraction
Prescreening option                         ... SCHWARTZ
   Thresh                                   ... 3.000e-11
   Tcut                                     ... 1.000e-12
   Tpresel                                  ... 1.000e-12 
Coulomb Range Separation                    ... NOT USED
Exchange Range Separation                   ... NOT USED
Multipole approximations                    ... NOT USED
Finite Nucleus Model                        ... NOT USED
CABS basis                                  ... NOT available
Auxiliary Coulomb fitting basis             ... AVAILABLE
   # of basis functions in Aux-J            ...   1185
   # of shells in Aux-J                     ...    407
   Maximum angular momentum in Aux-J        ...      4
Auxiliary J/K fitting basis                 ... NOT available
Auxiliary Correlation fitting basis         ... NOT available
Auxiliary 'external' fitting basis          ... NOT available

Checking pre-screening integrals            ... done (  0.0 sec) Dimension = 253
Check shell pair data                       ... done (  0.0 sec)
Shell pair information
Shell pair cut-off parameter TPreSel        ...   1.0e-12
Total number of shell pairs                 ...     32131
Shell pairs after pre-screening             ...     20968
Total number of primitive shell pairs       ...    124843
Primitive shell pairs kept                  ...     49172
          la=0 lb=0:   5909 shell pairs
          la=1 lb=0:   7624 shell pairs
          la=1 lb=1:   2507 shell pairs
          la=2 lb=0:   2792 shell pairs
          la=2 lb=1:   1793 shell pairs
          la=2 lb=2:    343 shell pairs

Calculating one electron integrals          ... done (  0.1 sec)
Calculating RI/J V-Matrix + Cholesky decomp.... done (  0.4 sec)
Calculating Nuclear repulsion               ... done (  0.0 sec) ENN=   2674.676022293725 Eh

Diagonalization of the overlap matrix:
Smallest eigenvalue                        ... 3.930e-04
Time for diagonalization                   ...    0.031 sec
Threshold for overlap eigenvalues          ... 1.000e-07
Number of eigenvalues below threshold      ... 0
Time for construction of square roots      ...    0.067 sec
Total time needed                          ...    0.117 sec

-------------------
DFT GRID GENERATION
-------------------

General Integration Accuracy     IntAcc      ... 4.388
Radial Grid Type                 RadialGrid  ... OptM3 with GC (2021)
Angular Grid (max. ang.)         AngularGrid ... 4 (Lebedev-302)
Angular grid pruning method      GridPruning ... 4 (adaptive)
Weight generation scheme         WeightScheme... mBecke (2022)
Basis function cutoff            BFCut       ... 1.0000e-11
Integration weight cutoff        WCut        ... 1.0000e-14
Partially contracted basis set               ... off
Rotationally invariant grid construction     ... off
Angular grids for H and He will be reduced by one unit
Diffuse basis detected: some atoms will have their outermost
                        angular grid increased by 1.

Total number of grid points                  ...   193128
Total number of batches                      ...     3037
Average number of points per batch           ...       63
Average number of grid points per atom       ...     4710
Initializing property integral containers    ... done (  0.1 sec)

SHARK setup successfully completed in   4.2 seconds

Maximum memory used throughout the entire STARTUP-calculation: 101.4 MB
Occupation numbers will be reassigned to an Aufbau configuration
             **** ENERGY FILE WAS UPDATED (xtb_opt.en.tmp) ****
Finished Guess after   0.9 sec
Maximum memory used throughout the entire GUESS-calculation: 54.8 MB
--------------------
CPCM SOLVATION MODEL
--------------------
CPCM parameters:
  Epsilon                                         ...      78.3550
  Refrac                                          ...       1.3328
  Rsolv                                           ...       1.3000
  Surface type                                    ... GAUSSIAN VDW
  Discretization scheme                           ... Constant charge density
    Threshold for H atoms                         ...       5.0000 (charges/Ang^2)
    Threshold for non-H atoms                     ...       5.0000 (charges/Ang^2)
  Epsilon function type                           ...         CPCM
Solvent:                                          ... WATER
SMD-CDS solvent descriptors:
  Soln                                            ...       1.3328
  Soln25                                          ...       1.3323
  Sola                                            ...       0.0000
  Solb                                            ...       0.0000
  Solg                                            ...       0.0000
  Solc                                            ...       0.0000
  Solh                                            ...       0.0000
Radii:
  Scheme                                          ... Element-dependent radii
  Radius for C  used is    3.4960 Bohr (=   1.8500 Ang.)
  Radius for O  used is    2.8724 Bohr (=   1.5200 Ang.)
  Radius for P  used is    4.0062 Bohr (=   2.1200 Ang.)
  Radius for S  used is    4.7054 Bohr (=   2.4900 Ang.)
  Radius for H  used is    2.2677 Bohr (=   1.2000 Ang.)
Calculating surface                               ...        done! (  0.0s)
Cavity surface points                             ...         3479
Cavity Volume                                     ...    2821.9634
Cavity Surface-area                               ...    1444.4926
Calculating surface distance matrix               ...        done! (  0.1s)
Performing Cholesky decomposition & store         ...        done! (  2.0s)
Overall time for CPCM initialization              ...                 2.1s

----------------------------------------D-I-I-S--------------------------------------------
Iteration    Energy (Eh)           Delta-E    RMSDP     MaxDP     DIISErr   Damp  Time(sec)
-------------------------------------------------------------------------------------------
               ***  Starting incremental Fock matrix formation  ***
                              *** Initializing SOSCF ***
---------------------------------------S-O-S-C-F--------------------------------------
Iteration    Energy (Eh)           Delta-E    RMSDP     MaxDP     MaxGrad    Time(sec)
--------------------------------------------------------------------------------------
    1    -2932.5212234497353165     0.00e+00  3.79e-07  2.97e-05  1.50e-06    13.7
               *** Restarting incremental Fock matrix formation ***
    2    -2932.5212234518089645    -2.07e-09  4.07e-07  3.02e-05  3.62e-06    12.9
                  *** Gradient check signals convergence ***

               *****************************************************
               *                     SUCCESS                       *
               *           SCF CONVERGED AFTER   2 CYCLES          *
               *****************************************************


SMD CDS free energy correction energy :                 7.66321     Kcal/mol
Total Energy after SMD CDS correction =             -2932.509011347 Eh
             **** ENERGY FILE WAS UPDATED (xtb_opt.en.tmp) ****

----------------
TOTAL SCF ENERGY
----------------

Total Energy       :      -2932.50901134736978 Eh          -79797.62703 eV

Components:
Nuclear Repulsion  :       2674.67602229372505 Eh           72781.63471 eV
Electronic Energy  :      -5607.17093925766403 Eh         -152578.87822 eV
One Electron Energy:      -9371.56552753146025 Eh         -255013.26263 eV
Two Electron Energy:       3764.39458827379622 Eh          102434.38441 eV
CPCM Dielectric    :         -0.02630648786974 Eh              -0.71584 eV
SMD CDS (Gcds)     :          0.01221210443897 Eh               0.33231 eV

Virial components:
Potential Energy   :      -5855.60586702791898 Eh         -159339.13629 eV
Kinetic Energy     :       2923.09685568054920 Eh           79541.50926 eV
Virial Ratio       :          2.00321992603445

DFT components:
N(Alpha)           :      100.999920818568 electrons
N(Beta)            :      100.999920818568 electrons
N(Total)           :      201.999841637136 electrons
E(X)               :     -233.393893736627 Eh       
E(C)               :       -7.102297251945 Eh       
E(XC)              :     -240.496190988571 Eh       

CPCM Solvation Model Properties:
Surface-charge          :         -0.04865859855163
Corrected charge        :         -0.00000000000000
Outlying charge corr.   :          0.00011848826388 Eh               0.00322 eV
Free-energy (cav+disp)  :          0.01221210443897 Eh               0.33231 eV

---------------
SCF CONVERGENCE
---------------

  Last Energy change         ...    2.0736e-09  Tolerance :   1.0000e-07
  Last MAX-Density change    ...    3.0250e-05  Tolerance :   1.0000e-07
  Last RMS-Density change    ...    4.0728e-07  Tolerance :   5.0000e-09
  Last DIIS Error            ...    3.8740e-05  Tolerance :   1.0000e-07
  Last Orbital Gradient      ...    3.6222e-06  Tolerance :   1.0000e-04
  Last Orbital Rotation      ...    6.7032e-06  Tolerance :   1.0000e-04


----------------
ORBITAL ENERGIES
----------------

  NO   OCC          E(Eh)            E(eV) 
   0   2.0000     -88.583742     -2410.4862 
   1   2.0000     -88.582774     -2410.4598 
   2   2.0000     -88.534128     -2409.1361 
   3   2.0000     -88.531140     -2409.0548 
   4   2.0000     -76.922323     -2093.1628 
   5   2.0000     -76.921790     -2093.1483 
   6   2.0000     -18.996631      -516.9246 
   7   2.0000     -18.994704      -516.8722 
   8   2.0000     -18.994230      -516.8593 
   9   2.0000     -18.993023      -516.8264 
  10   2.0000     -10.110528      -275.1214 
  11   2.0000     -10.093245      -274.6511 
  12   2.0000     -10.093060      -274.6461 
  13   2.0000     -10.092795      -274.6389 
  14   2.0000     -10.092320      -274.6260 
  15   2.0000     -10.022672      -272.7308 
  16   2.0000     -10.021934      -272.7107 
  17   2.0000     -10.021838      -272.7081 
  18   2.0000     -10.021144      -272.6892 
  19   2.0000      -7.877300      -214.3522 
  20   2.0000      -7.876224      -214.3230 
  21   2.0000      -7.829417      -213.0493 
  22   2.0000      -7.826420      -212.9677 
  23   2.0000      -6.600248      -179.6019 
  24   2.0000      -6.599477      -179.5809 
  25   2.0000      -5.824279      -158.4867 
  26   2.0000      -5.823273      -158.4593 
  27   2.0000      -5.820970      -158.3967 
  28   2.0000      -5.819799      -158.3648 
  29   2.0000      -5.814657      -158.2249 
  30   2.0000      -5.813627      -158.1968 
  31   2.0000      -5.776827      -157.1954 
  32   2.0000      -5.773874      -157.1151 
  33   2.0000      -5.769800      -157.0042 
  34   2.0000      -5.769467      -156.9952 
  35   2.0000      -5.766708      -156.9201 
  36   2.0000      -5.766522      -156.9150 
  37   2.0000      -4.745525      -129.1323 
  38   2.0000      -4.745425      -129.1296 
  39   2.0000      -4.744939      -129.1164 
  40   2.0000      -4.744412      -129.1020 
  41   2.0000      -4.744066      -129.0926 
  42   2.0000      -4.743387      -129.0741 
  43   2.0000      -1.045006       -28.4361 
  44   2.0000      -1.039968       -28.2990 
  45   2.0000      -1.003070       -27.2949 
  46   2.0000      -1.000168       -27.2160 
  47   2.0000      -0.795442       -21.6451 
  48   2.0000      -0.756106       -20.5747 
  49   2.0000      -0.744955       -20.2713 
  50   2.0000      -0.724057       -19.7026 
  51   2.0000      -0.721776       -19.6405 
  52   2.0000      -0.712835       -19.3972 
  53   2.0000      -0.693574       -18.8731 
  54   2.0000      -0.677859       -18.4455 
  55   2.0000      -0.623181       -16.9576 
  56   2.0000      -0.614026       -16.7085 
  57   2.0000      -0.597682       -16.2638 
  58   2.0000      -0.590859       -16.0781 
  59   2.0000      -0.584065       -15.8932 
  60   2.0000      -0.535040       -14.5592 
  61   2.0000      -0.524472       -14.2716 
  62   2.0000      -0.491062       -13.3625 
  63   2.0000      -0.489591       -13.3224 
  64   2.0000      -0.472370       -12.8538 
  65   2.0000      -0.453047       -12.3280 
  66   2.0000      -0.448898       -12.2151 
  67   2.0000      -0.447639       -12.1809 
  68   2.0000      -0.440344       -11.9824 
  69   2.0000      -0.432845       -11.7783 
  70   2.0000      -0.417700       -11.3662 
  71   2.0000      -0.405974       -11.0471 
  72   2.0000      -0.404294       -11.0014 
  73   2.0000      -0.395959       -10.7746 
  74   2.0000      -0.391743       -10.6599 
  75   2.0000      -0.385768       -10.4973 
  76   2.0000      -0.380717       -10.3598 
  77   2.0000      -0.364571        -9.9205 
  78   2.0000      -0.362037        -9.8515 
  79   2.0000      -0.357023        -9.7151 
  80   2.0000      -0.354532        -9.6473 
  81   2.0000      -0.353306        -9.6140 
  82   2.0000      -0.347550        -9.4573 
  83   2.0000      -0.343895        -9.3579 
  84   2.0000      -0.342283        -9.3140 
  85   2.0000      -0.332579        -9.0499 
  86   2.0000      -0.320728        -8.7275 
  87   2.0000      -0.317875        -8.6498 
  88   2.0000      -0.311471        -8.4756 
  89   2.0000      -0.310346        -8.4449 
  90   2.0000      -0.306122        -8.3300 
  91   2.0000      -0.291969        -7.9449 
  92   2.0000      -0.283027        -7.7016 
  93   2.0000      -0.280499        -7.6328 
  94   2.0000      -0.277209        -7.5432 
  95   2.0000      -0.256265        -6.9733 
  96   2.0000      -0.242742        -6.6053 
  97   2.0000      -0.237088        -6.4515 
  98   2.0000      -0.229724        -6.2511 
  99   2.0000      -0.227979        -6.2036 
 100   2.0000      -0.224659        -6.1133 
 101   0.0000      -0.052163        -1.4194 
 102   0.0000      -0.032050        -0.8721 
 103   0.0000      -0.016082        -0.4376 
 104   0.0000      -0.009649        -0.2626 
 105   0.0000       0.001950         0.0531 
 106   0.0000       0.012771         0.3475 
 107   0.0000       0.025492         0.6937 
 108   0.0000       0.030356         0.8260 
 109   0.0000       0.056403         1.5348 
 110   0.0000       0.070056         1.9063 
 111   0.0000       0.070921         1.9299 
*Only the first 10 virtual orbitals were printed.
Total SCF time: 0 days 0 hours 0 min 29 sec 
Finished LeanSCF after  30.1 sec

Maximum memory used throughout the entire LEANSCF-calculation: 138.7 MB


-------------------------------------------------------------------------------
                          DFT DISPERSION CORRECTION                            
                                                                               
                                DFTD4 V3.4.0                                   
-------------------------------------------------------------------------------
-------------------------   ----------------
Dispersion correction           -0.020097350
-------------------------   ----------------

------------------   -----------------
gCP correction             0.044896229
------------------   -----------------

-------------------------   --------------------
FINAL SINGLE POINT ENERGY     -2932.484212468754
-------------------------   --------------------

------------------------------------------------------------------------------
                         ORCA SCF GRADIENT CALCULATION
------------------------------------------------------------------------------

Nuc. rep. gradient        (SHARK) ... done (  0.0 sec)
HCore & Overlap gradient  (SHARK) ... done (  2.1 sec)
Split-RIJ-J gradient      (SHARK) ... done (  9.1 sec)
XC gradient                       ... done ( 21.9 sec)
CPCM gradient                     ... done (  7.7 sec)
SMD gradient                      ... done (  0.0 sec)
Dispersion correction             ... done (  0.0 sec)

-------------------
DISPERSION GRADIENT
-------------------

   1   C   :    0.000122260   -0.000044768   -0.000049114
   2   C   :    0.000083093   -0.000021336   -0.000085548
   3   O   :    0.000074494   -0.000053469   -0.000061418
   4   P   :    0.000200682    0.000037264   -0.000038650
   5   S   :    0.000185447    0.000231102    0.000069237
   6   O   :    0.000085754   -0.000083632    0.000075780
   7   C   :    0.000071478   -0.000074709    0.000130545
   8   C   :    0.000040492   -0.000037405    0.000186041
   9   S   :    0.000070421    0.000070207   -0.000268179
  10   C   :    0.000019620    0.000133819   -0.000094567
  11   S   :   -0.000057247    0.000241260    0.000016744
  12   P   :   -0.000196503    0.000026431   -0.000044639
  13   S   :   -0.000165191    0.000000082   -0.000251663
  14   O   :   -0.000088477    0.000044620    0.000040311
  15   C   :   -0.000087707    0.000080036    0.000012489
  16   C   :   -0.000086809    0.000074857    0.000054000
  17   O   :   -0.000086268   -0.000082398    0.000050387
  18   C   :   -0.000101635   -0.000149650    0.000024839
  19   C   :   -0.000059930   -0.000155368    0.000004722
  20   H   :    0.000039181   -0.000024961   -0.000017257
  21   H   :    0.000033981   -0.000009155   -0.000017197
  22   H   :    0.000058396   -0.000016264   -0.000015884
  23   H   :    0.000029297   -0.000024209   -0.000043463
  24   H   :    0.000042115    0.000001052   -0.000029754
  25   H   :    0.000016811   -0.000047705    0.000046590
  26   H   :    0.000013310   -0.000019789    0.000051051
  27   H   :    0.000003460   -0.000010610    0.000049047
  28   H   :    0.000019427   -0.000002522    0.000081210
  29   H   :    0.000019706   -0.000025060    0.000088469
  30   H   :    0.000004500    0.000039058   -0.000049283
  31   H   :    0.000014534    0.000060856   -0.000019314
  32   H   :   -0.000034822    0.000046722    0.000014932
  33   H   :   -0.000045183    0.000025353   -0.000005058
  34   H   :   -0.000032538    0.000017923    0.000019904
  35   H   :   -0.000030808    0.000028803    0.000028607
  36   H   :   -0.000021878    0.000025173    0.000011299
  37   H   :   -0.000051329   -0.000066260   -0.000010902
  38   H   :   -0.000050956   -0.000073365    0.000039493
  39   H   :   -0.000019843   -0.000058725   -0.000003841
  40   H   :   -0.000016256   -0.000056874   -0.000000955
  41   H   :   -0.000015082   -0.000046385    0.000010988

Difference to translation invariance:
           :    0.0000000000   -0.0000000000    0.0000000000

Difference to rotation invariance:
           :    0.0000000000    0.0000000000   -0.0000000000

Norm of the Dispersion gradient    ...    0.0008813102
RMS gradient                       ...    0.0000794651
MAX gradient                       ...    0.0002681794
gCP correction                   ... done

------------------
CARTESIAN GRADIENT
------------------

   1   C   :    0.000227017   -0.000085929   -0.000049534
   2   C   :   -0.000701366   -0.000067888    0.000289237
   3   O   :    0.000557485    0.000172381   -0.000300727
   4   P   :    0.000769436    0.000582606   -0.001111433
   5   S   :   -0.000023928   -0.000033204    0.000000694
   6   O   :   -0.001166383   -0.000598293    0.000275656
   7   C   :    0.000504616   -0.000151665    0.000685110
   8   C   :    0.000007700    0.000107662   -0.000337596
   9   S   :    0.000026832    0.000038081    0.000509026
  10   C   :   -0.000218682    0.000237167   -0.000423869
  11   S   :    0.000024474   -0.000371210    0.000023491
  12   P   :   -0.000511563    0.000703647   -0.000046252
  13   S   :    0.000029664   -0.000099352    0.000117378
  14   O   :    0.000318438    0.000508752   -0.000797530
  15   C   :    0.000316404   -0.000942064    0.000362241
  16   C   :   -0.000066110   -0.000213604    0.000112919
  17   O   :    0.000737753   -0.001510522    0.000088422
  18   C   :   -0.001276232    0.002719868    0.000781297
  19   C   :   -0.000299028   -0.001470824   -0.000195976
  20   H   :   -0.000070540   -0.000100645    0.000144528
  21   H   :    0.000135582   -0.000077073   -0.000187941
  22   H   :    0.000050629    0.000163842    0.000137018
  23   H   :   -0.000037201    0.000022143   -0.000100310
  24   H   :    0.000055948    0.000083931   -0.000031179
  25   H   :   -0.000114453    0.000024388   -0.000057288
  26   H   :   -0.000085185    0.000047875    0.000000541
  27   H   :    0.000182617   -0.000187138    0.000273791
  28   H   :    0.000036105    0.000117047    0.000151529
  29   H   :   -0.000181998   -0.000046946    0.000037864
  30   H   :   -0.000009293   -0.000004238    0.000102791
  31   H   :   -0.000001761   -0.000110874    0.000065936
  32   H   :   -0.000001400    0.000065093   -0.000037165
  33   H   :   -0.000089452    0.000031147   -0.000059778
  34   H   :   -0.000045662    0.000019538    0.000025416
  35   H   :    0.000042406    0.000017001    0.000173638
  36   H   :   -0.000045129    0.000205091   -0.000124202
  37   H   :    0.001091682    0.000347334   -0.001324242
  38   H   :    0.000871306   -0.000141354    0.001427223
  39   H   :   -0.000453432    0.000256317   -0.001320144
  40   H   :   -0.000005999   -0.000136882    0.000083932
  41   H   :   -0.000581296   -0.000121205    0.000635486

Difference to translation invariance:
           :    0.0000000000    0.0000000000    0.0000000000

Difference to rotation invariance:
           :    0.0003656017    0.0004191535    0.0002918815

Norm of the Cartesian gradient     ...    0.0057918356
RMS gradient                       ...    0.0005222322
MAX gradient                       ...    0.0027198677

-------
TIMINGS
-------

Total SCF gradient time     ....       46.506 sec

Densities                   ....       0.007 sec  (  0.0%)
One electron gradient       ....       2.065 sec  (  4.4%)
RI-J Coulomb gradient       ....       9.080 sec  ( 19.5%)
XC gradient                 ....      21.855 sec  ( 47.0%)
CPCM gradient               ....       7.666 sec  ( 16.5%)
   A-Matrix (El+Nuc)        ....       0.268 sec  (  0.6%)
   Potential                ....       7.398 sec  ( 15.9%)
SMD gradient                ....       0.028 sec  (  0.1%)

Maximum memory used throughout the entire SCFGRAD-calculation: 83.5 MB

------------------------------------------------------------------------------
                              ORCA PROPERTY CALCULATIONS
------------------------------------------------------------------------------

GBWName                                 ... xtb_opt.gbw
Number of atoms                         ...     41
Number of basis functions               ...    539
Max core memory                         ...   1024 MB

Electric properties:
Dipole moment                           ... YES
Quadrupole moment                       ...  NO
Static polarizability (Dipole/Dipole)   ...  NO
Static polarizability (Dipole/Quad.)    ...  NO
Static polarizability (Quad./Quad.)     ...  NO
Static polarizability (Velocity)        ...  NO

Atomic electric properties:
Dipole moment                           ...  NO
Quadrupole moment                       ...  NO
Static polarizability                   ...  NO

Choice of electric origin               ... Center of mass
Position of electric origin             ...    -0.036913     0.113427    -0.068138

General magnetic properties:
Magnetizability                         ...  NO

EPR properties:
g-Tensor (aka g-matrix)                 ...  NO
Zero-Field splitting spin-orbit         ...  NO
Zero-field splitting spin-spin          ...  NO
Hyperfine couplings                     ...  NO (   0 nuclei)
Quadrupole couplings                    ...  NO (   0 nuclei)
Contact density                         ...  NO (   0 nuclei)

NMR properties:
Chemical shifts                         ...  NO (   0 nuclei)
Spin-rotation constants                 ...  NO (   0 nuclei)
Spin-spin couplings                     ...  NO (   0 nuclei,    0 pairs)

Choice of magnetic origin               ... GIAO
Position of magnetic origin             ...     0.000000     0.000000     0.000000

Properties with geometric perturbations:
SCF Hessian                             ...  NO
IR spectrum                             ...  NO
VCD spectrum                            ...  NO
X-ray spectroscopy properties:
SCF XES/XAS/RIXS spectra                ...  NO


-------------
DIPOLE MOMENT
-------------

Method             : SCF
Type of density    : Electron Density
Multiplicity       :   1
Irrep              :   0
Energy             : -2932.5090113473697784 Eh
Relativity type    : 
Basis              : AO
                                X                 Y                 Z
Electronic contribution:     -1.401769691       7.567961166      -8.970001238
Nuclear contribution   :      2.273475206      -7.894376901       9.309876991
                        -----------------------------------------
Total Dipole Moment    :      0.871705515      -0.326415735       0.339875753
                        -----------------------------------------
Magnitude (a.u.)       :      0.990925458
Magnitude (Debye)      :      2.518732348



--------------------
Rotational spectrum 
--------------------
 
Rotational constants in cm-1:             0.012636             0.004138             0.004095 
Rotational constants in MHz :           378.826472           124.065603           122.754802 

Dipole components along the rotational axes: 
x,y,z [a.u.] :    -0.889174    -0.259852     0.351825 
x,y,z [Debye]:    -2.260099    -0.660490     0.894268 

 

Dipole moment calculation done in   0.0 sec 

Maximum memory used throughout the entire PROP-calculation: 51.0 MB

--------------------------------
SUGGESTED CITATIONS FOR THIS RUN
--------------------------------

Below you find a list of papers that are relevant to this ORCA run
We neither can nor want to force you to cite these papers, but we appreciate if you do
You receive ORCA, which is the product of decades of hard work by many enthusiastic individuals, for free
The only thing we kindly ask in return is that you cite our papers,
We deeply appreciate it, if you show your appreciation for ORCA by not just citing the generic ORCA reference.

Please note that relegating all ORCA citations to the supporting information does *not* help us.
SI sections are not indexed - citations you put there will not count into any citation statistics
But we need these citations in order to attract the funding resources that allow us to do what we are doing

Therefore, if you are a happy ORCA user, please consider citing a few of the papers listed below in the main body of your paper

In addition to the list printed below, the program has created the file xtb_opt.bibtex that contains the list in bibtex format
You can import this file easily into all common literature databanks and citation aid programs


List of essential papers. We consider these as the minimum necessary citations

  1. Neese,F.
     Software update: the ORCA program system, version 5.0
     WIRES Comput. Molec. Sci., 2022 12(1)e1606
     doi.org/10.1002/wcms.1606
  2. Grimme,S.; Hansen,A.; Ehlert,S.; Mewes,J.
     r2SCAN-3c: A 'Swiss army knife' composite electronic-structure method
     J. Chem. Phys., 2021 154 064103
     doi.org/10.1063/5.0040021

List of papers to cite with high priority. The work reported in these papers was absolutely
necessary for this run to complete.
Our perspective: the developers of density functionals and basis sets usually get cited in chemistry papers
Good! But without the algorithms to do something with them, the functionals or basis sets would not do anything.
Hence, in our opinion, the algorithm design and method developments papers are equally worthy of getting cited

  1. Neese,F.
     An improvement of the resolution of the identity approximation for the formation of the Coulomb matrix
     J. Comp. Chem., 2003 24(14)1740-1747
     doi.org/10.1002/jcc.10318
  2. Garcia-Rates,M.; Neese,F.
     Effect of the Solute Cavity on the Solvation Energy and its Derivatives within the Framework of the Gaussian Charge Scheme
     J. Comput. Chem., 2020 41 922-939
     doi.org/10.1002/jcc.26139
  3. Neese,F.
     The SHARK Integral Generation and Digestion System
     J. Comp. Chem., 2022  1-16
     doi.org/10.1002/jcc.26942
  4. Lehtola,S.; Steigemann,C.; Oliveira,M.; Marques,M.
     Recent developments in Libxc - A comprehensive library of functionals for density functional theory
     Software X, 2018 7 
     doi.org/10.1016/j.softx.2017.11.002
  5. Caldeweyher,E.; Bannwarth,C.; Grimme,S.
     Extension of the D3 dispersion coefficient model
     J. Chem. Phys., 2017 147 034112-XXXX
     doi.org/10.1063/1.4993215
  6. Caldeweyher,E.; Ehlert,S.; Hansen,A.; Neugebauer,H.; Spicher,S.; Bannwarth,C.; Grimme,S.
     A generally applicable atomic-charge dependent London dispersion correction
     J. Chem. Phys., 2019 150 154122-XXXX
     doi.org/10.1063/1.5090222
  7. Caldeweyher,E.; Mewes,J.; Ehlert,S.; Grimme,S.
     Extension and evaluation of the D4 London-dispersion model for periodic systems
     Phys. Chem. Chem. Phys., 2020 22(16)8499-8512
     doi.org/10.1039/D0CP00502A

List of suggested additional citations. These are papers that are important in the 'surrounding' of 
of this run, or papers that preceded the highly important papers. If you like your results we are grateful for a citation.

  1. Neese,F.
     The ORCA program system
     WIRES Comput. Molec. Sci., 2012 2(1)73-78
     doi.org/10.1002/wcms.81
  2. Neese,F.
     Software update: the ORCA program system, version 4.0
     WIRES Comput. Molec. Sci., 2018 8(1)1-6
     doi.org/10.1002/wcms.1327
  3. Neese,F.; Wennmohs,F.; Becker,U.; Riplinger,C.
     The ORCA quantum chemistry program package
     J. Chem. Phys., 2020 152 Art. No. L224108
     doi.org/10.1063/5.0004608

List of optional additional citations

  1. Neese,F.
     Approximate second-order SCF convergence for spin unrestricted wavefunctions
     Chem. Phys. Lett., 2000 325(1-3)93-98
     doi.org/10.1016/s0009-2614(00)00662-x

Timings for individual modules:

Sum of individual times          ...       82.167 sec (=   1.369 min)
Startup calculation              ...        4.276 sec (=   0.071 min)   5.2 %
SCF iterations                   ...       31.045 sec (=   0.517 min)  37.8 %
Property calculations            ...        0.155 sec (=   0.003 min)   0.2 %
SCF Gradient evaluation          ...       46.690 sec (=   0.778 min)  56.8 %
                             ****ORCA TERMINATED NORMALLY****
TOTAL RUN TIME: 0 days 0 hours 1 minutes 23 seconds 140 msec
  ------------------------------------------------------------------------
          * successful ORCA run, taking over control again...

         :::::::::::::::::::::::::::::::::::::::::::::::::::::
         ::                  ORCA SUMMARY                   ::
         :::::::::::::::::::::::::::::::::::::::::::::::::::::
         :: total energy           -2932.484212468754 Eh    ::
         :: gradient norm              0.005791835603 Eh/a0 ::
         :: HOMO-LUMO gap              0.000000000000 eV    ::
         :::::::::::::::::::::::::::::::::::::::::::::::::::::

      ----------------------------------------------------------- 
     |                       L-ANC optimizer                     |
      ----------------------------------------------------------- 
          low memory version by Sebastian Ehlert

          ...................................................
          :                      SETUP                      :
          :.................................................:
          :   energy convergence        0.5000000E-05 Eh    :
          :   grad. convergence         0.1000000E-02 Eh/a0 :
          :   optimization log               true           :
          :   writing optlog all                1     steps :
          :   Hessian reset                     8     steps :
          :   maximium step len.        1.0000000     a0    :
          :   LBFGS images                      8           :
          ...................................................
 * calculating model hessian...
Using Lindh-Hessian (1995)
 Shifting diagonal of input Hessian by   1.000000000000000E-002
 Lowest  eigenvalues of input Hessian
    0.000000    0.000000    0.000000    0.000000    0.000000    0.000000
    0.010007    0.010034    0.010399    0.010464    0.010717    0.011326
    0.011586    0.011893    0.012090    0.012626    0.012711    0.013099
 Highest eigenvalues
    1.280840    1.290864    1.722454    1.800776    1.811499    1.864037
 

........................................................................
.............................. CYCLE    1 ..............................
........................................................................
                         * ORCA takes the control...
  ------------------------------------------------------------------------

                                 *****************
                                 * O   R   C   A *
                                 *****************

                                            #,                                       
                                            ###                                      
                                            ####                                     
                                            #####                                    
                                            ######                                   
                                           ########,                                 
                                     ,,################,,,,,                         
                               ,,#################################,,                 
                          ,,##########################################,,             
                       ,#########################################, ''#####,          
                    ,#############################################,,   '####,        
                  ,##################################################,,,,####,       
                ,###########''''           ''''###############################       
              ,#####''   ,,,,##########,,,,          '''####'''          '####       
            ,##' ,,,,###########################,,,                        '##       
           ' ,,###''''                  '''############,,,                           
         ,,##''                                '''############,,,,        ,,,,,,###''
      ,#''                                            '''#######################'''  
     '                                                          ''''####''''         
             ,#######,   #######,   ,#######,      ##                                
            ,#'     '#,  ##    ##  ,#'     '#,    #''#        ,####,   ,####,        
            ##       ##  ##   ,#'  ##            #'  '#       #'       #'  '#        
            ##       ##  #######   ##           ,######,      #####,   #    #        
            '#,     ,#'  ##    ##  '#,     ,#' ,#      #,     #,   #   #,  ,#        
             '#######'   ##     ##  '#######'  #'      '#     '####' # '####'        



                #########################################################
                #                        -***-                          #
                #          Department of theory and spectroscopy        #
                #                                                       #
                #                      Frank Neese                      #
                #                                                       #
                #     Directorship, Architecture, Infrastructure        #
                #                    SHARK, DRIVERS                     #
                #        Core code/Algorithms in most modules           #
                #                                                       #
                #        Max Planck Institute fuer Kohlenforschung      #
                #                Kaiser Wilhelm Platz 1                 #
                #                 D-45470 Muelheim/Ruhr                 #
                #                      Germany                          #
                #                                                       #
                #                  All rights reserved                  #
                #                        -***-                          #
                #########################################################


                         Program Version 6.0.0  -   RELEASE  -


 With contributions from (in alphabetic order):
   Daniel Aravena         : Magnetic Suceptibility
   Michael Atanasov       : Ab Initio Ligand Field Theory (pilot matlab implementation)
   Alexander A. Auer      : GIAO ZORA, VPT2 properties, NMR spectrum
   Ute Becker             : All parallelization in ORCA, NUMFREQ, NUMCALC
   Giovanni Bistoni       : ED, misc. LED, open-shell LED, HFLD
   Martin Brehm           : Molecular dynamics
   Dmytro Bykov           : pre 5.0 version of the SCF Hessian
   Marcos Casanova-Páez   : Triplet and SCS-CIS(D). UHF-(DLPNO)-IP/EA/STEOM-CCSD. UHF-CVS-IP/STEOM-CCSD
   Vijay G. Chilkuri      : MRCI spin determinant printing, contributions to CSF-ICE
   Pauline Colinet        : FMM embedding
   Dipayan Datta          : RHF DLPNO-CCSD density
   Achintya Kumar Dutta   : EOM-CC, STEOM-CC
   Nicolas Foglia         : Exact transition moments, OPA infrastructure, MCD improvements
   Dmitry Ganyushin       : Spin-Orbit,Spin-Spin,Magnetic field MRCI
   Miquel Garcia          : C-PCM and meta-GGA Hessian, CCSD/C-PCM, Gaussian charge scheme
   Tiago L. C. Gouveia    : GS-ROHF, GS-ROCIS
   Yang Guo               : DLPNO-NEVPT2, F12-NEVPT2, CIM, IAO-localization
   Andreas Hansen         : Spin unrestricted coupled pair/coupled cluster methods
   Ingolf Harden          : AUTO-CI MPn and infrastructure 
   Benjamin Helmich-Paris : MC-RPA, TRAH-(SCF,CASSCF), AVAS, COSX integrals, SCF dyn. polar.
   Lee Huntington         : MR-EOM, pCC
   Robert Izsak           : Overlap fitted RIJCOSX, COSX-SCS-MP3, EOM
   Riya Kayal             : Wick's Theorem for AUTO-CI, AUTO-CI UHF-CCSDT
   Emily Kempfer          : AUTO-CI, RHF CISDT and CCSDT
   Christian Kollmar      : KDIIS, OOCD, Brueckner-CCSD(T), CCSD density, CASPT2, CASPT2-K, improved NEVPT2
   Axel Koslowski         : Symmetry handling
   Simone Kossmann        : Meta GGA functionals, TD-DFT gradient, OOMP2, (MP2 Hessian; deprecated post 5.0)
   Lucas Lang             : DCDCAS
   Marvin Lechner         : AUTO-CI (C++ implementation), FIC-MRCC
   Spencer Leger          : CASSCF response
   Dagmar Lenk            : GEPOL surface, SMD, ORCA-2-JSON
   Dimitrios Liakos       : Extrapolation schemes; Compound Job, initial MDCI parallelization
   Dimitrios Manganas     : Further ROCIS development; embedding schemes. LFT, Crystal Embedding
   Dimitrios Pantazis     : SARC Basis sets
   Anastasios Papadopoulos: AUTO-CI, single reference methods and gradients
   Taras Petrenko         : pre 6.0 DFT Hessian and TD-DFT gradient, (ASA, deprecated), ECA, 1-Electron XAS/XES, NRVS
   Peter Pinski           : DLPNO-MP2, DLPNO-MP2 Gradient
   Christoph Reimann      : Effective Core Potentials
   Marius Retegan         : Local ZFS, SOC
   Christoph Riplinger    : Optimizer, TS searches, QM/MM, DLPNO-CCSD(T), (RO)-DLPNO pert. Triples
   Michael Roemelt        : Original ROCIS implementation
   Masaaki Saitow         : Open-shell DLPNO-CCSD energy and density
   Barbara Sandhoefer     : DKH picture change effects
   Kantharuban Sivalingam : CASSCF convergence/infrastructure, NEVPT2 and variants, FIC-MRCI
   Bernardo de Souza      : ESD, SOC TD-DFT
   Georgi Stoychev        : AutoAux, RI-MP2 NMR, DLPNO-MP2 response, X2C
   Van Anh Tran           : RI-MP2 g-tensors
   Willem Van den Heuvel  : Paramagnetic NMR
   Zikuan Wang            : NOTCH, Electric field optimization 
   Frank Wennmohs         : Technical directorship and infrastructure
   Hang Xu                : AUTO-CI-Response properties 


 We gratefully acknowledge several colleagues who have allowed us to
 interface, adapt or use parts of their codes:
   Stefan Grimme, W. Hujo, H. Kruse, P. Pracht,  : VdW corrections, initial TS optimization,
                  C. Bannwarth, S. Ehlert,         DFT functionals, gCP, sTDA/sTD-DF
                  L. Wittmann, M. Mueller
   Ed Valeev, F. Pavosevic, A. Kumar             : LibInt (2-el integral package), F12 methods
   Garnet Chan, S. Sharma, J. Yang, R. Olivares  : DMRG
   Ulf Ekstrom                                   : XCFun DFT Library
   Mihaly Kallay                                 : mrcc  (arbitrary order and MRCC methods)
   Frank Weinhold                                : gennbo (NPA and NBO analysis)
   Simon Mueller                                 : openCOSMO-RS
   Christopher J. Cramer and Donald G. Truhlar   : smd solvation model
   Lars Goerigk                                  : TD-DFT with DH, B97 family of functionals
   V. Asgeirsson, H. Jonsson                     : NEB implementation
   FAccTs GmbH                                   : IRC, NEB, NEB-TS, DLPNO-Multilevel, CI-OPT
                                                   MM, QMMM, 2- and 3-layer-ONIOM, Crystal-QMMM,
                                                   LR-CPCM, SF, NACMEs, symmetry and pop. for TD-DFT,
                                                   nearIR, NL-DFT gradient (VV10), updates on ESD,
                                                   ML-optimized integration grids, MBIS, APM,
                                                   GOAT, DOCKER, SOLVATOR, interface openCOSMO-RS
   S Lehtola, MJT Oliveira, MAL Marques          : LibXC Library
   Liviu Ungur et al                             : ANISO software


 Your calculation uses the libint2 library for the computation of 2-el integrals
 For citations please refer to: http://libint.valeyev.net

 Your ORCA version has been built with support for libXC version: 6.2.2
 For citations please refer to: https://libxc.gitlab.io

 This ORCA versions uses:
   CBLAS   interface :  Fast vector & matrix operations
   LAPACKE interface :  Fast linear algebra routines
   SCALAPACK package :  Parallel linear algebra routines
   Shared memory     :  Shared parallel matrices
   BLAS/LAPACK       :  OpenBLAS 0.3.27  USE64BITINT DYNAMIC_ARCH NO_AFFINITY SapphireRapids SINGLE_THREADED
        Core in use  :  SapphireRapids
   Copyright (c) 2011-2014, The OpenBLAS Project




***************************************
The coordinates will be read from file: xtb_opt.xyz
***************************************


Your calculation utilizes the geometrical counterpoise correction gCP
Please cite in your paper:
H.Kruse, S. Grimme J.Chem.Phys., 136, (2012), 154101 
   

Your calculation utilizes the atom-pairwise dispersion correction
based on EEQ partial charges (D4)


Your calculation utilizes the SMD solvation module
Please cite in your paper:
A.V. Marenich, C.J. Cramer, D.G. Truhlar J. Phys. Chem. B, 113, (2009), 6378 

================================================================================

----- Orbital basis set information -----
Your calculation utilizes the basis: def2-mTZVPP
   Stefan Grimme, Andreas Hansen, Sebastian Ehlert, and Jan-Michael Mewes 
   J. Chem. Phys. 154, 064103 (2021). DOI: 10.1063/5.0040021

----- AuxJ basis set information -----
Your calculation utilizes the auxiliary basis: def2/J
   F. Weigend, Phys. Chem. Chem. Phys. 8, 1057 (2006).

================================================================================
                                        WARNINGS
                       Please study these warnings very carefully!
================================================================================

WARNING: Old DensityContainer found on disk!
         Will remove this file - 
         If you want to keep old densities, please start your calculation with a different basename. 

Using LibXC functional ID 497 : Re-regularized SCAN exchange by Furness et al
[ 1]  J. W. Furness, A. D. Kaplan, J. Ning, J. P. Perdew, and J. Sun.,  J. Phys. Chem. Lett. 11, 8208-8215 (2020)
[ 2]  J. W. Furness, A. D. Kaplan, J. Ning, J. P. Perdew, and J. Sun.,  J. Phys. Chem. Lett. 11, 9248-9248 (2020)
Using LibXC functional ID 498 : Re-regularized SCAN correlation by Furness et al
[ 1]  J. W. Furness, A. D. Kaplan, J. Ning, J. P. Perdew, and J. Sun.,  J. Phys. Chem. Lett. 11, 8208-8215 (2020)
[ 2]  J. W. Furness, A. D. Kaplan, J. Ning, J. P. Perdew, and J. Sun.,  J. Phys. Chem. Lett. 11, 9248-9248 (2020)
Using LibXC functional ID 497 : Re-regularized SCAN exchange by Furness et al
[ 1]  J. W. Furness, A. D. Kaplan, J. Ning, J. P. Perdew, and J. Sun.,  J. Phys. Chem. Lett. 11, 8208-8215 (2020)
[ 2]  J. W. Furness, A. D. Kaplan, J. Ning, J. P. Perdew, and J. Sun.,  J. Phys. Chem. Lett. 11, 9248-9248 (2020)
Using LibXC functional ID 498 : Re-regularized SCAN correlation by Furness et al
[ 1]  J. W. Furness, A. D. Kaplan, J. Ning, J. P. Perdew, and J. Sun.,  J. Phys. Chem. Lett. 11, 8208-8215 (2020)
[ 2]  J. W. Furness, A. D. Kaplan, J. Ning, J. P. Perdew, and J. Sun.,  J. Phys. Chem. Lett. 11, 9248-9248 (2020)

================================================================================
                                       INPUT FILE
================================================================================
NAME = xtb_opt.inp
|  1> ! r2scan-3c def2/J RI DEFGRID2 scfconv7 ENGRAD tightSCF miniprint
|  2> %cpcm
|  3>     smd true
|  4>     smdsolvent "water"
|  5> end
|  6> * xyzfile 0 1 xtb_opt.xyz
|  7> 
|  8>                          ****END OF INPUT****
================================================================================

                     *******************************
                     * Energy+Gradient Calculation *
                     *******************************

---------------------------------
CARTESIAN COORDINATES (ANGSTROEM)
---------------------------------
  C      5.736540   -1.327186   -1.604029
  C      4.373255   -0.786608   -1.950743
  O      3.418116   -1.254878   -0.933553
  P      2.421127   -0.232826   -0.188990
  S      3.214589    1.393789    0.535423
  O      1.705896   -1.224146    0.850305
  C      2.328259   -1.532192    2.154386
  C      1.513864   -0.902445    3.254338
  S      0.918119    0.023407   -1.655398
  C      0.087425    1.540733   -1.038926
  S     -0.842708    1.404505    0.533584
  P     -2.629080    0.382810   -0.030087
  S     -2.885842    0.187874   -1.948313
  O     -3.762180    1.149709    0.810955
  C     -4.253574    2.454230    0.351062
  C     -5.140619    3.002000    1.438574
  O     -2.652261   -0.950162    0.866412
  C     -1.728415   -2.050009    0.556308
  C     -2.527883   -3.262185    0.147334
  H      5.716019   -2.418147   -1.528322
  H      6.442032   -1.049998   -2.393761
  H      6.092208   -0.909540   -0.657619
  H      4.009915   -1.168859   -2.908453
  H      4.370320    0.307438   -1.977010
  H      2.325548   -2.623051    2.213378
  H      3.363467   -1.178889    2.158311
  H      1.934096   -1.198758    4.221304
  H      1.536508    0.188617    3.185007
  H      0.474580   -1.241748    3.211935
  H     -0.586600    1.853177   -1.840771
  H      0.839123    2.316611   -0.866514
  H     -3.394616    3.108135    0.164096
  H     -4.800693    2.300030   -0.583739
  H     -5.983553    2.332030    1.629651
  H     -4.579803    3.146990    2.366100
  H     -5.535032    3.970641    1.116947
  H     -1.034468   -1.741356   -0.233485
  H     -1.158688   -2.222033    1.473666
  H     -3.065717   -3.077087   -0.787281
  H     -1.846531   -4.105523   -0.003702
  H     -3.246949   -3.533774    0.925713

----------------------------
CARTESIAN COORDINATES (A.U.)
----------------------------
  NO LB      ZA    FRAG     MASS         X           Y           Z
   0 C     6.0000    0    12.011   10.840489   -2.508017   -3.031176
   1 C     6.0000    0    12.011    8.264254   -1.486474   -3.686370
   2 O     8.0000    0    15.999    6.459302   -2.371376   -1.764159
   3 P    15.0000    0    30.974    4.575268   -0.439977   -0.357139
   4 S    16.0000    0    32.060    6.074694    2.633880    1.011803
   5 O     8.0000    0    15.999    3.223676   -2.313301    1.606843
   6 C     6.0000    0    12.011    4.399772   -2.895423    4.071199
   7 C     6.0000    0    12.011    2.860789   -1.705373    6.149808
   8 S    16.0000    0    32.060    1.734993    0.044234   -3.128248
   9 C     6.0000    0    12.011    0.165209    2.911563   -1.963286
  10 S    16.0000    0    32.060   -1.592488    2.654131    1.008328
  11 P    15.0000    0    30.974   -4.968240    0.723407   -0.056855
  12 S    16.0000    0    32.060   -5.453451    0.355030   -3.681777
  13 O     8.0000    0    15.999   -7.109490    2.172634    1.532484
  14 C     6.0000    0    12.011   -8.038090    4.637823    0.663412
  15 C     6.0000    0    12.011   -9.714362    5.672957    2.718512
  16 O     8.0000    0    15.999   -5.012048   -1.795546    1.637281
  17 C     6.0000    0    12.011   -3.266232   -3.873956    1.051269
  18 C     6.0000    0    12.011   -4.777007   -6.164636    0.278422
  19 H     1.0000    0     1.008   10.801711   -4.569636   -2.888111
  20 H     1.0000    0     1.008   12.173677   -1.984209   -4.523553
  21 H     1.0000    0     1.008   11.512605   -1.718781   -1.242720
  22 H     1.0000    0     1.008    7.577641   -2.208823   -5.496179
  23 H     1.0000    0     1.008    8.258708    0.580973   -3.736007
  24 H     1.0000    0     1.008    4.394648   -4.956849    4.182679
  25 H     1.0000    0     1.008    6.356032   -2.227778    4.078616
  26 H     1.0000    0     1.008    3.654911   -2.265324    7.977109
  27 H     1.0000    0     1.008    2.903579    0.356434    6.018791
  28 H     1.0000    0     1.008    0.896826   -2.346563    6.069678
  29 H     1.0000    0     1.008   -1.108513    3.501998   -3.478553
  30 H     1.0000    0     1.008    1.585712    4.377760   -1.637474
  31 H     1.0000    0     1.008   -6.414895    5.873525    0.310096
  32 H     1.0000    0     1.008   -9.071994    4.346426   -1.103106
  33 H     1.0000    0     1.008  -11.307277    4.406899    3.079593
  34 H     1.0000    0     1.008   -8.654573    5.946949    4.471282
  35 H     1.0000    0     1.008  -10.459695    7.503424    2.110723
  36 H     1.0000    0     1.008   -1.954861   -3.290687   -0.441222
  37 H     1.0000    0     1.008   -2.189602   -4.199034    2.784825
  38 H     1.0000    0     1.008   -5.793366   -5.814852   -1.487745
  39 H     1.0000    0     1.008   -3.489438   -7.758315   -0.006996
  40 H     1.0000    0     1.008   -6.135844   -6.677864    1.749345

------------------------------------------------------------------------------
                   ___                                                        
                  /   \      - P O W E R E D   B Y -                         
                 /     \                                                     
                 |  |  |   _    _      __       _____    __    __             
                 |  |  |  | |  | |    /  \     |  _  \  |  |  /  |          
                  \  \/   | |  | |   /    \    | | | |  |  | /  /          
                 / \  \   | |__| |  /  /\  \   | |_| |  |  |/  /          
                |  |  |   |  __  | /  /__\  \  |    /   |      \           
                |  |  |   | |  | | |   __   |  |    \   |  |\   \          
                \     /   | |  | | |  |  |  |  | |\  \  |  | \   \       
                 \___/    |_|  |_| |__|  |__|  |_| \__\ |__|  \__/        
                                                                              
                      - O R C A' S   B I G   F R I E N D -                    
                                      &                                       
                       - I N T E G R A L  F E E D E R -                       
                                                                              
 v1 FN, 2020, v2 2021, v3 2022-2024                                           
------------------------------------------------------------------------------


----------------------
SHARK INTEGRAL PACKAGE
----------------------

Number of atoms                             ...     41
Number of basis functions                   ...    539
Number of shells                            ...    253
Maximum angular momentum                    ...      2
Integral batch strategy                     ... SHARK/LIBINT Hybrid
RI-J (if used) integral strategy            ... SPLIT-RIJ (Revised 2003 algorithm where possible)
Printlevel                                  ...      1
Contraction scheme used                     ... SEGMENTED contraction
Prescreening option                         ... SCHWARTZ
   Thresh                                   ... 3.000e-11
   Tcut                                     ... 1.000e-12
   Tpresel                                  ... 1.000e-12 
Coulomb Range Separation                    ... NOT USED
Exchange Range Separation                   ... NOT USED
Multipole approximations                    ... NOT USED
Finite Nucleus Model                        ... NOT USED
CABS basis                                  ... NOT available
Auxiliary Coulomb fitting basis             ... AVAILABLE
   # of basis functions in Aux-J            ...   1185
   # of shells in Aux-J                     ...    407
   Maximum angular momentum in Aux-J        ...      4
Auxiliary J/K fitting basis                 ... NOT available
Auxiliary Correlation fitting basis         ... NOT available
Auxiliary 'external' fitting basis          ... NOT available

Checking pre-screening integrals            ... done (  0.0 sec) Dimension = 253
Check shell pair data                       ... done (  0.0 sec)
Shell pair information
Shell pair cut-off parameter TPreSel        ...   1.0e-12
Total number of shell pairs                 ...     32131
Shell pairs after pre-screening             ...     20969
Total number of primitive shell pairs       ...    124843
Primitive shell pairs kept                  ...     49180
          la=0 lb=0:   5910 shell pairs
          la=1 lb=0:   7622 shell pairs
          la=1 lb=1:   2508 shell pairs
          la=2 lb=0:   2793 shell pairs
          la=2 lb=1:   1793 shell pairs
          la=2 lb=2:    343 shell pairs

Calculating one electron integrals          ... done (  0.1 sec)
Calculating RI/J V-Matrix + Cholesky decomp.... done (  0.2 sec)
[...]
CPCM gradient                     ... done (  7.7 sec)
SMD gradient                      ... done (  0.0 sec)
Dispersion correction             ... done (  0.0 sec)

-------------------
DISPERSION GRADIENT
-------------------

   1   C   :    0.000122386   -0.000044696   -0.000049060
   2   C   :    0.000083249   -0.000020974   -0.000085367
   3   O   :    0.000074577   -0.000053530   -0.000062072
   4   P   :    0.000201403    0.000036687   -0.000039104
   5   S   :    0.000186058    0.000230232    0.000069829
   6   O   :    0.000085661   -0.000084168    0.000075314
   7   C   :    0.000071792   -0.000074934    0.000131215
   8   C   :    0.000040726   -0.000037271    0.000186633
   9   S   :    0.000069885    0.000070274   -0.000269167
  10   C   :    0.000019767    0.000134209   -0.000094710
  11   S   :   -0.000057193    0.000242443    0.000017231
  12   P   :   -0.000197541    0.000026513   -0.000044786
  13   S   :   -0.000165810    0.000000382   -0.000251585
  14   O   :   -0.000088602    0.000044654    0.000040458
  15   C   :   -0.000087398    0.000079617    0.000012548
  16   C   :   -0.000086930    0.000074978    0.000053913
  17   O   :   -0.000086595   -0.000082908    0.000049951
  18   C   :   -0.000102478   -0.000149344    0.000024153
  19   C   :   -0.000060077   -0.000155602    0.000005191
  20   H   :    0.000038749   -0.000024743   -0.000017180
  21   H   :    0.000034401   -0.000008943   -0.000017211
  22   H   :    0.000058656   -0.000016602   -0.000015951
  23   H   :    0.000029424   -0.000023961   -0.000043575
  24   H   :    0.000042235    0.000001237   -0.000029583
  25   H   :    0.000016864   -0.000047761    0.000046626
  26   H   :    0.000013422   -0.000019762    0.000051068
  27   H   :    0.000003496   -0.000010615    0.000049576
  28   H   :    0.000019891   -0.000002414    0.000081673
  29   H   :    0.000019732   -0.000025219    0.000088709
  30   H   :    0.000004579    0.000039200   -0.000049290
  31   H   :    0.000014563    0.000060980   -0.000019328
  32   H   :   -0.000034697    0.000046672    0.000015080
  33   H   :   -0.000045181    0.000025283   -0.000005122
  34   H   :   -0.000032601    0.000017989    0.000019880
  35   H   :   -0.000030775    0.000028803    0.000028506
  36   H   :   -0.000021963    0.000025260    0.000011225
  37   H   :   -0.000051505   -0.000066420   -0.000011670
  38   H   :   -0.000050997   -0.000073828    0.000039385
  39   H   :   -0.000019667   -0.000058424   -0.000003296
  40   H   :   -0.000016406   -0.000057241   -0.000001125
  41   H   :   -0.000015096   -0.000046053    0.000011016

Difference to translation invariance:
           :   -0.0000000000   -0.0000000000   -0.0000000000

Difference to rotation invariance:
           :   -0.0000000000    0.0000000000   -0.0000000000

Norm of the Dispersion gradient    ...    0.0008830623
RMS gradient                       ...    0.0000796230
MAX gradient                       ...    0.0002691666
gCP correction                   ... done

------------------
CARTESIAN GRADIENT
------------------

   1   C   :   -0.000017493   -0.000000868   -0.000036150
   2   C   :   -0.000035470   -0.000013883    0.000001989
   3   O   :    0.000060657   -0.000037505   -0.000002260
   4   P   :   -0.000040653   -0.000075650    0.000053848
   5   S   :    0.000022957   -0.000025530    0.000068059
   6   O   :    0.000085572    0.000186057   -0.000150432
   7   C   :   -0.000000875   -0.000005853   -0.000066094
   8   C   :   -0.000013320    0.000000152    0.000033673
   9   S   :   -0.000101160   -0.000033522    0.000183578
  10   C   :   -0.000210939    0.000027546   -0.000134466
  11   S   :    0.000141700   -0.000025524    0.000234366
  12   P   :    0.000119231   -0.000271228   -0.000049515
  13   S   :   -0.000097622   -0.000079758   -0.000108431
  14   O   :   -0.000031026   -0.000013132    0.000135337
  15   C   :   -0.000031929    0.000095541   -0.000014719
  16   C   :   -0.000002184   -0.000006453   -0.000012612
  17   O   :   -0.000088473    0.000545571   -0.000129255
  18   C   :    0.000195503   -0.000056343    0.000002299
  19   C   :   -0.000040319   -0.000193630    0.000017938
  20   H   :   -0.000005758   -0.000037807    0.000003898
  21   H   :    0.000038811    0.000018399   -0.000032017
  22   H   :    0.000000644    0.000031427    0.000049685
  23   H   :   -0.000006658   -0.000018699   -0.000009941
  24   H   :   -0.000015726   -0.000001714   -0.000006301
  25   H   :    0.000016518    0.000016243    0.000016484
  26   H   :    0.000004078    0.000005176   -0.000003107
  27   H   :    0.000007820    0.000029627    0.000001275
  28   H   :   -0.000004361   -0.000001602   -0.000003366
  29   H   :    0.000011527   -0.000005402    0.000020158
  30   H   :    0.000038294   -0.000001774   -0.000052317
  31   H   :    0.000020276   -0.000020089    0.000050248
  32   H   :   -0.000002301   -0.000026824    0.000011778
  33   H   :    0.000002188   -0.000009528    0.000017636
  34   H   :   -0.000004021    0.000005871    0.000008279
  35   H   :   -0.000004737    0.000016414    0.000000124
  36   H   :   -0.000015070    0.000008343    0.000000945
  37   H   :    0.000026935    0.000025021    0.000044517
  38   H   :   -0.000022185   -0.000052487   -0.000018803
  39   H   :    0.000003090    0.000057078   -0.000038076
  40   H   :    0.000021441   -0.000052259   -0.000058203
  41   H   :   -0.000024962   -0.000001401   -0.000030051

Difference to translation invariance:
           :   -0.0000000001    0.0000000000   -0.0000000000

Difference to rotation invariance:
           :    0.0002192624    0.0004311897    0.0003664576

Norm of the Cartesian gradient     ...    0.0009326190
RMS gradient                       ...    0.0000840914
MAX gradient                       ...    0.0005455712

-------
TIMINGS
-------

Total SCF gradient time     ....       45.912 sec

Densities                   ....       0.007 sec  (  0.0%)
One electron gradient       ....       1.956 sec  (  4.3%)
RI-J Coulomb gradient       ....       9.119 sec  ( 19.9%)
XC gradient                 ....      21.294 sec  ( 46.4%)
CPCM gradient               ....       7.733 sec  ( 16.8%)
   A-Matrix (El+Nuc)        ....       0.269 sec  (  0.6%)
   Potential                ....       7.464 sec  ( 16.3%)
SMD gradient                ....       0.017 sec  (  0.0%)

Maximum memory used throughout the entire SCFGRAD-calculation: 83.3 MB

------------------------------------------------------------------------------
                              ORCA PROPERTY CALCULATIONS
------------------------------------------------------------------------------

GBWName                                 ... xtb_opt.gbw
Number of atoms                         ...     41
Number of basis functions               ...    539
Max core memory                         ...   1024 MB

Electric properties:
Dipole moment                           ... YES
Quadrupole moment                       ...  NO
Static polarizability (Dipole/Dipole)   ...  NO
Static polarizability (Dipole/Quad.)    ...  NO
Static polarizability (Quad./Quad.)     ...  NO
Static polarizability (Velocity)        ...  NO

Atomic electric properties:
Dipole moment                           ...  NO
Quadrupole moment                       ...  NO
Static polarizability                   ...  NO

Choice of electric origin               ... Center of mass
Position of electric origin             ...    -0.038396     0.111612    -0.067294

General magnetic properties:
Magnetizability                         ...  NO

EPR properties:
g-Tensor (aka g-matrix)                 ...  NO
Zero-Field splitting spin-orbit         ...  NO
Zero-field splitting spin-spin          ...  NO
Hyperfine couplings                     ...  NO (   0 nuclei)
Quadrupole couplings                    ...  NO (   0 nuclei)
Contact density                         ...  NO (   0 nuclei)

NMR properties:
Chemical shifts                         ...  NO (   0 nuclei)
Spin-rotation constants                 ...  NO (   0 nuclei)
Spin-spin couplings                     ...  NO (   0 nuclei,    0 pairs)

Choice of magnetic origin               ... GIAO
Position of magnetic origin             ...     0.000000     0.000000     0.000000

Properties with geometric perturbations:
SCF Hessian                             ...  NO
IR spectrum                             ...  NO
VCD spectrum                            ...  NO
X-ray spectroscopy properties:
SCF XES/XAS/RIXS spectra                ...  NO


-------------
DIPOLE MOMENT
-------------

Method             : SCF
Type of density    : Electron Density
Multiplicity       :   1
Irrep              :   0
Energy             : -2932.5091067256985298 Eh
Relativity type    : 
Basis              : AO
                                X                 Y                 Z
Electronic contribution:     -1.415925253       7.518527621      -8.957196958
Nuclear contribution   :      2.298723343      -7.853477564       9.299590120
                        -----------------------------------------
Total Dipole Moment    :      0.882798091      -0.334949943       0.342393162
                        -----------------------------------------
Magnitude (a.u.)       :      1.004368961
Magnitude (Debye)      :      2.552903018



--------------------
Rotational spectrum 
--------------------
 
Rotational constants in cm-1:             0.012641             0.004145             0.004098 
Rotational constants in MHz :           378.974129           124.269337           122.855291 

Dipole components along the rotational axes: 
x,y,z [a.u.] :    -0.901415    -0.264603     0.355236 
x,y,z [Debye]:    -2.291216    -0.672569     0.902938 

 

Dipole moment calculation done in   0.0 sec 

Maximum memory used throughout the entire PROP-calculation: 51.1 MB

--------------------------------
SUGGESTED CITATIONS FOR THIS RUN
--------------------------------

Below you find a list of papers that are relevant to this ORCA run
We neither can nor want to force you to cite these papers, but we appreciate if you do
You receive ORCA, which is the product of decades of hard work by many enthusiastic individuals, for free
The only thing we kindly ask in return is that you cite our papers,
We deeply appreciate it, if you show your appreciation for ORCA by not just citing the generic ORCA reference.

Please note that relegating all ORCA citations to the supporting information does *not* help us.
SI sections are not indexed - citations you put there will not count into any citation statistics
But we need these citations in order to attract the funding resources that allow us to do what we are doing

Therefore, if you are a happy ORCA user, please consider citing a few of the papers listed below in the main body of your paper

In addition to the list printed below, the program has created the file xtb_opt.bibtex that contains the list in bibtex format
You can import this file easily into all common literature databanks and citation aid programs


List of essential papers. We consider these as the minimum necessary citations

  1. Neese,F.
     Software update: the ORCA program system, version 5.0
     WIRES Comput. Molec. Sci., 2022 12(1)e1606
     doi.org/10.1002/wcms.1606
  2. Grimme,S.; Hansen,A.; Ehlert,S.; Mewes,J.
     r2SCAN-3c: A 'Swiss army knife' composite electronic-structure method
     J. Chem. Phys., 2021 154 064103
     doi.org/10.1063/5.0040021

List of papers to cite with high priority. The work reported in these papers was absolutely
necessary for this run to complete.
Our perspective: the developers of density functionals and basis sets usually get cited in chemistry papers
Good! But without the algorithms to do something with them, the functionals or basis sets would not do anything.
Hence, in our opinion, the algorithm design and method developments papers are equally worthy of getting cited

  1. Neese,F.
     An improvement of the resolution of the identity approximation for the formation of the Coulomb matrix
     J. Comp. Chem., 2003 24(14)1740-1747
     doi.org/10.1002/jcc.10318
  2. Garcia-Rates,M.; Neese,F.
     Effect of the Solute Cavity on the Solvation Energy and its Derivatives within the Framework of the Gaussian Charge Scheme
     J. Comput. Chem., 2020 41 922-939
     doi.org/10.1002/jcc.26139
  3. Neese,F.
     The SHARK Integral Generation and Digestion System
     J. Comp. Chem., 2022  1-16
     doi.org/10.1002/jcc.26942
  4. Lehtola,S.; Steigemann,C.; Oliveira,M.; Marques,M.
     Recent developments in Libxc - A comprehensive library of functionals for density functional theory
     Software X, 2018 7 
     doi.org/10.1016/j.softx.2017.11.002
  5. Caldeweyher,E.; Bannwarth,C.; Grimme,S.
     Extension of the D3 dispersion coefficient model
     J. Chem. Phys., 2017 147 034112-XXXX
     doi.org/10.1063/1.4993215
  6. Caldeweyher,E.; Ehlert,S.; Hansen,A.; Neugebauer,H.; Spicher,S.; Bannwarth,C.; Grimme,S.
     A generally applicable atomic-charge dependent London dispersion correction
     J. Chem. Phys., 2019 150 154122-XXXX
     doi.org/10.1063/1.5090222
  7. Caldeweyher,E.; Mewes,J.; Ehlert,S.; Grimme,S.
     Extension and evaluation of the D4 London-dispersion model for periodic systems
     Phys. Chem. Chem. Phys., 2020 22(16)8499-8512
     doi.org/10.1039/D0CP00502A

List of suggested additional citations. These are papers that are important in the 'surrounding' of 
of this run, or papers that preceded the highly important papers. If you like your results we are grateful for a citation.

  1. Neese,F.
     The ORCA program system
     WIRES Comput. Molec. Sci., 2012 2(1)73-78
     doi.org/10.1002/wcms.81
  2. Neese,F.
     Software update: the ORCA program system, version 4.0
     WIRES Comput. Molec. Sci., 2018 8(1)1-6
     doi.org/10.1002/wcms.1327
  3. Neese,F.; Wennmohs,F.; Becker,U.; Riplinger,C.
     The ORCA quantum chemistry program package
     J. Chem. Phys., 2020 152 Art. No. L224108
     doi.org/10.1063/5.0004608

List of optional additional citations

  1. Neese,F.
     Approximate second-order SCF convergence for spin unrestricted wavefunctions
     Chem. Phys. Lett., 2000 325(1-3)93-98
     doi.org/10.1016/s0009-2614(00)00662-x

Timings for individual modules:

Sum of individual times          ...       78.254 sec (=   1.304 min)
Startup calculation              ...        3.023 sec (=   0.050 min)   3.9 %
SCF iterations                   ...       28.938 sec (=   0.482 min)  37.0 %
Property calculations            ...        0.215 sec (=   0.004 min)   0.3 %
SCF Gradient evaluation          ...       46.078 sec (=   0.768 min)  58.9 %
                             ****ORCA TERMINATED NORMALLY****
TOTAL RUN TIME: 0 days 0 hours 1 minutes 19 seconds 234 msec
  ------------------------------------------------------------------------
          * successful ORCA run, taking over control again...

         :::::::::::::::::::::::::::::::::::::::::::::::::::::
         ::                  ORCA SUMMARY                   ::
         :::::::::::::::::::::::::::::::::::::::::::::::::::::
         :: total energy           -2932.484298998177 Eh    ::
         :: gradient norm              0.000932619044 Eh/a0 ::
         :: HOMO-LUMO gap              0.000000000000 eV    ::
         :::::::::::::::::::::::::::::::::::::::::::::::::::::

           -------------------------------------------------
          |                Property Printout                |
           -------------------------------------------------
           -------------------------------------------------
          |                Geometry Summary                 |
           -------------------------------------------------

      molecular mass/u    :      384.4756129
   center of mass at/Å    :       -0.0203144       0.0590981      -0.0356423
  moments of inertia/u·Å² :        0.1333587E+04   0.4066886E+04   0.4113666E+04
rotational constants/cm⁻¹ :        0.1264082E-01   0.4145096E-02   0.4097958E-02

 * 34 selected distances

     #   Z          #   Z                                           value/Å
     1   6 C        2   6 C                                       1.5065591
     3   8 O        4  15 P                                       1.6106429
     4  15 P        5  16 S                                       1.9494778
     4  15 P        6   8 O                                       1.6027008
     7   6 C        8   6 C                                       1.5067411
     4  15 P        9  16 S                                       2.1151494
    11  16 S       12  15 P                                       2.1339824 (max)
    12  15 P       13  16 S                                       1.9454691
    12  15 P       14   8 O                                       1.6075313
    15   6 C       16   6 C                                       1.5061874
    12  15 P       17   8 O                                       1.6052378
    18   6 C       19   6 C                                       1.5069411
     1   6 C       20   1 H                                       1.0937773
     1   6 C       21   1 H                                       1.0946744
     1   6 C       22   1 H                                       1.0939651
     2   6 C       23   1 H                                       1.0932782
     2   6 C       24   1 H                                       1.0942858
     7   6 C       25   1 H                                       1.0924882 (min)
     7   6 C       26   1 H                                       1.0939229
     8   6 C       27   1 H                                       1.0949606
     8   6 C       28   1 H                                       1.0934634
     8   6 C       29   1 H                                       1.0940267
    10   6 C       30   1 H                                       1.0931489
    10   6 C       31   1 H                                       1.0940636
    15   6 C       32   1 H                                       1.0954928
    15   6 C       33   1 H                                       1.0939081
    16   6 C       34   1 H                                       1.0935651
    16   6 C       35   1 H                                       1.0934828
    16   6 C       36   1 H                                       1.0941739
    18   6 C       37   1 H                                       1.0949427
    18   6 C       38   1 H                                       1.0928199
    19   6 C       39   1 H                                       1.0937477
    19   6 C       40   1 H                                       1.0948553
    19   6 C       41   1 H                                       1.0936847

 * 4 distinct bonds (by element types)

   Z      Z             #   av. dist./Å        max./Å        min./Å
   1 H    6 C          22     1.0939422     1.0954928     1.0924882
   6 C    6 C           4     1.5066072     1.5069411     1.5061874
   8 O   15 P           4     1.6065282     1.6106429     1.6027008
  15 P   16 S           4     2.0360197     2.1339824     1.9454691


optimized geometry written to: xtbopt.coord


           -------------------------------------------------
          | TOTAL ENERGY            -2932.484298998177 Eh   |
          | GRADIENT NORM               0.000932619044 Eh/α |
           -------------------------------------------------

------------------------------------------------------------------------
 * finished run on 2025/04/11 at 02:04:00.927     
------------------------------------------------------------------------
 total:
 * wall-time:     0 d,  0 h, 13 min, 14.771 sec
 *  cpu-time:     0 d,  0 h,  0 min,  4.008 sec
 * ratio c/w:     0.005 speedup
 SCF:
 * wall-time:     0 d,  0 h,  1 min, 23.383 sec
 *  cpu-time:     0 d,  0 h,  0 min,  0.160 sec
 * ratio c/w:     0.002 speedup
 ANC optimizer:
 * wall-time:     0 d,  0 h, 11 min, 51.211 sec
 *  cpu-time:     0 d,  0 h,  0 min,  3.817 sec
 * ratio c/w:     0.005 speedup

