41
 energy: -2932.484212468754 gnorm: 0.005791835603 xtb: 6.7.1 (edcfbbe)
C            5.73768770843724       -1.32731253048724       -1.60470541885666
C            4.37392946790874       -0.78691757170205       -1.95158911181479
O            3.42044412626562       -1.25500667368564       -0.93356164655746
P            2.42315976374773       -0.23286529135439       -0.18957950891745
S            3.21552834270151        1.39405742798297        0.53500098830711
O            1.70557796339857       -1.22340155561923        0.85023775694586
C            2.32812482589466       -1.53198928287298        2.15496803925797
C            1.51439617160243       -0.90250351344077        3.25555419286899
S            0.91712334657062        0.02346019318666       -1.65167436533067
C            0.08508884640419        1.54151583852034       -1.03957415842144
S           -0.84235088215543        1.39999511245554        0.53392068101632
P           -2.62973684379376        0.38261391515647       -0.03163024191503
S           -2.88666778879655        0.18494467447173       -1.94925071020084
O           -3.76195779983072        1.14962464467790        0.80963526517946
C           -4.25403238970551        2.45331458046969        0.35114529651926
C           -5.14071309555999        3.00125068377665        1.43917829094550
O           -2.65143164157144       -0.94997001497361        0.86600956739729
C           -1.72710569513882       -2.04769457042136        0.55680624791573
C           -2.52923339838274       -3.26091393340386        0.14614792437657
H            5.71596370839084       -2.41812490206833       -1.52523343407047
H            6.44301089374890       -1.05323457996494       -2.39597444064223
H            6.09393610367101       -0.90687676872009       -0.65945488589230
H            4.00990332776122       -1.16972675472897       -2.90892747569807
H            4.37111660763506        0.30721630898722       -1.97861382141852
H            2.32413796832009       -2.62286378422813        2.21314511248651
H            3.36340339954254       -1.17912982954473        2.15884063413981
H            1.93506602244785       -1.20117712644649        4.22208438003427
H            1.53818457638946        0.18881224908276        3.18846034600384
H            0.47456020239176       -1.24091101389999        3.21322751188674
H           -0.58931394702938        1.85371856211054       -1.84102957956118
H            0.83706110819298        2.31677515031861       -0.86592826181651
H           -3.39553811037857        3.10779144363427        0.16358270222217
H           -4.80196659088007        2.29965539464692       -0.58339433128788
H           -5.98416397649882        2.33192892238380        1.63034489429025
H           -4.57991151669117        3.14631351616003        2.36693893854628
H           -5.53457600771984        3.97026819937578        1.11693067141093
H           -1.03154050347622       -1.73994500106443       -0.23490524949128
H           -1.15730109678538       -2.21964991145767        1.47659426905948
H           -3.06384954661094       -3.07552847011977       -0.79223898379781
H           -1.84894149830295       -4.10590371559892       -0.00146457604968
H           -3.25128654739874       -3.53026235529794        0.92408455494195
41
 energy: -2932.484252841704 gnorm: 0.002964773117 xtb: 6.7.1 (edcfbbe)
C            5.73653958569419       -1.32718553349195       -1.60402912106187
C            4.37325491299875       -0.78660793232433       -1.95074292651461
O            3.41811553423341       -1.25487818039739       -0.93355290518202
P            2.42112746247033       -0.23282569235524       -0.18898964102683
S            3.21458949836715        1.39378909849816        0.53542282890848
O            1.70589582348027       -1.22414638367422        0.85030479607877
C            2.32825929739539       -1.53219168121844        2.15438566343295
C            1.51386417385375       -0.90244457387072        3.25433815607477
S            0.91811896940435        0.02340738663455       -1.65539751412076
C            0.08742493229398        1.54073253767871       -1.03892611802074
S           -0.84270843967268        1.40450545523134        0.53358429736285
P           -2.62907953654162        0.38281035714080       -0.03008652600337
S           -2.88584186766487        0.18787354123910       -1.94831270265137
O           -3.76218001453907        1.14970865177925        0.81095537796784
C           -4.25357398520769        2.45423016347441        0.35106226052760
C           -5.14061892727345        3.00199963875575        1.43857432975684
O           -2.65226133823493       -0.95016208719339        0.86641176583530
C           -1.72841547229455       -2.05000906381927        0.55630784720443
C           -2.52788328372497       -3.26218493098601        0.14733440380742
H            5.71601942420410       -2.41814700865701       -1.52832245585191
H            6.44203242774357       -1.04999792944655       -2.39376122959809
H            6.09220842716543       -0.90953951727814       -0.65761924055333
H            4.00991477050066       -1.16885887783431       -2.90845270635531
H            4.37031995922423        0.30743761787570       -1.97700986263844
H            2.32554752264675       -2.62305144528215        2.21337818922663
H            3.36346710840197       -1.17888929279954        2.15831061943537
H            1.93409586004257       -1.19875775262625        4.22130446315726
H            1.53650808838767        0.18861698879889        3.18500727336190
H            0.47457961984381       -1.24174772982589        3.21193522087931
H           -0.58659967132949        1.85317736549657       -1.84077083534466
H            0.83912253494934        2.31661085908544       -0.86651400890732
H           -3.39461605475620        3.10813547237634        0.16409585360231
H           -4.80069268425475        2.30002952691651       -0.58373874196576
H           -5.98355336776033        2.33203048446394        1.62965065271590
H           -4.57980281125178        3.14699008923839        2.36610039533731
H           -5.53503205854374        3.97064075909981        1.11694665705131
H           -1.03446801945286       -1.74135647492436       -0.23348478324837
H           -1.15868767587970       -2.22203292847728        1.47366617340245
H           -3.06571724683802       -3.07708693050135       -0.78728073239857
H           -1.84653122593707       -4.10552322514430       -0.00370212111301
H           -3.24694865996735       -3.53377363732218        0.92571325707614
41
 energy: -2932.484268694094 gnorm: 0.001652454000 xtb: 6.7.1 (edcfbbe)
C            5.73659585974247       -1.32752050766451       -1.60347387223538
C            4.37383011790002       -0.78725812599155       -1.95029493216354
O            3.41814428840648       -1.25732759232279       -0.93385463873845
P            2.42206683552510       -0.23505596217206       -0.18842097055538
S            3.21315647468078        1.39288412707186        0.53564704158040
O            1.70754654872307       -1.22624100446059        0.84956907582422
C            2.32819073265176       -1.53279221119473        2.15375844625728
C            1.51258808637802       -0.90220589877963        3.25235844059641
S            0.91561509820401        0.02481657189596       -1.64999969663161
C            0.08488322112241        1.54385967302858       -1.03874802718552
S           -0.84317904690664        1.40659023784218        0.53476381093833
P           -2.62861908920643        0.38308734625749       -0.02997180942842
S           -2.88662841623928        0.18889604176389       -1.94838492513977
O           -3.76153281598590        1.15010930173319        0.81238815934653
C           -4.25259130228588        2.45553926434888        0.35096248201320
C           -5.14016454242880        3.00312637631808        1.43781385164888
O           -2.65160279692517       -0.94979150552045        0.86590291249234
C           -1.72814677413163       -2.05239213026560        0.55483983278788
C           -2.52670083215936       -3.26299827467230        0.14903476411191
H            5.71786473015992       -2.41881327977821       -1.53355114255533
H            6.44252308739680       -1.04504213661661       -2.39073946263910
H            6.09042424804078       -0.91405982706183       -0.65472908794854
H            4.01091976452258       -1.16853999382022       -2.90845025883877
H            4.36978349259659        0.30676042155098       -1.97480702946287
H            2.32675209309988       -2.62362769275299        2.21394966255472
H            3.36335109062253       -1.17907074221286        2.15825266308454
H            1.93234736452152       -1.19504093903041        4.22019353619913
H            1.53358074568120        0.18859087203505        3.17969531657245
H            0.47399773760332       -1.24301507524632        3.20978709857767
H           -0.58839884102069        1.85593594073760       -1.84149435714354
H            0.83765541300806        2.31887665605892       -0.86663448050777
H           -3.39304700433215        3.10865292949848        0.16451069099992
H           -4.79869503175317        2.30033379328437       -0.58412855328321
H           -5.98243387629172        2.33231131191459        1.62881705826934
H           -4.57949843129494        3.14838555030691        2.36520270089639
H           -5.53545143147896        3.97125419906009        1.11653289920070
H           -1.03645960904396       -1.74318345764411       -0.23432038379422
H           -1.15839262110032       -2.22308773067129        1.47053296265091
H           -3.07001823142571       -3.07915511092548       -0.78121203231954
H           -1.84382240231625       -4.10412493884659       -0.00695911979219
H           -3.24064001793827       -3.53834577911049        0.92974926104806
41
 energy: -2932.484279336974 gnorm: 0.001333128583 xtb: 6.7.1 (edcfbbe)
C            5.73536964785643       -1.32723443826408       -1.60275757264640
C            4.37312232922422       -0.78604685359330       -1.94992463142684
O            3.41551921032137       -1.25647275236454       -0.93493476207038
P            2.41994995696846       -0.23418065927740       -0.18865635745413
S            3.21499912831851        1.39075056481726        0.53784323798959
O            1.70719104252157       -1.22622162410370        0.84889165230729
C            2.32753068176159       -1.53258379314707        2.15290298781184
C            1.51096684359554       -0.90161600031235        3.25062353084255
S            0.91472019051683        0.02230730497149       -1.65251499757137
C            0.08744672484802        1.54213973335573       -1.03821996845264
S           -0.84237184788085        1.40436658659116        0.53408799304074
P           -2.62911367603829        0.38301831380576       -0.02933424606129
S           -2.88648713085461        0.18933615755125       -1.94776219869243
O           -3.76192122433953        1.15006831352619        0.81389283348399
C           -4.25197788393655        2.45611345243298        0.35135422012706
C           -5.13999966178109        3.00418739747472        1.43745157043691
O           -2.65056416145901       -0.94988141463142        0.86587069443946
C           -1.72641355643211       -2.05328686691428        0.55362166836533
C           -2.52649856057250       -3.26353759320690        0.15061229189218
H            5.71763665692799       -2.41894088360903       -1.53817105129399
H            6.44276676992366       -1.04035621756777       -2.38730038369770
H            6.08715205064704       -0.91801836176677       -0.65131144030508
H            4.01081019876009       -1.16638312897528       -2.90868939770865
H            4.36957127522857        0.30796303324470       -1.97339217627281
H            2.32649246299037       -2.62343580227774        2.21369682042381
H            3.36272409713202       -1.17879273835234        2.15834322660740
H            1.93107277421526       -1.19200513133321        4.21909739596723
H            1.53028059860146        0.18912233486663        3.17575181975945
H            0.47282780177575       -1.24408326557766        3.20822813103639
H           -0.58601798505903        1.85560915113194       -1.84033224450865
H            0.84026619730291        2.31701832826770       -0.86540246478014
H           -3.39160251911469        3.10828659794770        0.16553146433136
H           -4.79707735612737        2.30047781969886       -0.58421564527529
H           -5.98213453492354        2.33318370122345        1.62840122356469
H           -4.57973140168691        3.15004050525174        2.36505278942059
H           -5.53549345288977        3.97209394268998        1.11548844097654
H           -1.03643452853315       -1.74381316079100       -0.23759518687665
H           -1.15576836822918       -2.22177869174662        1.46978628895193
H           -3.07549266330715       -3.08052239846148       -0.77709422402098
H           -1.84240078587377       -4.10297557175387       -0.01027591432699
H           -3.23511059679036       -3.54262961187793        0.93542577972562
41
 energy: -2932.484286219437 gnorm: 0.001342087188 xtb: 6.7.1 (edcfbbe)
C            5.73518125781027       -1.32717993341259       -1.60238814645166
C            4.37325799937316       -0.78543900364304       -1.95015110469464
O            3.41490125633142       -1.25811427259607       -0.93682601908039
P            2.41910130096150       -0.23687312407020       -0.18916066205779
S            3.21263466532679        1.38965440696488        0.53539283873764
O            1.70738361887589       -1.22932161192844        0.84841537904943
C            2.32668975663277       -1.53351820092462        2.15316818953696
C            1.50882671119482       -0.90139428369618        3.24934072661539
S            0.91572040100508        0.02477525018569       -1.65408945245040
C            0.08637571793927        1.54243423040642       -1.03727945639636
S           -0.84321440638407        1.40677126384323        0.53541207494325
P           -2.62826473565229        0.38282321197812       -0.02867983283105
S           -2.88686384944218        0.19027055804693       -1.94693069737300
O           -3.76118593231506        1.15001500925099        0.81476538240810
C           -4.25055095121511        2.45643005591331        0.35157118510352
C           -5.13939824679218        3.00511539125570        1.43669156892035
O           -2.64954573818363       -0.95007726185726        0.86589829182690
C           -1.72484021546123       -2.05365503744645        0.55234441052453
C           -2.52579842973867       -3.26526736349283        0.15286678682774
H            5.71858180793810       -2.41934703707643       -1.54424524838590
H            6.44465823875531       -1.03464841581962       -2.38316791304408
H            6.08354168659766       -0.92312113740630       -0.64730446335750
H            4.01181450911120       -1.16407300783276       -2.90995149297527
H            4.36973466242435        0.30863996088264       -1.97160772423565
H            2.32589976135884       -2.62430486432797        2.21518151104797
H            3.36170449191066       -1.17917728988965        2.15914198074874
H            1.92939159327770       -1.18866556921711        4.21869485048882
H            1.52632975721005        0.18926398787120        3.17182996207781
H            0.47114126103446       -1.24567134705310        3.20743611243478
H           -0.58665403138793        1.85694074242018       -1.83923292093488
H            0.83959280706734        2.31678033197907       -0.86424293498826
H           -3.38963705338411        3.10811218292204        0.16657770069190
H           -4.79481258527922        2.30077647982422       -0.58447664558732
H           -5.98161249082671        2.33420249965352        1.62762937702998
H           -4.57991852505063        3.15201802800859        2.36470742176176
H           -5.53494288352351        3.97277160994380        1.11353315527298
H           -1.03699145436719       -1.74429428669902       -0.24202539529846
H           -1.15172920710782       -2.22011297377516        1.46835899453238
H           -3.08170932389713       -3.08152027667441       -0.77147965422921
H           -1.84095127191602       -4.10310363125152       -0.01462364582534
H           -3.22802915079171       -3.54765455610556        0.94295659901832
41
 energy: -2932.484293914859 gnorm: 0.001358873664 xtb: 6.7.1 (edcfbbe)
C            5.73515829682842       -1.32711246507386       -1.60225859088016
C            4.37379461584352       -0.78429176986772       -1.95084568706972
O            3.41449572456105       -1.25871582100910       -0.93944320060010
P            2.41957665060271       -0.23784981345262       -0.18984018807110
S            3.21326516404130        1.38787999499853        0.53701063555124
O            1.70718305207473       -1.23087317604890        0.84652899495746
C            2.32474836406223       -1.53402628752000        2.15247259731990
C            1.50615981895636       -0.90121802589392        3.24778751287517
S            0.91340266291862        0.02364222333831       -1.65136473586691
C            0.08647266324250        1.54375413025514       -1.03758084419166
S           -0.84311814303810        1.40722882383423        0.53475708259669
P           -2.62813338768991        0.38224434510800       -0.02774049641782
S           -2.88718976423068        0.19079913780613       -1.94603896110095
O           -3.76094691551110        1.14986928101583        0.81578704150507
C           -4.24914815698452        2.45657487093728        0.35202774239848
C           -5.13885328937682        3.00614443235038        1.43597377187376
O           -2.64938843778228       -0.95076650728052        0.86622188176650
C           -1.72411743959847       -2.05373907977994        0.55136040198110
C           -2.52452589367741       -3.26753997822873        0.15602974648611
H            5.71939049766787       -2.41962422387884       -1.55077731083443
H            6.44700236343868       -1.02892247253130       -2.37873238163011
H            6.07977853082534       -0.92855998922897       -0.64345799092663
H            4.01330167101739       -1.16072040618894       -2.91188703870583
H            4.37055048824875        0.30984126413601       -1.96980356227567
H            2.32389943027006       -2.62471843919943        2.21555097659501
H            3.35973513868045       -1.17969737506716        2.15926866509814
H            1.92730063791993       -1.18604599886277        4.21764227224121
H            1.52223190919755        0.18930471520489        3.16850511989754
H            0.46894016173870       -1.24693213046553        3.20678062741558
H           -0.58623186679033        1.85845930471973       -1.83967412601298
H            0.84066527276590        2.31705175751713       -0.86412799953925
H           -3.38767348833001        3.10774449005884        0.16785110014033
H           -4.79261084843863        2.30115225568279       -0.58451412671295
H           -5.98133521498231        2.33554684599236        1.62684469877377
H           -4.58022559770754        3.15410468242906        2.36434567560722
H           -5.53405139130102        3.97350050710819        1.11139265732016
H           -1.03923487428463       -1.74489334289970       -0.24587250501136
H           -1.14733701893381       -2.21874291511175        1.46534870120541
H           -3.08756505238351       -3.08256608667043       -0.76375605364655
H           -1.83919622301959       -4.10359802691152       -0.01854118823379
H           -3.22034112435284       -3.55246941504438        0.95078475634002
41
 energy: -2932.484298893619 gnorm: 0.000976160853 xtb: 6.7.1 (edcfbbe)
C            5.73500250988045       -1.32686755822255       -1.60194411733793
C            4.37434672455202       -0.78245049560710       -1.95115160091549
O            3.41331822132740       -1.25899773510879       -0.94262551674021
P            2.41886521738487       -0.23885108423025       -0.19127060293544
S            3.21369058725414        1.38484895693460        0.53832782356117
O            1.70649977925202       -1.23290410991672        0.84460748842093
C            2.32240041057444       -1.53488759563662        2.15199871965845
C            1.50260963997659       -0.90109200503531        3.24585185747763
S            0.91173394808773        0.02354216799015       -1.65194209929812
C            0.08565772730968        1.54345307193295       -1.03671157257234
S           -0.84186227008454        1.40543883380331        0.53677308555129
P           -2.62734886259981        0.38233989960383       -0.02819278120426
S           -2.88817013137629        0.18931755100354       -1.94641171229603
O           -3.75966500321697        1.14979579254804        0.81621704943220
C           -4.24714204580676        2.45648492538580        0.35250217208307
C           -5.13785662779363        3.00704950337494        1.43514072653239
O           -2.64776284524227       -0.95098113448990        0.86546607750625
C           -1.72244576575280       -2.05291006444291        0.54945943191989
C           -2.52308920280117       -3.26894601391552        0.16074666459927
H            5.72007328454018       -2.41969164834998       -1.55880345281992
H            6.44967157311105       -1.02192437515584       -2.37302755902739
H            6.07524654739333       -0.93531921162819       -0.63878096363958
H            4.01533453034135       -1.15571234390876       -2.91398226814544
H            4.37184314434672        0.31171672152815       -1.96705896094384
H            2.32110297422251       -2.62550400762526        2.21590786693146
H            3.35737335060162       -1.18070784422116        2.15940505341053
H            1.92432287194215       -1.18363808334619        4.21603954622593
H            1.51729103131241        0.18927098448002        3.16488853573749
H            0.46591006023965       -1.24829621947547        3.20588433646769
H           -0.58686339553212        1.85917782881994       -1.83858900891490
H            0.84050510438301        2.31608869952175       -0.86288851396354
H           -3.38533171639418        3.10744409505597        0.16909176390806
H           -4.78981580376057        2.30156058615173       -0.58458825024301
H           -5.98072071858725        2.33688745107612        1.62579056374549
H           -4.58032688827475        3.15617355444102        2.36391785319699
H           -5.53250552418347        3.97401929973181        1.10889231850798
H           -1.04231708719692       -1.74530066531641       -0.25160281773766
H           -1.14052809471687       -2.21531586274249        1.46009174358353
H           -3.09527935812093       -3.08412096488788       -0.75288455883143
H           -1.83715533187987       -4.10256301209177       -0.02169575942896
H           -3.21075979746859       -3.55646344646074        0.96111459932291
41
 energy: -2932.484298893619 gnorm: 0.000976160853 xtb: 6.7.1 (edcfbbe)
C            5.73500250988045       -1.32686755822255       -1.60194411733793
C            4.37434672455202       -0.78245049560710       -1.95115160091549
O            3.41331822132740       -1.25899773510879       -0.94262551674021
P            2.41886521738487       -0.23885108423025       -0.19127060293544
S            3.21369058725414        1.38484895693460        0.53832782356117
O            1.70649977925202       -1.23290410991672        0.84460748842093
C            2.32240041057444       -1.53488759563662        2.15199871965845
C            1.50260963997659       -0.90109200503531        3.24585185747763
S            0.91173394808773        0.02354216799015       -1.65194209929812
C            0.08565772730968        1.54345307193295       -1.03671157257234
S           -0.84186227008454        1.40543883380331        0.53677308555129
P           -2.62734886259981        0.38233989960383       -0.02819278120426
S           -2.88817013137629        0.18931755100354       -1.94641171229603
O           -3.75966500321697        1.14979579254804        0.81621704943220
C           -4.24714204580676        2.45648492538580        0.35250217208307
C           -5.13785662779363        3.00704950337494        1.43514072653239
O           -2.64776284524227       -0.95098113448990        0.86546607750625
C           -1.72244576575280       -2.05291006444291        0.54945943191989
C           -2.52308920280117       -3.26894601391552        0.16074666459927
H            5.72007328454018       -2.41969164834998       -1.55880345281992
H            6.44967157311105       -1.02192437515584       -2.37302755902739
H            6.07524654739333       -0.93531921162819       -0.63878096363958
H            4.01533453034135       -1.15571234390876       -2.91398226814544
H            4.37184314434672        0.31171672152815       -1.96705896094384
H            2.32110297422251       -2.62550400762526        2.21590786693146
H            3.35737335060162       -1.18070784422116        2.15940505341053
H            1.92432287194215       -1.18363808334619        4.21603954622593
H            1.51729103131241        0.18927098448002        3.16488853573749
H            0.46591006023965       -1.24829621947547        3.20588433646769
H           -0.58686339553212        1.85917782881994       -1.83858900891490
H            0.84050510438301        2.31608869952175       -0.86288851396354
H           -3.38533171639418        3.10744409505597        0.16909176390806
H           -4.78981580376057        2.30156058615173       -0.58458825024301
H           -5.98072071858725        2.33688745107612        1.62579056374549
H           -4.58032688827475        3.15617355444102        2.36391785319699
H           -5.53250552418347        3.97401929973181        1.10889231850798
H           -1.04231708719692       -1.74530066531641       -0.25160281773766
H           -1.14052809471687       -2.21531586274249        1.46009174358353
H           -3.09527935812093       -3.08412096488788       -0.75288455883143
H           -1.83715533187987       -4.10256301209177       -0.02169575942896
H           -3.21075979746859       -3.55646344646074        0.96111459932291
