      -----------------------------------------------------------      
     |                   =====================                   |     
     |                           x T B                           |     
     |                   =====================                   |     
     |                         S. Grimme                         |     
     |          Mulliken Center for Theoretical Chemistry        |     
     |                    University of Bonn                     |     
      -----------------------------------------------------------      

   * xtb version 6.7.1 (edcfbbe) compiled by 'albert@albert-system' on 2024-07-22

   xtb is free software: you can redistribute it and/or modify it under
   the terms of the GNU Lesser General Public License as published by
   the Free Software Foundation, either version 3 of the License, or
   (at your option) any later version.
   
   xtb is distributed in the hope that it will be useful,
   but WITHOUT ANY WARRANTY; without even the implied warranty of
   MERCHANTABILITY or FITNESS FOR A PARTICULAR PURPOSE.  See the
   GNU Lesser General Public License for more details.
   
   Cite this work as:
   * C. Bannwarth, E. Caldeweyher, S. Ehlert, A. Hansen, P. Pracht,
     J. Seibert, S. Spicher, S. Grimme, WIREs Comput. Mol. Sci., 2020, 11,
     e01493. DOI: 10.1002/wcms.1493
   
   for GFN2-xTB:
   * C. Bannwarth, S. Ehlert and S. Grimme., J. Chem. Theory Comput., 2019,
     15, 1652-1671. DOI: 10.1021/acs.jctc.8b01176
   for GFN1-xTB:
   * S. Grimme, C. Bannwarth, P. Shushkov, J. Chem. Theory Comput., 2017,
     13, 1989-2009. DOI: 10.1021/acs.jctc.7b00118
   for GFN0-xTB:
   * P. Pracht, E. Caldeweyher, S. Ehlert, S. Grimme, ChemRxiv, 2019, preprint.
     DOI: 10.26434/chemrxiv.8326202.v1
   for GFN-FF:
   * S. Spicher and S. Grimme, Angew. Chem. Int. Ed., 2020, 59, 15665-15673.
     DOI: 10.1002/anie.202004239
   
   for ALPB and GBSA implicit solvation:
   * S. Ehlert, M. Stahn, S. Spicher, S. Grimme, J. Chem. Theory Comput.,
     2021, 17, 4250-4261. DOI: 10.1021/acs.jctc.1c00471
   
   for ddCOSMO and CPCM-X implicit solvation:
   * M. Stahn, S. Ehlert, S. Grimme, J. Phys. Chem. A,
     2023, XX, XXXX-XXXX. DOI: 10.1021/acs.jpca.3c04382
   
   for DFT-D4:
   * E. Caldeweyher, C. Bannwarth and S. Grimme, J. Chem. Phys., 2017,
     147, 034112. DOI: 10.1063/1.4993215
   * E. Caldeweyher, S. Ehlert, A. Hansen, H. Neugebauer, S. Spicher,
     C. Bannwarth and S. Grimme, J. Chem. Phys., 2019, 150, 154122.
     DOI: 10.1063/1.5090222
   * E. Caldeweyher, J.-M. Mewes, S. Ehlert and S. Grimme, Phys. Chem. Chem. Phys.
     2020, 22, 8499-8512. DOI: 10.1039/D0CP00502A
   
   for sTDA-xTB:
   * S. Grimme and C. Bannwarth, J. Chem. Phys., 2016, 145, 054103.
     DOI: 10.1063/1.4959605
   
   in the mass-spec context:
   * V. Asgeirsson, C. Bauer and S. Grimme, Chem. Sci., 2017, 8, 4879.
     DOI: 10.1039/c7sc00601b
   * J. Koopman and S. Grimme, ACS Omega 2019, 4, 12, 15120-15133.
     DOI: 10.1021/acsomega.9b02011
   
   for metadynamics refer to:
   * S. Grimme, J. Chem. Theory Comput., 2019, 155, 2847-2862
     DOI: 10.1021/acs.jctc.9b00143
   
   for SPH calculations refer to:
   * S. Spicher and S. Grimme, J. Chem. Theory Comput., 2021, 17, 1701-1714
     DOI: 10.1021/acs.jctc.0c01306
   
   for ONIOM refer to:
   * C. Plett, A. Katbashev, S. Ehlert, S. Grimme, M. Bursch,
     Phys. Chem. Chem. Phys., 2023, 25, 17860-17868. DOI: 10.1039/D3CP02178E
   
   for DIPRO refer to:
   * J. Kohn, N. Gildemeister, S. Grimme, D. Fazzi, A. Hansen,
     J. Chem. Phys., 2023, just accepted.
   
   for PTB refer to:
   * S. Grimme, M. Mueller, A. Hansen, J. Chem. Phys., 2023, 158, 124111.
     DOI: 10.1063/5.0137838
   
   with help from (in alphabetical order)
   P. Atkinson, C. Bannwarth, F. Bohle, G. Brandenburg, E. Caldeweyher
   M. Checinski, S. Dohm, S. Ehlert, S. Ehrlich, I. Gerasimov, C. Hölzer
   A. Katbashev, J. Kohn, J. Koopman, C. Lavigne, S. Lehtola, F. März, M. Müller,
   F. Musil, H. Neugebauer, J. Pisarek, C. Plett, P. Pracht, F. Pultar,
   J. Seibert, P. Shushkov, S. Spicher, M. Stahn, M. Steiner, T. Strunk,
   J. Stückrath, T. Rose, and J. Unsleber
   
 * started run on 2025/04/09 at 05:21:22.752     
   ID    Z sym.   atoms
    1    6 C      1, 2, 7, 8, 10, 15, 16, 18, 19
    2    8 O      3, 6, 14, 17
    3   15 P      4, 12
    4   16 S      5, 9, 11, 13
    5    1 H      20-41

           -------------------------------------------------
          |                Calculation Setup                |
           -------------------------------------------------

          program call               : /srv/scratch/z5358697/.xtb/bin/xtb gas.coord --gfn2 --sp --chrg 0 --norestart --parallel 1
          hostname                   : k163
          coordinate file            : gas.coord
          omp threads                :                     1


           -------------------------------------------------
          |                 G F N 2 - x T B                 |
           -------------------------------------------------

        Reference                      10.1021/acs.jctc.8b01176
      * Hamiltonian:
        H0-scaling (s, p, d)           1.850000    2.230000    2.230000
        zeta-weighting                 0.500000
      * Dispersion:
        s8                             2.700000
        a1                             0.520000
        a2                             5.000000
        s9                             5.000000
      * Repulsion:
        kExp                           1.500000    1.000000
        rExp                           1.000000
      * Coulomb:
        alpha                          2.000000
        third order                    shell-resolved
        anisotropic                    true
        a3                             3.000000
        a5                             4.000000
        cn-shift                       1.200000
        cn-exp                         4.000000
        max-rad                        5.000000


          ...................................................
          :                      SETUP                      :
          :.................................................:
          :  # basis functions                 134          :
          :  # atomic orbitals                 128          :
          :  # shells                           66          :
          :  # electrons                       116          :
          :  max. iterations                   250          :
          :  Hamiltonian                  GFN2-xTB          :
          :  restarted?                      false          :
          :  GBSA solvation                  false          :
          :  PC potential                    false          :
          :  electronic temp.          300.0000000     K    :
          :  accuracy                    1.0000000          :
          :  -> integral cutoff          0.2500000E+02      :
          :  -> integral neglect         0.1000000E-07      :
          :  -> SCF convergence          0.1000000E-05 Eh   :
          :  -> wf. convergence          0.1000000E-03 e    :
          :  Broyden damping             0.4000000          :
          :  net charge                          0          :
          :  unpaired electrons                  0          :
          ...................................................

 iter      E             dE          RMSdq      gap      omega  full diag
   1    -65.3821995 -0.653822E+02  0.636E+00    4.20       0.0  T
   2    -65.5475941 -0.165395E+00  0.392E+00    3.11       1.0  T
   3    -65.5671235 -0.195293E-01  0.142E+00    2.98       1.0  T
   4    -65.5696184 -0.249496E-02  0.612E-01    2.74       1.0  T
   5    -65.5704581 -0.839634E-03  0.265E-01    2.85       1.0  T
   6    -65.5705899 -0.131820E-03  0.134E-01    2.83       1.0  T
   7    -65.5706451 -0.552478E-04  0.506E-02    2.85       1.0  T
   8    -65.5706553 -0.101554E-04  0.240E-02    2.85       1.0  T
   9    -65.5706568 -0.148128E-05  0.595E-03    2.85       2.6  T
  10    -65.5706569 -0.126621E-06  0.280E-03    2.85       5.6  T
  11    -65.5706569 -0.807037E-08  0.575E-04    2.85      27.1  T
  12    -65.5706569 -0.570367E-09  0.309E-04    2.85      50.5  T

   *** convergence criteria satisfied after 12 iterations ***

         #    Occupation            Energy/Eh            Energy/eV
      -------------------------------------------------------------
         1        2.0000           -0.7582669             -20.6335
       ...           ...                  ...                  ...
        52        2.0000           -0.4361784             -11.8690
        53        2.0000           -0.4106438             -11.1742
        54        2.0000           -0.4008468             -10.9076
        55        2.0000           -0.3755184             -10.2184
        56        2.0000           -0.3711206             -10.0987
        57        2.0000           -0.3689162             -10.0387
        58        2.0000           -0.3670783              -9.9887 (HOMO)
        59                         -0.2621799              -7.1343 (LUMO)
        60                         -0.2494513              -6.7879
        61                         -0.2084667              -5.6727
        62                         -0.1784607              -4.8562
        63                         -0.1661696              -4.5217
       ...                                ...                  ...
       128                          1.2982346              35.3268
      -------------------------------------------------------------
                  HL-Gap            0.1048984 Eh            2.8544 eV
             Fermi-level           -0.3146291 Eh           -8.5615 eV

 SCC (total)                   0 d,  0 h,  0 min,  0.056 sec
 SCC setup                      ...        0 min,  0.000 sec (  0.475%)
 Dispersion                     ...        0 min,  0.000 sec (  0.538%)
 classical contributions        ...        0 min,  0.000 sec (  0.102%)
 integral evaluation            ...        0 min,  0.008 sec ( 14.946%)
 iterations                     ...        0 min,  0.025 sec ( 44.519%)
 molecular gradient             ...        0 min,  0.022 sec ( 39.034%)
 printout                       ...        0 min,  0.000 sec (  0.360%)

         :::::::::::::::::::::::::::::::::::::::::::::::::::::
         ::                     SUMMARY                     ::
         :::::::::::::::::::::::::::::::::::::::::::::::::::::
         :: total energy             -65.007390464827 Eh    ::
         :: gradient norm              0.038646743856 Eh/a0 ::
         :: HOMO-LUMO gap              2.854431032576 eV    ::
         ::.................................................::
         :: SCC energy               -65.569691441211 Eh    ::
         :: -> isotropic ES            0.102781711778 Eh    ::
         :: -> anisotropic ES         -0.012040655244 Eh    ::
         :: -> anisotropic XC          0.031167288507 Eh    ::
         :: -> dispersion             -0.052681863078 Eh    ::
         :: repulsion energy           0.562300976383 Eh    ::
         :: add. restraining           0.000000000000 Eh    ::
         :: total charge               0.000000000000 e     ::
         :::::::::::::::::::::::::::::::::::::::::::::::::::::

           -------------------------------------------------
          |                Property Printout                |
           -------------------------------------------------

    * Orbital Energies and Occupations

         #    Occupation            Energy/Eh            Energy/eV
      -------------------------------------------------------------
         1        2.0000           -0.7582669             -20.6335
       ...           ...                  ...                  ...
        46        2.0000           -0.4673183             -12.7164
        47        2.0000           -0.4635584             -12.6141
        48        2.0000           -0.4624742             -12.5846
        49        2.0000           -0.4608747             -12.5410
        50        2.0000           -0.4496514             -12.2356
        51        2.0000           -0.4429632             -12.0536
        52        2.0000           -0.4361784             -11.8690
        53        2.0000           -0.4106438             -11.1742
        54        2.0000           -0.4008468             -10.9076
        55        2.0000           -0.3755184             -10.2184
        56        2.0000           -0.3711206             -10.0987
        57        2.0000           -0.3689162             -10.0387
        58        2.0000           -0.3670783              -9.9887 (HOMO)
        59                         -0.2621799              -7.1343 (LUMO)
        60                         -0.2494513              -6.7879
        61                         -0.2084667              -5.6727
        62                         -0.1784607              -4.8562
        63                         -0.1661696              -4.5217
        64                         -0.1604548              -4.3662
        65                         -0.1545340              -4.2051
        66                         -0.1463115              -3.9813
        67                         -0.1169894              -3.1834
        68                         -0.1136885              -3.0936
        69                         -0.0471298              -1.2825
       ...                                ...                  ...
       128                          1.2982346              35.3268
      -------------------------------------------------------------
                  HL-Gap            0.1048984 Eh            2.8544 eV
             Fermi-level           -0.3146291 Eh           -8.5615 eV

     #   Z          covCN         q      C6AA      α(0)
     1   6 C        3.751    -0.117    22.802     6.810
     2   6 C        3.841     0.083    19.183     6.231
     3   8 O        1.655    -0.246    18.101     5.743
     4  15 P        3.822     0.366   145.002    21.631
     5  16 S        0.926    -0.358   154.665    21.035
     6   8 O        1.653    -0.239    17.972     5.723
     7   6 C        3.850     0.081    19.210     6.234
     8   6 C        3.751    -0.117    22.796     6.809
     9  16 S        2.036    -0.190   149.137    20.554
    10   6 C        3.807     0.053    19.689     6.317
    11  16 S        2.034    -0.172   148.332    20.498
    12  15 P        3.813     0.381   144.413    21.587
    13  16 S        0.926    -0.378   155.577    21.097
    14   8 O        1.654    -0.233    17.874     5.707
    15   6 C        3.855     0.080    19.223     6.236
    16   6 C        3.751    -0.117    22.811     6.811
    17   8 O        1.655    -0.245    18.078     5.740
    18   6 C        3.828     0.082    19.195     6.234
    19   6 C        3.751    -0.118    22.820     6.813
    20   1 H        0.925     0.056     2.241     2.341
    21   1 H        0.925     0.060     2.203     2.321
    22   1 H        0.925     0.073     2.050     2.239
    23   1 H        0.924     0.056     2.242     2.342
    24   1 H        0.924     0.068     2.108     2.271
    25   1 H        0.924     0.057     2.229     2.335
    26   1 H        0.924     0.066     2.128     2.281
    27   1 H        0.925     0.061     2.185     2.311
    28   1 H        0.925     0.059     2.214     2.327
    29   1 H        0.925     0.065     2.145     2.290
    30   1 H        0.924     0.091     1.872     2.140
    31   1 H        0.925     0.072     2.059     2.244
    32   1 H        0.924     0.057     2.231     2.336
    33   1 H        0.924     0.069     2.096     2.264
    34   1 H        0.925     0.065     2.142     2.289
    35   1 H        0.925     0.059     2.213     2.326
    36   1 H        0.925     0.065     2.139     2.287
    37   1 H        0.924     0.056     2.243     2.342
    38   1 H        0.924     0.064     2.158     2.297
    39   1 H        0.925     0.057     2.238     2.340
    40   1 H        0.925     0.063     2.167     2.302
    41   1 H        0.925     0.066     2.128     2.281

 Mol. C6AA /au·bohr⁶  :      26546.775847
 Mol. C8AA /au·bohr⁸  :     863359.489325
 Mol. α(0) /au        :        258.316093


Wiberg/Mayer (AO) data.
largest (>0.10) Wiberg bond orders for each atom

 ---------------------------------------------------------------------------
     #   Z sym  total        # sym  WBO       # sym  WBO       # sym  WBO
 ---------------------------------------------------------------------------
     1   6 C    3.988 --     2 C    1.020    20 H    0.985    21 H    0.980
                            22 H    0.979
     2   6 C    3.904 --     1 C    1.020    23 H    0.971    24 H    0.963
                             3 O    0.898
     3   8 O    2.414 --     4 P    1.316     2 C    0.898
     4  15 P    5.296 --     5 S    1.588     6 O    1.335     3 O    1.316
                             9 S    0.936
     5  16 S    1.933 --     4 P    1.588     9 S    0.148
     6   8 O    2.407 --     4 P    1.335     7 C    0.889
     7   6 C    3.913 --     8 C    1.022    26 H    0.971    25 H    0.970
                             6 O    0.889
     8   6 C    3.990 --     7 C    1.022    29 H    0.984    27 H    0.982
                            28 H    0.980
     9  16 S    2.247 --    10 C    0.975     4 P    0.936     5 S    0.148
    10   6 C    3.955 --    11 S    0.997     9 S    0.975    31 H    0.969
                            30 H    0.944
    11  16 S    2.264 --    10 C    0.997    12 P    0.930    13 S    0.144
    12  15 P    5.268 --    13 S    1.569    14 O    1.350    17 O    1.300
                            11 S    0.930
    13  16 S    1.912 --    12 P    1.569    11 S    0.144
    14   8 O    2.419 --    12 P    1.350    15 C    0.890
    15   6 C    3.912 --    16 C    1.021    33 H    0.971    32 H    0.966
                            14 O    0.890
    16   6 C    3.989 --    15 C    1.021    36 H    0.984    34 H    0.981
                            35 H    0.980
    17   8 O    2.414 --    12 P    1.300    18 C    0.906
    18   6 C    3.910 --    19 C    1.020    38 H    0.969    37 H    0.965
                            17 O    0.906
    19   6 C    3.989 --    18 C    1.020    40 H    0.984    39 H    0.981
                            41 H    0.977
    20   1 H    0.997 --     1 C    0.985
    21   1 H    0.995 --     1 C    0.980
    22   1 H    0.995 --     1 C    0.979
    23   1 H    0.997 --     2 C    0.971
    24   1 H    0.995 --     2 C    0.963
    25   1 H    0.997 --     7 C    0.970
    26   1 H    0.996 --     7 C    0.971
    27   1 H    0.996 --     8 C    0.982
    28   1 H    0.995 --     8 C    0.980
    29   1 H    0.996 --     8 C    0.984
    30   1 H    0.992 --    10 C    0.944
    31   1 H    0.995 --    10 C    0.969
    32   1 H    0.997 --    15 C    0.966
    33   1 H    0.995 --    15 C    0.971
    34   1 H    0.996 --    16 C    0.981
    35   1 H    0.995 --    16 C    0.980
    36   1 H    0.996 --    16 C    0.984
    37   1 H    0.997 --    18 C    0.965
    38   1 H    0.996 --    18 C    0.969
    39   1 H    0.996 --    19 C    0.981
    40   1 H    0.996 --    19 C    0.984
    41   1 H    0.996 --    19 C    0.977
 ---------------------------------------------------------------------------

Topologies differ in total number of bonds
Writing topology from bond orders to xtbtopo.mol

molecular dipole:
                 x           y           z       tot (Debye)
 q only:       -1.526      -2.488       0.464
   full:       -1.464      -2.556       0.503       7.595
molecular quadrupole (traceless):
                xx          xy          yy          xz          yz          zz
 q only:        9.380     -16.689      -6.964      -3.610       3.560      -2.416
  q+dip:       12.291     -20.080      -7.646      -0.093       5.926      -4.645
   full:       12.807     -20.818      -8.294      -0.783       5.683      -4.513


           -------------------------------------------------
          | TOTAL ENERGY              -65.007390464827 Eh   |
          | GRADIENT NORM               0.038646743856 Eh/α |
          | HOMO-LUMO GAP               2.854431032576 eV   |
           -------------------------------------------------

------------------------------------------------------------------------
 * finished run on 2025/04/09 at 05:21:22.839     
------------------------------------------------------------------------
 total:
 * wall-time:     0 d,  0 h,  0 min,  0.087 sec
 *  cpu-time:     0 d,  0 h,  0 min,  0.068 sec
 * ratio c/w:     0.786 speedup
 SCF:
 * wall-time:     0 d,  0 h,  0 min,  0.056 sec
 *  cpu-time:     0 d,  0 h,  0 min,  0.055 sec
 * ratio c/w:     0.991 speedup

