      -----------------------------------------------------------      
     |                   =====================                   |     
     |                           x T B                           |     
     |                   =====================                   |     
     |                         S. Grimme                         |     
     |          Mulliken Center for Theoretical Chemistry        |     
     |                    University of Bonn                     |     
      -----------------------------------------------------------      

   * xtb version 6.7.1 (edcfbbe) compiled by 'albert@albert-system' on 2024-07-22

   xtb is free software: you can redistribute it and/or modify it under
   the terms of the GNU Lesser General Public License as published by
   the Free Software Foundation, either version 3 of the License, or
   (at your option) any later version.
   
   xtb is distributed in the hope that it will be useful,
   but WITHOUT ANY WARRANTY; without even the implied warranty of
   MERCHANTABILITY or FITNESS FOR A PARTICULAR PURPOSE.  See the
   GNU Lesser General Public License for more details.
   
   Cite this work as:
   * C. Bannwarth, E. Caldeweyher, S. Ehlert, A. Hansen, P. Pracht,
     J. Seibert, S. Spicher, S. Grimme, WIREs Comput. Mol. Sci., 2020, 11,
     e01493. DOI: 10.1002/wcms.1493
   
   for GFN2-xTB:
   * C. Bannwarth, S. Ehlert and S. Grimme., J. Chem. Theory Comput., 2019,
     15, 1652-1671. DOI: 10.1021/acs.jctc.8b01176
   for GFN1-xTB:
   * S. Grimme, C. Bannwarth, P. Shushkov, J. Chem. Theory Comput., 2017,
     13, 1989-2009. DOI: 10.1021/acs.jctc.7b00118
   for GFN0-xTB:
   * P. Pracht, E. Caldeweyher, S. Ehlert, S. Grimme, ChemRxiv, 2019, preprint.
     DOI: 10.26434/chemrxiv.8326202.v1
   for GFN-FF:
   * S. Spicher and S. Grimme, Angew. Chem. Int. Ed., 2020, 59, 15665-15673.
     DOI: 10.1002/anie.202004239
   
   for ALPB and GBSA implicit solvation:
   * S. Ehlert, M. Stahn, S. Spicher, S. Grimme, J. Chem. Theory Comput.,
     2021, 17, 4250-4261. DOI: 10.1021/acs.jctc.1c00471
   
   for ddCOSMO and CPCM-X implicit solvation:
   * M. Stahn, S. Ehlert, S. Grimme, J. Phys. Chem. A,
     2023, XX, XXXX-XXXX. DOI: 10.1021/acs.jpca.3c04382
   
   for DFT-D4:
   * E. Caldeweyher, C. Bannwarth and S. Grimme, J. Chem. Phys., 2017,
     147, 034112. DOI: 10.1063/1.4993215
   * E. Caldeweyher, S. Ehlert, A. Hansen, H. Neugebauer, S. Spicher,
     C. Bannwarth and S. Grimme, J. Chem. Phys., 2019, 150, 154122.
     DOI: 10.1063/1.5090222
   * E. Caldeweyher, J.-M. Mewes, S. Ehlert and S. Grimme, Phys. Chem. Chem. Phys.
     2020, 22, 8499-8512. DOI: 10.1039/D0CP00502A
   
   for sTDA-xTB:
   * S. Grimme and C. Bannwarth, J. Chem. Phys., 2016, 145, 054103.
     DOI: 10.1063/1.4959605
   
   in the mass-spec context:
   * V. Asgeirsson, C. Bauer and S. Grimme, Chem. Sci., 2017, 8, 4879.
     DOI: 10.1039/c7sc00601b
   * J. Koopman and S. Grimme, ACS Omega 2019, 4, 12, 15120-15133.
     DOI: 10.1021/acsomega.9b02011
   
   for metadynamics refer to:
   * S. Grimme, J. Chem. Theory Comput., 2019, 155, 2847-2862
     DOI: 10.1021/acs.jctc.9b00143
   
   for SPH calculations refer to:
   * S. Spicher and S. Grimme, J. Chem. Theory Comput., 2021, 17, 1701-1714
     DOI: 10.1021/acs.jctc.0c01306
   
   for ONIOM refer to:
   * C. Plett, A. Katbashev, S. Ehlert, S. Grimme, M. Bursch,
     Phys. Chem. Chem. Phys., 2023, 25, 17860-17868. DOI: 10.1039/D3CP02178E
   
   for DIPRO refer to:
   * J. Kohn, N. Gildemeister, S. Grimme, D. Fazzi, A. Hansen,
     J. Chem. Phys., 2023, just accepted.
   
   for PTB refer to:
   * S. Grimme, M. Mueller, A. Hansen, J. Chem. Phys., 2023, 158, 124111.
     DOI: 10.1063/5.0137838
   
   with help from (in alphabetical order)
   P. Atkinson, C. Bannwarth, F. Bohle, G. Brandenburg, E. Caldeweyher
   M. Checinski, S. Dohm, S. Ehlert, S. Ehrlich, I. Gerasimov, C. Hölzer
   A. Katbashev, J. Kohn, J. Koopman, C. Lavigne, S. Lehtola, F. März, M. Müller,
   F. Musil, H. Neugebauer, J. Pisarek, C. Plett, P. Pracht, F. Pultar,
   J. Seibert, P. Shushkov, S. Spicher, M. Stahn, M. Steiner, T. Strunk,
   J. Stückrath, T. Rose, and J. Unsleber
   
 * started run on 2025/04/09 at 05:21:30.569     
   ID    Z sym.   atoms
    1    6 C      1, 2, 7, 8, 10, 15, 16, 18, 19
    2    8 O      3, 6, 14, 17
    3   15 P      4, 12
    4   16 S      5, 9, 11, 13
    5    1 H      20-41

           -------------------------------------------------
          |                Calculation Setup                |
           -------------------------------------------------

          program call               : /srv/scratch/z5358697/.xtb/bin/xtb gas.coord --gfn2 --sp --chrg 0 --norestart --parallel 1
          hostname                   : k163
          coordinate file            : gas.coord
          omp threads                :                     1


           -------------------------------------------------
          |                 G F N 2 - x T B                 |
           -------------------------------------------------

        Reference                      10.1021/acs.jctc.8b01176
      * Hamiltonian:
        H0-scaling (s, p, d)           1.850000    2.230000    2.230000
        zeta-weighting                 0.500000
      * Dispersion:
        s8                             2.700000
        a1                             0.520000
        a2                             5.000000
        s9                             5.000000
      * Repulsion:
        kExp                           1.500000    1.000000
        rExp                           1.000000
      * Coulomb:
        alpha                          2.000000
        third order                    shell-resolved
        anisotropic                    true
        a3                             3.000000
        a5                             4.000000
        cn-shift                       1.200000
        cn-exp                         4.000000
        max-rad                        5.000000


          ...................................................
          :                      SETUP                      :
          :.................................................:
          :  # basis functions                 134          :
          :  # atomic orbitals                 128          :
          :  # shells                           66          :
          :  # electrons                       116          :
          :  max. iterations                   250          :
          :  Hamiltonian                  GFN2-xTB          :
          :  restarted?                      false          :
          :  GBSA solvation                  false          :
          :  PC potential                    false          :
          :  electronic temp.          300.0000000     K    :
          :  accuracy                    1.0000000          :
          :  -> integral cutoff          0.2500000E+02      :
          :  -> integral neglect         0.1000000E-07      :
          :  -> SCF convergence          0.1000000E-05 Eh   :
          :  -> wf. convergence          0.1000000E-03 e    :
          :  Broyden damping             0.4000000          :
          :  net charge                          0          :
          :  unpaired electrons                  0          :
          ...................................................

 iter      E             dE          RMSdq      gap      omega  full diag
   1    -65.3788845 -0.653789E+02  0.640E+00    4.22       0.0  T
   2    -65.5457894 -0.166905E+00  0.403E+00    3.08       1.0  T
   3    -65.5644787 -0.186893E-01  0.135E+00    2.97       1.0  T
   4    -65.5668165 -0.233773E-02  0.557E-01    2.74       1.0  T
   5    -65.5675413 -0.724830E-03  0.261E-01    2.86       1.0  T
   6    -65.5677649 -0.223620E-03  0.123E-01    2.84       1.0  T
   7    -65.5678222 -0.572525E-04  0.461E-02    2.85       1.0  T
   8    -65.5678305 -0.835140E-05  0.208E-02    2.85       1.0  T
   9    -65.5678315 -0.967114E-06  0.543E-03    2.85       2.9  T
  10    -65.5678316 -0.102068E-06  0.272E-03    2.85       5.8  T
  11    -65.5678316 -0.744390E-08  0.527E-04    2.85      29.6  T
  12    -65.5678316 -0.119682E-08  0.232E-04    2.85      67.4  T

   *** convergence criteria satisfied after 12 iterations ***

         #    Occupation            Energy/Eh            Energy/eV
      -------------------------------------------------------------
         1        2.0000           -0.7567721             -20.5928
       ...           ...                  ...                  ...
        52        2.0000           -0.4336024             -11.7989
        53        2.0000           -0.4096536             -11.1472
        54        2.0000           -0.3989818             -10.8568
        55        2.0000           -0.3759142             -10.2291
        56        2.0000           -0.3718102             -10.1175
        57        2.0000           -0.3687833             -10.0351
        58        2.0000           -0.3649857              -9.9318 (HOMO)
        59                         -0.2601084              -7.0779 (LUMO)
        60                         -0.2495562              -6.7908
        61                         -0.2078876              -5.6569
        62                         -0.1781924              -4.8489
        63                         -0.1583846              -4.3099
       ...                                ...                  ...
       128                          1.2563197              34.1862
      -------------------------------------------------------------
                  HL-Gap            0.1048772 Eh            2.8539 eV
             Fermi-level           -0.3125471 Eh           -8.5048 eV

 SCC (total)                   0 d,  0 h,  0 min,  0.067 sec
 SCC setup                      ...        0 min,  0.000 sec (  0.397%)
 Dispersion                     ...        0 min,  0.000 sec (  0.469%)
 classical contributions        ...        0 min,  0.000 sec (  0.089%)
 integral evaluation            ...        0 min,  0.019 sec ( 27.947%)
 iterations                     ...        0 min,  0.025 sec ( 37.402%)
 molecular gradient             ...        0 min,  0.022 sec ( 33.354%)
 printout                       ...        0 min,  0.000 sec (  0.320%)

         :::::::::::::::::::::::::::::::::::::::::::::::::::::
         ::                     SUMMARY                     ::
         :::::::::::::::::::::::::::::::::::::::::::::::::::::
         :: total energy             -65.008073534204 Eh    ::
         :: gradient norm              0.031947833536 Eh/a0 ::
         :: HOMO-LUMO gap              2.853854472035 eV    ::
         ::.................................................::
         :: SCC energy               -65.566762858297 Eh    ::
         :: -> isotropic ES            0.104733842562 Eh    ::
         :: -> anisotropic ES         -0.007551062296 Eh    ::
         :: -> anisotropic XC          0.031339813904 Eh    ::
         :: -> dispersion             -0.054075751992 Eh    ::
         :: repulsion energy           0.558689324094 Eh    ::
         :: add. restraining           0.000000000000 Eh    ::
         :: total charge              -0.000000000000 e     ::
         :::::::::::::::::::::::::::::::::::::::::::::::::::::

           -------------------------------------------------
          |                Property Printout                |
           -------------------------------------------------

    * Orbital Energies and Occupations

         #    Occupation            Energy/Eh            Energy/eV
      -------------------------------------------------------------
         1        2.0000           -0.7567721             -20.5928
       ...           ...                  ...                  ...
        46        2.0000           -0.4656622             -12.6713
        47        2.0000           -0.4627966             -12.5933
        48        2.0000           -0.4584375             -12.4747
        49        2.0000           -0.4561023             -12.4112
        50        2.0000           -0.4515873             -12.2883
        51        2.0000           -0.4419350             -12.0257
        52        2.0000           -0.4336024             -11.7989
        53        2.0000           -0.4096536             -11.1472
        54        2.0000           -0.3989818             -10.8568
        55        2.0000           -0.3759142             -10.2291
        56        2.0000           -0.3718102             -10.1175
        57        2.0000           -0.3687833             -10.0351
        58        2.0000           -0.3649857              -9.9318 (HOMO)
        59                         -0.2601084              -7.0779 (LUMO)
        60                         -0.2495562              -6.7908
        61                         -0.2078876              -5.6569
        62                         -0.1781924              -4.8489
        63                         -0.1583846              -4.3099
        64                         -0.1532441              -4.1700
        65                         -0.1494589              -4.0670
        66                         -0.1445892              -3.9345
        67                         -0.1217525              -3.3131
        68                         -0.1168351              -3.1792
        69                         -0.0385401              -1.0487
       ...                                ...                  ...
       128                          1.2563197              34.1862
      -------------------------------------------------------------
                  HL-Gap            0.1048772 Eh            2.8539 eV
             Fermi-level           -0.3125471 Eh           -8.5048 eV

     #   Z          covCN         q      C6AA      α(0)
     1   6 C        3.752    -0.117    22.796     6.809
     2   6 C        3.878     0.088    19.076     6.210
     3   8 O        1.655    -0.245    18.073     5.739
     4  15 P        3.881     0.375   144.643    21.604
     5  16 S        0.925    -0.422   157.659    21.238
     6   8 O        1.655    -0.253    18.213     5.761
     7   6 C        3.862     0.083    19.167     6.226
     8   6 C        3.751    -0.117    22.802     6.810
     9  16 S        2.017    -0.110   145.641    20.312
    10   6 C        3.808     0.037    19.945     6.357
    11  16 S        2.020    -0.164   147.988    20.475
    12  15 P        3.829     0.366   145.008    21.631
    13  16 S        0.926    -0.391   156.193    21.139
    14   8 O        1.655    -0.236    17.923     5.715
    15   6 C        3.842     0.081    19.206     6.234
    16   6 C        3.751    -0.117    22.798     6.809
    17   8 O        1.655    -0.226    17.762     5.689
    18   6 C        3.861     0.084    19.145     6.223
    19   6 C        3.751    -0.111    22.694     6.794
    20   1 H        0.925     0.066     2.128     2.281
    21   1 H        0.925     0.065     2.140     2.288
    22   1 H        0.925     0.060     2.204     2.322
    23   1 H        0.924     0.055     2.262     2.352
    24   1 H        0.924     0.052     2.294     2.368
    25   1 H        0.924     0.063     2.161     2.299
    26   1 H        0.924     0.063     2.164     2.301
    27   1 H        0.925     0.062     2.174     2.306
    28   1 H        0.925     0.061     2.183     2.311
    29   1 H        0.925     0.062     2.175     2.306
    30   1 H        0.924     0.096     1.819     2.109
    31   1 H        0.925     0.075     2.029     2.228
    32   1 H        0.924     0.070     2.085     2.258
    33   1 H        0.924     0.052     2.300     2.372
    34   1 H        0.925     0.057     2.234     2.338
    35   1 H        0.925     0.059     2.210     2.325
    36   1 H        0.925     0.069     2.098     2.265
    37   1 H        0.924     0.062     2.180     2.309
    38   1 H        0.924     0.071     2.074     2.252
    39   1 H        0.925     0.056     2.247     2.344
    40   1 H        0.925     0.057     2.232     2.336
    41   1 H        0.925     0.060     2.196     2.317

 Mol. C6AA /au·bohr⁶  :      26556.238435
 Mol. C8AA /au·bohr⁸  :     863478.524649
 Mol. α(0) /au        :        258.360140


Wiberg/Mayer (AO) data.
largest (>0.10) Wiberg bond orders for each atom

 ---------------------------------------------------------------------------
     #   Z sym  total        # sym  WBO       # sym  WBO       # sym  WBO
 ---------------------------------------------------------------------------
     1   6 C    3.988 --     2 C    1.020    20 H    0.984    21 H    0.983
                            22 H    0.980
     2   6 C    3.913 --     1 C    1.020    24 H    0.973    23 H    0.966
                             3 O    0.893
     3   8 O    2.395 --     4 P    1.309     2 C    0.893
     4  15 P    5.272 --     5 S    1.528     3 O    1.309     6 O    1.305
                             9 S    0.994
     5  16 S    1.869 --     4 P    1.528     9 S    0.142
     6   8 O    2.406 --     4 P    1.305     7 C    0.908
     7   6 C    3.910 --     8 C    1.022    25 H    0.970    26 H    0.968
                             6 O    0.908
     8   6 C    3.991 --     7 C    1.022    27 H    0.983    28 H    0.980
                            29 H    0.975
     9  16 S    2.295 --     4 P    0.994    10 C    0.994     5 S    0.142
    10   6 C    3.956 --     9 S    0.994    11 S    0.979    31 H    0.969
                            30 H    0.940
    11  16 S    2.266 --    10 C    0.979    12 P    0.948    13 S    0.159
    12  15 P    5.258 --    13 S    1.530    17 O    1.339    14 O    1.306
                            11 S    0.948
    13  16 S    1.903 --    12 P    1.530    11 S    0.159
    14   8 O    2.416 --    12 P    1.306    15 C    0.910
    15   6 C    3.912 --    16 C    1.020    32 H    0.968    33 H    0.968
                            14 O    0.910
    16   6 C    3.990 --    15 C    1.020    36 H    0.983    34 H    0.981
                            35 H    0.976
    17   8 O    2.436 --    12 P    1.339    18 C    0.904
    18   6 C    3.904 --    19 C    1.020    37 H    0.970    38 H    0.962
                            17 O    0.904
    19   6 C    3.991 --    18 C    1.020    39 H    0.985    40 H    0.981
                            41 H    0.977
    20   1 H    0.995 --     1 C    0.984
    21   1 H    0.996 --     1 C    0.983
    22   1 H    0.995 --     1 C    0.980
    23   1 H    0.997 --     2 C    0.966
    24   1 H    0.997 --     2 C    0.973
    25   1 H    0.996 --     7 C    0.970
    26   1 H    0.996 --     7 C    0.968
    27   1 H    0.996 --     8 C    0.983
    28   1 H    0.996 --     8 C    0.980
    29   1 H    0.996 --     8 C    0.975
    30   1 H    0.991 --    10 C    0.940
    31   1 H    0.994 --    10 C    0.969
    32   1 H    0.995 --    15 C    0.968
    33   1 H    0.997 --    15 C    0.968
    34   1 H    0.996 --    16 C    0.981
    35   1 H    0.997 --    16 C    0.976
    36   1 H    0.995 --    16 C    0.983
    37   1 H    0.996 --    18 C    0.970
    38   1 H    0.995 --    18 C    0.962
    39   1 H    0.997 --    19 C    0.985
    40   1 H    0.996 --    19 C    0.981
    41   1 H    0.996 --    19 C    0.977
 ---------------------------------------------------------------------------

Topologies differ in total number of bonds
Writing topology from bond orders to xtbtopo.mol

molecular dipole:
                 x           y           z       tot (Debye)
 q only:        0.849      -1.460      -0.079
   full:        0.815      -1.559      -0.428       4.603
molecular quadrupole (traceless):
                xx          xy          yy          xz          yz          zz
 q only:        8.851      12.181     -20.457      -6.846       2.466      11.606
  q+dip:       16.561      11.604     -23.307      -5.662       1.097       6.747
   full:       16.364      12.228     -24.486      -6.811       0.877       8.121


           -------------------------------------------------
          | TOTAL ENERGY              -65.008073534204 Eh   |
          | GRADIENT NORM               0.031947833536 Eh/α |
          | HOMO-LUMO GAP               2.853854472035 eV   |
           -------------------------------------------------

------------------------------------------------------------------------
 * finished run on 2025/04/09 at 05:21:30.706     
------------------------------------------------------------------------
 total:
 * wall-time:     0 d,  0 h,  0 min,  0.137 sec
 *  cpu-time:     0 d,  0 h,  0 min,  0.070 sec
 * ratio c/w:     0.510 speedup
 SCF:
 * wall-time:     0 d,  0 h,  0 min,  0.067 sec
 *  cpu-time:     0 d,  0 h,  0 min,  0.056 sec
 * ratio c/w:     0.840 speedup

