22
 energy: -2910.277500532546 gnorm: 0.032478834444 xtb: 6.7.1 (edcfbbe)
C            4.37614744323919        1.39233340751698       -0.00050968170023
C            3.09938660367342        1.93178681005603        0.00039552330018
C            1.99327490908327        1.10011023298749        0.00135993240060
C            2.16177805965794       -0.28336415812557        0.00126685590056
C            3.43166446362066       -0.83147705286845        0.00022500550010
C            4.53057253450762        0.01703000390755       -0.00045890850020
Cl           6.11835432971120       -0.67270505939809       -0.00219312100097
O            1.08618365908132       -1.14882141300907        0.00236459500105
C           -0.14476052166415       -0.56876705725204        0.00151975880067
C           -0.31463556563942        0.82005495006339        0.00142663230063
C           -1.59865799940841        1.35590543040084        0.00037362680017
C           -2.71592378510350        0.52019380963051       -0.00030794510014
C           -2.54664580032849       -0.85927134628077       -0.00007583480003
C           -1.26014250235840       -1.39965539462022        0.00073694040033
Cl          -1.02332259305346       -3.09961017567352        0.00081053270036
Cl          -3.91073505813295       -1.89878532994140       -0.00110516350049
Cl          -4.29102598730147        1.19831656383101       -0.00175403620078
Cl          -1.78063209188905        3.06210873985690        0.00006627970003
O            0.73822134032713        1.67897781304400        0.00245611940109
H            5.23817620032117        2.03725407540276       -0.00125333360056
H            2.94404833000459        2.99730005972818        0.00057701270026
H            3.54156918076936       -1.90251084744305        0.00009831020004
22
 energy: -2910.278595166762 gnorm: 0.016408440868 xtb: 6.7.1 (edcfbbe)
C            4.38057063263653        1.39549715269814       -0.00053887692735
C            3.09965505211696        1.93494331131510        0.00046396163185
C            1.99744969449860        1.09926109972991        0.00136717807139
C            2.16616688282152       -0.28134435325350        0.00131952208143
C            3.43270380308624       -0.83713353420246        0.00022964963047
C            4.53192071913454        0.01544789788681       -0.00071754958634
Cl           6.13006421836547       -0.67586375682472       -0.00204927003858
O            1.08700492461665       -1.14718039578339        0.00240221409809
C           -0.15076204654815       -0.56788335630856        0.00149199449250
C           -0.32080596494861        0.81771240358699        0.00141192653003
C           -1.60272551847220        1.35937960255695        0.00036604486622
C           -2.72487660366940        0.52215623174916       -0.00040549813392
C           -2.55461299503634       -0.86332174778696       -0.00018253159106
C           -1.26288018634194       -1.40396861594240        0.00069746786832
Cl          -1.00833418052226       -3.10920325980277        0.00084507370340
Cl          -3.92302952730541       -1.90979069745413       -0.00105084728558
Cl          -4.30599616408670        1.20574151998827       -0.00166653785095
Cl          -1.76759892873313        3.07534249586612        0.00013225128127
O            0.73866226790709        1.67797604392936        0.00244295102213
H            5.24508062892112        2.04614623656271       -0.00123550405654
H            2.94475470446014        3.00686285602256        0.00055489026805
H            3.54048383035412       -1.91437300749243        0.00014057825816
22
 energy: -2910.278838863131 gnorm: 0.005301914814 xtb: 6.7.1 (edcfbbe)
C            4.38401392518029        1.39733960024818       -0.00055713080653
C            3.10078566731861        1.93722592262193        0.00043319925106
C            2.00119514750641        1.09880984675709        0.00135128746139
C            2.16995012956090       -0.27963895241852        0.00129314464350
C            3.43447715377508       -0.84081273779999        0.00023054346322
C            4.53181256849803        0.01548201928128       -0.00066588894245
Cl           6.13986457399205       -0.67721294160653       -0.00198891610232
O            1.08807249593816       -1.14620317604148        0.00240891692626
C           -0.15448177386603       -0.56713068427551        0.00146058356878
C           -0.32452849646676        0.81593494051734        0.00138590827554
C           -1.60537701152256        1.36014701852741        0.00035780696325
C           -2.72815907218704        0.52259837189132       -0.00042216951079
C           -2.55755231693132       -0.86460297424630       -0.00022323503365
C           -1.26503610449631       -1.40547284282340        0.00065286762170
Cl          -1.00859995295610       -3.11647619125591        0.00084426433662
Cl          -3.92886230709086       -1.91712313784193       -0.00103080394874
Cl          -4.31344530963996        1.21163014189232       -0.00157408693306
Cl          -1.76947247816474        3.08241456801780        0.00018872801050
O            0.73958639121488        1.67761841542822        0.00241462307031
H            5.24919745619239        2.05028210093829       -0.00123757009415
H            2.94797796543561        3.01179621297771        0.00052789605967
H            3.54147669242801       -1.92020136245725        0.00016910443309
22
 energy: -2910.278858556152 gnorm: 0.002235741223 xtb: 6.7.1 (edcfbbe)
C            4.38447661031297        1.39741628230667       -0.00055099606288
C            3.10116080665251        1.93758890516191        0.00041839147438
C            2.00167519782665        1.09891409884065        0.00133139090391
C            2.17041069201927       -0.27942295722316        0.00128956704893
C            3.43497528932087       -0.84120894302635        0.00024112147755
C            4.53087268007818        0.01609430480386       -0.00065784392484
Cl           6.14204748283386       -0.67730609467418       -0.00195599628511
O            1.08821932288396       -1.14650410840440        0.00241557868347
C           -0.15475337486800       -0.56704260465956        0.00144768518722
C           -0.32478306942813        0.81577507115411        0.00137180137280
C           -1.60560969760785        1.35963270155923        0.00036613886351
C           -2.72774368845422        0.52219773744543       -0.00039970523869
C           -2.55721089137785       -0.86415430493553       -0.00021446092438
C           -1.26536540542299       -1.40507181721069        0.00064153485833
Cl          -1.00948906416580       -3.11741377680463        0.00081678323245
Cl          -3.93127452317011       -1.91525065656375       -0.00104671194817
Cl          -4.31536586206415        1.20916266151873       -0.00154111799025
Cl          -1.77061842351923        3.08313676746598        0.00020761674203
O            0.73968910432961        1.67808792198976        0.00239287404186
H            5.24948075497712        2.04990396781385       -0.00123955411654
H            2.94965264575724        3.01191304828449        0.00049938164022
H            3.54244880440012       -1.92004406475978        0.00018559190597
22
 energy: -2910.278862585124 gnorm: 0.000737255107 xtb: 6.7.1 (edcfbbe)
C            4.38439134780777        1.39733215479818       -0.00055188420496
C            3.10118532214630        1.93760613561553        0.00040164249001
C            2.00154211551686        1.09899379662897        0.00131888432678
C            2.17023952926522       -0.27946074993674        0.00128877873051
C            3.43502576861629       -0.84113889340519        0.00025324274421
C            4.52992667339355        0.01661166258444       -0.00064084020562
Cl           6.14275148428793       -0.67745525807510       -0.00193815714521
O            1.08812137039921       -1.14681159630020        0.00241886893091
C           -0.15455671543326       -0.56707002192004        0.00144359217797
C           -0.32459893118409        0.81584793545971        0.00136616451162
C           -1.60556740959464        1.35915521536822        0.00037673820156
C           -2.72721331112126        0.52205057781795       -0.00038143462521
C           -2.55671702496999       -0.86389768710046       -0.00020973542567
C           -1.26543861687191       -1.40461069097719        0.00063338831036
Cl          -1.01078610089451       -3.11742996654196        0.00078572777608
Cl          -3.93071726298861       -1.91584886668109       -0.00106218998676
Cl          -4.31499472647992        1.20980485764049       -0.00151547154435
Cl          -1.77198128690156        3.08285318737760        0.00022208516292
O            0.73958209013110        1.67842677334286        0.00237640615143
H            5.24928698316480        2.04930413909792       -0.00124232864308
H            2.95041882102874        3.01159472388589        0.00047065207906
H            3.54299528035240       -1.91945328297504        0.00020493499888
22
 energy: -2910.278862585124 gnorm: 0.000737255107 xtb: 6.7.1 (edcfbbe)
C            4.38439134780777        1.39733215479818       -0.00055188420496
C            3.10118532214630        1.93760613561553        0.00040164249001
C            2.00154211551686        1.09899379662897        0.00131888432678
C            2.17023952926522       -0.27946074993674        0.00128877873051
C            3.43502576861629       -0.84113889340519        0.00025324274421
C            4.52992667339355        0.01661166258444       -0.00064084020562
Cl           6.14275148428793       -0.67745525807510       -0.00193815714521
O            1.08812137039921       -1.14681159630020        0.00241886893091
C           -0.15455671543326       -0.56707002192004        0.00144359217797
C           -0.32459893118409        0.81584793545971        0.00136616451162
C           -1.60556740959464        1.35915521536822        0.00037673820156
C           -2.72721331112126        0.52205057781795       -0.00038143462521
C           -2.55671702496999       -0.86389768710046       -0.00020973542567
C           -1.26543861687191       -1.40461069097719        0.00063338831036
Cl          -1.01078610089451       -3.11742996654196        0.00078572777608
Cl          -3.93071726298861       -1.91584886668109       -0.00106218998676
Cl          -4.31499472647992        1.20980485764049       -0.00151547154435
Cl          -1.77198128690156        3.08285318737760        0.00022208516292
O            0.73958209013110        1.67842677334286        0.00237640615143
H            5.24928698316480        2.04930413909792       -0.00124232864308
H            2.95041882102874        3.01159472388589        0.00047065207906
H            3.54299528035240       -1.91945328297504        0.00020493499888
