
                                 *****************
                                 * O   R   C   A *
                                 *****************

                                            #,                                       
                                            ###                                      
                                            ####                                     
                                            #####                                    
                                            ######                                   
                                           ########,                                 
                                     ,,################,,,,,                         
                               ,,#################################,,                 
                          ,,##########################################,,             
                       ,#########################################, ''#####,          
                    ,#############################################,,   '####,        
                  ,##################################################,,,,####,       
                ,###########''''           ''''###############################       
              ,#####''   ,,,,##########,,,,          '''####'''          '####       
            ,##' ,,,,###########################,,,                        '##       
           ' ,,###''''                  '''############,,,                           
         ,,##''                                '''############,,,,        ,,,,,,###''
      ,#''                                            '''#######################'''  
     '                                                          ''''####''''         
             ,#######,   #######,   ,#######,      ##                                
            ,#'     '#,  ##    ##  ,#'     '#,    #''#        ,####,   ,####,        
            ##       ##  ##   ,#'  ##            #'  '#       #'       #'  '#        
            ##       ##  #######   ##           ,######,      #####,   #    #        
            '#,     ,#'  ##    ##  '#,     ,#' ,#      #,     #,   #   #,  ,#        
             '#######'   ##     ##  '#######'  #'      '#     '####' # '####'        



                #########################################################
                #                        -***-                          #
                #          Department of theory and spectroscopy        #
                #                                                       #
                #                      Frank Neese                      #
                #                                                       #
                #     Directorship, Architecture, Infrastructure        #
                #                    SHARK, DRIVERS                     #
                #        Core code/Algorithms in most modules           #
                #                                                       #
                #        Max Planck Institute fuer Kohlenforschung      #
                #                Kaiser Wilhelm Platz 1                 #
                #                 D-45470 Muelheim/Ruhr                 #
                #                      Germany                          #
                #                                                       #
                #                  All rights reserved                  #
                #                        -***-                          #
                #########################################################


                         Program Version 6.0.0  -   RELEASE  -


 With contributions from (in alphabetic order):
   Daniel Aravena         : Magnetic Suceptibility
   Michael Atanasov       : Ab Initio Ligand Field Theory (pilot matlab implementation)
   Alexander A. Auer      : GIAO ZORA, VPT2 properties, NMR spectrum
   Ute Becker             : All parallelization in ORCA, NUMFREQ, NUMCALC
   Giovanni Bistoni       : ED, misc. LED, open-shell LED, HFLD
   Martin Brehm           : Molecular dynamics
   Dmytro Bykov           : pre 5.0 version of the SCF Hessian
   Marcos Casanova-Páez   : Triplet and SCS-CIS(D). UHF-(DLPNO)-IP/EA/STEOM-CCSD. UHF-CVS-IP/STEOM-CCSD
   Vijay G. Chilkuri      : MRCI spin determinant printing, contributions to CSF-ICE
   Pauline Colinet        : FMM embedding
   Dipayan Datta          : RHF DLPNO-CCSD density
   Achintya Kumar Dutta   : EOM-CC, STEOM-CC
   Nicolas Foglia         : Exact transition moments, OPA infrastructure, MCD improvements
   Dmitry Ganyushin       : Spin-Orbit,Spin-Spin,Magnetic field MRCI
   Miquel Garcia          : C-PCM and meta-GGA Hessian, CCSD/C-PCM, Gaussian charge scheme
   Tiago L. C. Gouveia    : GS-ROHF, GS-ROCIS
   Yang Guo               : DLPNO-NEVPT2, F12-NEVPT2, CIM, IAO-localization
   Andreas Hansen         : Spin unrestricted coupled pair/coupled cluster methods
   Ingolf Harden          : AUTO-CI MPn and infrastructure 
   Benjamin Helmich-Paris : MC-RPA, TRAH-(SCF,CASSCF), AVAS, COSX integrals, SCF dyn. polar.
   Lee Huntington         : MR-EOM, pCC
   Robert Izsak           : Overlap fitted RIJCOSX, COSX-SCS-MP3, EOM
   Riya Kayal             : Wick's Theorem for AUTO-CI, AUTO-CI UHF-CCSDT
   Emily Kempfer          : AUTO-CI, RHF CISDT and CCSDT
   Christian Kollmar      : KDIIS, OOCD, Brueckner-CCSD(T), CCSD density, CASPT2, CASPT2-K, improved NEVPT2
   Axel Koslowski         : Symmetry handling
   Simone Kossmann        : Meta GGA functionals, TD-DFT gradient, OOMP2, (MP2 Hessian; deprecated post 5.0)
   Lucas Lang             : DCDCAS
   Marvin Lechner         : AUTO-CI (C++ implementation), FIC-MRCC
   Spencer Leger          : CASSCF response
   Dagmar Lenk            : GEPOL surface, SMD, ORCA-2-JSON
   Dimitrios Liakos       : Extrapolation schemes; Compound Job, initial MDCI parallelization
   Dimitrios Manganas     : Further ROCIS development; embedding schemes. LFT, Crystal Embedding
   Dimitrios Pantazis     : SARC Basis sets
   Anastasios Papadopoulos: AUTO-CI, single reference methods and gradients
   Taras Petrenko         : pre 6.0 DFT Hessian and TD-DFT gradient, (ASA, deprecated), ECA, 1-Electron XAS/XES, NRVS
   Peter Pinski           : DLPNO-MP2, DLPNO-MP2 Gradient
   Christoph Reimann      : Effective Core Potentials
   Marius Retegan         : Local ZFS, SOC
   Christoph Riplinger    : Optimizer, TS searches, QM/MM, DLPNO-CCSD(T), (RO)-DLPNO pert. Triples
   Michael Roemelt        : Original ROCIS implementation
   Masaaki Saitow         : Open-shell DLPNO-CCSD energy and density
   Barbara Sandhoefer     : DKH picture change effects
   Kantharuban Sivalingam : CASSCF convergence/infrastructure, NEVPT2 and variants, FIC-MRCI
   Bernardo de Souza      : ESD, SOC TD-DFT
   Georgi Stoychev        : AutoAux, RI-MP2 NMR, DLPNO-MP2 response, X2C
   Van Anh Tran           : RI-MP2 g-tensors
   Willem Van den Heuvel  : Paramagnetic NMR
   Zikuan Wang            : NOTCH, Electric field optimization 
   Frank Wennmohs         : Technical directorship and infrastructure
   Hang Xu                : AUTO-CI-Response properties 


 We gratefully acknowledge several colleagues who have allowed us to
 interface, adapt or use parts of their codes:
   Stefan Grimme, W. Hujo, H. Kruse, P. Pracht,  : VdW corrections, initial TS optimization,
                  C. Bannwarth, S. Ehlert,         DFT functionals, gCP, sTDA/sTD-DF
                  L. Wittmann, M. Mueller
   Ed Valeev, F. Pavosevic, A. Kumar             : LibInt (2-el integral package), F12 methods
   Garnet Chan, S. Sharma, J. Yang, R. Olivares  : DMRG
   Ulf Ekstrom                                   : XCFun DFT Library
   Mihaly Kallay                                 : mrcc  (arbitrary order and MRCC methods)
   Frank Weinhold                                : gennbo (NPA and NBO analysis)
   Simon Mueller                                 : openCOSMO-RS
   Christopher J. Cramer and Donald G. Truhlar   : smd solvation model
   Lars Goerigk                                  : TD-DFT with DH, B97 family of functionals
   V. Asgeirsson, H. Jonsson                     : NEB implementation
   FAccTs GmbH                                   : IRC, NEB, NEB-TS, DLPNO-Multilevel, CI-OPT
                                                   MM, QMMM, 2- and 3-layer-ONIOM, Crystal-QMMM,
                                                   LR-CPCM, SF, NACMEs, symmetry and pop. for TD-DFT,
                                                   nearIR, NL-DFT gradient (VV10), updates on ESD,
                                                   ML-optimized integration grids, MBIS, APM,
                                                   GOAT, DOCKER, SOLVATOR, interface openCOSMO-RS
   S Lehtola, MJT Oliveira, MAL Marques          : LibXC Library
   Liviu Ungur et al                             : ANISO software


 Your calculation uses the libint2 library for the computation of 2-el integrals
 For citations please refer to: http://libint.valeyev.net

 Your ORCA version has been built with support for libXC version: 6.2.2
 For citations please refer to: https://libxc.gitlab.io

 This ORCA versions uses:
   CBLAS   interface :  Fast vector & matrix operations
   LAPACKE interface :  Fast linear algebra routines
   SCALAPACK package :  Parallel linear algebra routines
   Shared memory     :  Shared parallel matrices
   BLAS/LAPACK       :  OpenBLAS 0.3.27  USE64BITINT DYNAMIC_ARCH NO_AFFINITY SapphireRapids SINGLE_THREADED
        Core in use  :  SapphireRapids
   Copyright (c) 2011-2014, The OpenBLAS Project


Your calculation utilizes the geometrical counterpoise correction gCP
Please cite in your paper:
H.Kruse, S. Grimme J.Chem.Phys., 136, (2012), 154101 
   

Your calculation utilizes the atom-pairwise dispersion correction
based on EEQ partial charges (D4)


================================================================================

----- Orbital basis set information -----
Your calculation utilizes the basis: def2-SV(P)
   F. Weigend and R. Ahlrichs, Phys. Chem. Chem. Phys. 7, 3297 (2005).

----- AuxJ basis set information -----
Your calculation utilizes the auxiliary basis: def2/J
   F. Weigend, Phys. Chem. Chem. Phys. 8, 1057 (2006).

================================================================================
                                        WARNINGS
                       Please study these warnings very carefully!
================================================================================


================================================================================
                                       INPUT FILE
================================================================================
NAME = sp.inp
|  1> ! pbe def2-sv(p) def2/J RI DEFGRID1 loosescf d4 GCP(DFT/SV(P)) printgap
|  2> %output
|  3>     printlevel normal
|  4> end
|  5> * xyz 0 1
|  6> C 2.7664428593 -0.2822970141 -2.9573323693
|  7> C 3.4282942296 -0.2320090202 -1.5961039744
|  8> O 2.577087218 0.5143267018 -0.6854054873
|  9> P 2.30150011 0.0365599664 0.7925010801
| 10> S 1.2465927398 1.3279143301 1.8101767286
| 11> O 3.7779189196 -0.2233723422 1.3252694831
| 12> C 4.1008952541 -0.3184933085 2.7251539765
| 13> C 3.4486127112 -1.5123309191 3.3911152437
| 14> S 1.4860941156 -1.926454337 0.6221018355
| 15> C -0.2319514609 -1.4378605493 0.4122108001
| 16> S -0.4989223166 -0.7064037271 -1.2526621208
| 17> P -2.2011108751 0.454203779 -0.8478105502
| 18> S -2.9475116887 1.3520326842 -2.4209400999
| 19> O -1.6180032475 1.3379013973 0.3299134715
| 20> C -2.4050808814 1.9845975793 1.3515346215
| 21> C -3.326483869 3.0410994943 0.7808304144
| 22> O -3.2282091032 -0.4845847553 -0.0605453938
| 23> C -4.2562413479 -1.2134058764 -0.7521910354
| 24> C -3.6917133088 -2.3914171176 -1.5201277931
| 25> H 1.8282431288 -0.8299183649 -2.9040687914
| 26> H 2.5581006603 0.7246639111 -3.3080527003
| 27> H 3.4321312363 -0.7770722355 -3.6570529182
| 28> H 4.3812630461 0.2985102238 -1.6315893291
| 29> H 3.5855118828 -1.2362215034 -1.1929998229
| 30> H 5.1889842926 -0.3965939072 2.7320585023
| 31> H 3.7912016498 0.6110143014 3.2124880341
| 32> H 3.8326210385 -1.6099504837 4.4014848091
| 33> H 2.3701772514 -1.3702286237 3.436501594
| 34> H 3.6607931329 -2.4210255543 2.8335937823
| 35> H -0.4863632625 -0.6900847424 1.1639355828
| 36> H -0.8299144661 -2.3393944986 0.5105377814
| 37> H -2.970756841 1.2184920149 1.8867314601
| 38> H -1.6484372733 2.4160886667 2.0110109609
| 39> H -3.8439812667 3.5430442892 1.592188768
| 40> H -2.7560415819 3.77085898 0.2109972969
| 41> H -4.0588318465 2.5820206732 0.1176656462
| 42> H -4.9354207341 -1.5321392891 0.0396026267
| 43> H -4.7690055073 -0.5256377622 -1.4322320371
| 44> H -3.1463031265 -3.0570054363 -0.856370206
| 45> H -4.5057245499 -2.9385032507 -1.9845819655
| 46> H -3.0177096163 -2.0355553795 -2.2988780963
| 47> *
| 48> 
| 49>                          ****END OF INPUT****
================================================================================

                       ****************************
                       * Single Point Calculation *
                       ****************************

---------------------------------
CARTESIAN COORDINATES (ANGSTROEM)
---------------------------------
  C      2.766443   -0.282297   -2.957332
  C      3.428294   -0.232009   -1.596104
  O      2.577087    0.514327   -0.685405
  P      2.301500    0.036560    0.792501
  S      1.246593    1.327914    1.810177
  O      3.777919   -0.223372    1.325269
  C      4.100895   -0.318493    2.725154
  C      3.448613   -1.512331    3.391115
  S      1.486094   -1.926454    0.622102
  C     -0.231951   -1.437861    0.412211
  S     -0.498922   -0.706404   -1.252662
  P     -2.201111    0.454204   -0.847811
  S     -2.947512    1.352033   -2.420940
  O     -1.618003    1.337901    0.329913
  C     -2.405081    1.984598    1.351535
  C     -3.326484    3.041099    0.780830
  O     -3.228209   -0.484585   -0.060545
  C     -4.256241   -1.213406   -0.752191
  C     -3.691713   -2.391417   -1.520128
  H      1.828243   -0.829918   -2.904069
  H      2.558101    0.724664   -3.308053
  H      3.432131   -0.777072   -3.657053
  H      4.381263    0.298510   -1.631589
  H      3.585512   -1.236222   -1.193000
  H      5.188984   -0.396594    2.732059
  H      3.791202    0.611014    3.212488
  H      3.832621   -1.609950    4.401485
  H      2.370177   -1.370229    3.436502
  H      3.660793   -2.421026    2.833594
  H     -0.486363   -0.690085    1.163936
  H     -0.829914   -2.339394    0.510538
  H     -2.970757    1.218492    1.886731
  H     -1.648437    2.416089    2.011011
  H     -3.843981    3.543044    1.592189
  H     -2.756042    3.770859    0.210997
  H     -4.058832    2.582021    0.117666
  H     -4.935421   -1.532139    0.039603
  H     -4.769006   -0.525638   -1.432232
  H     -3.146303   -3.057005   -0.856370
  H     -4.505725   -2.938503   -1.984582
  H     -3.017710   -2.035555   -2.298878

----------------------------
CARTESIAN COORDINATES (A.U.)
----------------------------
  NO LB      ZA    FRAG     MASS         X           Y           Z
   0 C     6.0000    0    12.011    5.227819   -0.533464   -5.588548
   1 C     6.0000    0    12.011    6.478537   -0.438434   -3.016199
   2 O     8.0000    0    15.999    4.869989    0.971937   -1.295229
   3 P    15.0000    0    30.974    4.349205    0.069088    1.497610
   4 S    16.0000    0    32.060    2.355719    2.509394    3.420738
   5 O     8.0000    0    15.999    7.139232   -0.422113    2.504396
   6 C     6.0000    0    12.011    7.749569   -0.601865    5.149795
   7 C     6.0000    0    12.011    6.516934   -2.857891    6.408279
   8 S    16.0000    0    32.060    2.808311   -3.640471    1.175602
   9 C     6.0000    0    12.011   -0.438325   -2.717163    0.778966
  10 S    16.0000    0    32.060   -0.942827   -1.334910   -2.367188
  11 P    15.0000    0    30.974   -4.159497    0.858321   -1.602130
  12 S    16.0000    0    32.060   -5.569990    2.554971   -4.574914
  13 O     8.0000    0    15.999   -3.057583    2.528267    0.623446
  14 C     6.0000    0    12.011   -4.544944    3.750346    2.554030
  15 C     6.0000    0    12.011   -6.286144    5.746845    1.475556
  16 O     8.0000    0    15.999   -6.100431   -0.915732   -0.114414
  17 C     6.0000    0    12.011   -8.043131   -2.293005   -1.421435
  18 C     6.0000    0    12.011   -6.976327   -4.519123   -2.872625
  19 H     1.0000    0     1.008    3.454879   -1.568318   -5.487895
  20 H     1.0000    0     1.008    4.834110    1.369416   -6.251314
  21 H     1.0000    0     1.008    6.485788   -1.468454   -6.910828
  22 H     1.0000    0     1.008    8.279387    0.564103   -3.083257
  23 H     1.0000    0     1.008    6.775636   -2.336120   -2.254443
  24 H     1.0000    0     1.008    9.805759   -0.749454    5.162842
  25 H     1.0000    0     1.008    7.164333    1.154650    6.070723
  26 H     1.0000    0     1.008    7.242604   -3.042366    8.317601
  27 H     1.0000    0     1.008    4.478986   -2.589357    6.494047
  28 H     1.0000    0     1.008    6.917896   -4.575075    5.354716
  29 H     1.0000    0     1.008   -0.919093   -1.304071    2.199519
  30 H     1.0000    0     1.008   -1.568311   -4.420815    0.964777
  31 H     1.0000    0     1.008   -5.613917    2.302616    3.565406
  32 H     1.0000    0     1.008   -3.115095    4.565746    3.800260
  33 H     1.0000    0     1.008   -7.264072    6.695383    3.008801
  34 H     1.0000    0     1.008   -5.208164    7.125891    0.398727
  35 H     1.0000    0     1.008   -7.670081    4.879312    0.222356
  36 H     1.0000    0     1.008   -9.326594   -2.895324    0.074838
  37 H     1.0000    0     1.008   -9.012114   -0.993311   -2.706526
  38 H     1.0000    0     1.008   -5.945651   -5.776903   -1.618305
  39 H     1.0000    0     1.008   -8.514585   -5.552966   -3.750316
  40 H     1.0000    0     1.008   -5.702645   -3.846642   -4.344250

--------------------------------
INTERNAL COORDINATES (ANGSTROEM)
--------------------------------
 C      0   0   0     0.000000000000     0.00000000     0.00000000
 C      1   0   0     1.514436813400     0.00000000     0.00000000
 O      2   1   0     1.452908159842   108.93028304     0.00000000
 P      3   2   1     1.577471752367   122.27755177   136.74384591
 S      4   3   2     1.953481348234   112.47021112   175.06290571
 O      4   3   2     1.590980665385   101.60084466    50.65299646
 C      6   4   3     1.439804954061   122.99349662   162.18965974
 C      7   6   4     1.514669985728   112.51674345    64.61412356
 S      4   3   2     2.132451170277   105.70842762   303.01983378
 C      9   4   3     1.798460102157    97.15308482   273.50798090
 S     10   9   4     1.837962013558   110.64597128    72.29753243
 P     11  10   9     2.099609598502    99.38596328   203.81544352
 S     12  11  10     1.959068017628   114.04021495   184.15110204
 O     12  11  10     1.583657114796    98.82062887    57.06555048
 C     14  12  11     1.442711657860   125.16044657   203.95125817
 C     15  14  12     1.513566336161   112.20962923   296.07858216
 O     12  11  10     1.598762367827   106.92949006   312.19194315
 C     17  12  11     1.437499292608   121.34731938   266.12141109
 C     18  17  12     1.515298404655   111.81184628    73.46216733
 H      1   2   3     1.087632698521   110.46803708   296.17196767
 H      1   2   3     1.086453647120   110.07101381    55.95212329
 H      1   2   3     1.085150856580   109.06408831   175.97377912
 H      2   1   3     1.091265065818   111.62673828   242.80726569
 H      2   1   3     1.093459216820   111.32736402   120.17592563
 H      7   6   4     1.090910230815   103.56938918   185.44112564
 H      7   6   4     1.094252717202   108.26451976   302.07452770
 H      8   7   6     1.085282743581   109.13804802   172.34047864
 H      8   7   6     1.088703827542   110.00083771   291.72256200
 H      8   7   6     1.087003519459   110.44595448    51.95484636
 H     10   9   4     1.090405507646   109.19211695   312.91761500
 H     10   9   4     1.086274096432   106.84741068   191.32038859
 H     15  14  12     1.092402253349   108.36521890    59.04512915
 H     15  14  12     1.092521464509   103.09981516   175.46449216
 H     16  15  14     1.085382196146   109.34121935   183.86704069
 H     16  15  14     1.087503145596   110.28264320   304.14712650
 H     16  15  14     1.089437668668   110.15802707    63.81803032
 H     18  17  12     1.090785419023   104.13346533   194.44118987
 H     18  17  12     1.094718149146   108.38090678   311.58590506
 H     19  18  17     1.086763180909   110.70573030    56.94910543
 H     19  18  17     1.085189023132   109.23060516   177.24525271
 H     19  18  17     1.089665356374   109.80009456   296.51236877

---------------------------
INTERNAL COORDINATES (A.U.)
---------------------------
 C      0   0   0     0.000000000000     0.00000000     0.00000000
 C      1   0   0     2.861870824454     0.00000000     0.00000000
 O      2   1   0     2.745598519842   108.93028304     0.00000000
 P      3   2   1     2.980989595970   122.27755177   136.74384591
 S      4   3   2     3.691544755886   112.47021112   175.06290571
 O      4   3   2     3.006517741942   101.60084466    50.65299646
 C      6   4   3     2.720837049438   122.99349662   162.18965974
 C      7   6   4     2.862311456297   112.51674345    64.61412356
 S      4   3   2     4.029748705784   105.70842762   303.01983378
 C      9   4   3     3.398597055861    97.15308482   273.50798090
 S     10   9   4     3.473244850175   110.64597128    72.29753243
 P     11  10   9     3.967687129321    99.38596328   203.81544352
 S     12  11  10     3.702102031042   114.04021495   184.15110204
 O     12  11  10     2.992678237000    98.82062887    57.06555048
 C     14  12  11     2.726329923572   125.16044657   203.95125817
 C     15  14  12     2.860225860866   112.20962923   296.07858216
 O     12  11  10     3.021223028413   106.92949006   312.19194315
 C     17  12  11     2.716479980735   121.34731938   266.12141109
 C     18  17  12     2.863498995966   111.81184628    73.46216733
 H      1   2   3     2.055327934503   110.46803708   296.17196767
 H      1   2   3     2.053099850257   110.07101381    55.95212329
 H      1   2   3     2.050637932927   109.06408831   175.97377912
 H      2   1   3     2.062192113911   111.62673828   242.80726569
 H      2   1   3     2.066338458402   111.32736402   120.17592563
 H      7   6   4     2.061521572934   103.56938918   185.44112564
 H      7   6   4     2.067837956810   108.26451976   302.07452770
 H      8   7   6     2.050887163239   109.13804802   172.34047864
 H      8   7   6     2.057352075007   110.00083771   291.72256200
 H      8   7   6     2.054138958386   110.44595448    51.95484636
 H     10   9   4     2.060567784369   109.19211695   312.91761500
 H     10   9   4     2.052760548630   106.84741068   191.32038859
 H     15  14  12     2.064341086908   108.36521890    59.04512915
 H     15  14  12     2.064566363352   103.09981516   175.46449216
 H     16  15  14     2.051075101349   109.34121935   183.86704069
 H     16  15  14     2.055083114954   110.28264320   304.14712650
 H     16  15  14     2.058738833760   110.15802707    63.81803032
 H     18  17  12     2.061285712827   104.13346533   194.44118987
 H     18  17  12     2.068717495718   108.38090678   311.58590506
 H     19  18  17     2.053684784347   110.70573030    56.94910543
 H     19  18  17     2.050710057258   109.23060516   177.24525271
 H     19  18  17     2.059169101168   109.80009456   296.51236877

---------------------
BASIS SET INFORMATION
---------------------
There are 5 groups of distinct atoms

 Group   1 Type C   : 7s4p1d contracted to 3s2p1d pattern {511/31/1}
 Group   2 Type O   : 7s4p1d contracted to 3s2p1d pattern {511/31/1}
 Group   3 Type P   : 10s7p1d contracted to 4s3p1d pattern {5311/511/1}
 Group   4 Type S   : 10s7p1d contracted to 4s3p1d pattern {5311/511/1}
 Group   5 Type H   : 4s contracted to 2s pattern {31}

Atom   0C    basis set group =>   1
Atom   1C    basis set group =>   1
Atom   2O    basis set group =>   2
Atom   3P    basis set group =>   3
Atom   4S    basis set group =>   4
Atom   5O    basis set group =>   2
Atom   6C    basis set group =>   1
Atom   7C    basis set group =>   1
Atom   8S    basis set group =>   4
Atom   9C    basis set group =>   1
Atom  10S    basis set group =>   4
Atom  11P    basis set group =>   3
Atom  12S    basis set group =>   4
Atom  13O    basis set group =>   2
Atom  14C    basis set group =>   1
Atom  15C    basis set group =>   1
Atom  16O    basis set group =>   2
Atom  17C    basis set group =>   1
Atom  18C    basis set group =>   1
Atom  19H    basis set group =>   5
Atom  20H    basis set group =>   5
Atom  21H    basis set group =>   5
Atom  22H    basis set group =>   5
Atom  23H    basis set group =>   5
Atom  24H    basis set group =>   5
Atom  25H    basis set group =>   5
Atom  26H    basis set group =>   5
Atom  27H    basis set group =>   5
Atom  28H    basis set group =>   5
Atom  29H    basis set group =>   5
Atom  30H    basis set group =>   5
Atom  31H    basis set group =>   5
Atom  32H    basis set group =>   5
Atom  33H    basis set group =>   5
Atom  34H    basis set group =>   5
Atom  35H    basis set group =>   5
Atom  36H    basis set group =>   5
Atom  37H    basis set group =>   5
Atom  38H    basis set group =>   5
Atom  39H    basis set group =>   5
Atom  40H    basis set group =>   5
---------------------------------
AUXILIARY/J BASIS SET INFORMATION
---------------------------------
There are 5 groups of distinct atoms

 Group   1 Type C   : 12s5p4d2f1g contracted to 6s4p3d1f1g pattern {711111/2111/211/2/1}
 Group   2 Type O   : 12s5p4d2f1g contracted to 6s4p3d1f1g pattern {711111/2111/211/2/1}
 Group   3 Type P   : 14s5p5d2f1g contracted to 8s4p3d1f1g pattern {71111111/2111/311/2/1}
 Group   4 Type S   : 14s5p5d2f1g contracted to 8s4p3d1f1g pattern {71111111/2111/311/2/1}
 Group   5 Type H   : 5s2p1d contracted to 3s1p1d pattern {311/2/1}

Atom   0C    basis set group =>   1
Atom   1C    basis set group =>   1
Atom   2O    basis set group =>   2
Atom   3P    basis set group =>   3
Atom   4S    basis set group =>   4
Atom   5O    basis set group =>   2
Atom   6C    basis set group =>   1
Atom   7C    basis set group =>   1
Atom   8S    basis set group =>   4
Atom   9C    basis set group =>   1
Atom  10S    basis set group =>   4
Atom  11P    basis set group =>   3
Atom  12S    basis set group =>   4
Atom  13O    basis set group =>   2
Atom  14C    basis set group =>   1
Atom  15C    basis set group =>   1
Atom  16O    basis set group =>   2
Atom  17C    basis set group =>   1
Atom  18C    basis set group =>   1
Atom  19H    basis set group =>   5
Atom  20H    basis set group =>   5
Atom  21H    basis set group =>   5
Atom  22H    basis set group =>   5
Atom  23H    basis set group =>   5
Atom  24H    basis set group =>   5
Atom  25H    basis set group =>   5
Atom  26H    basis set group =>   5
Atom  27H    basis set group =>   5
Atom  28H    basis set group =>   5
Atom  29H    basis set group =>   5
Atom  30H    basis set group =>   5
Atom  31H    basis set group =>   5
Atom  32H    basis set group =>   5
Atom  33H    basis set group =>   5
Atom  34H    basis set group =>   5
Atom  35H    basis set group =>   5
Atom  36H    basis set group =>   5
Atom  37H    basis set group =>   5
Atom  38H    basis set group =>   5
Atom  39H    basis set group =>   5
Atom  40H    basis set group =>   5
------------------------------------------------------------------------------
                             ORCA STARTUP CALCULATIONS
                           -- RI-GTO INTEGRALS CHOSEN --
------------------------------------------------------------------------------
------------------------------------------------------------------------------
                   ___                                                        
                  /   \      - P O W E R E D   B Y -                         
                 /     \                                                     
                 |  |  |   _    _      __       _____    __    __             
                 |  |  |  | |  | |    /  \     |  _  \  |  |  /  |          
                  \  \/   | |  | |   /    \    | | | |  |  | /  /          
                 / \  \   | |__| |  /  /\  \   | |_| |  |  |/  /          
                |  |  |   |  __  | /  /__\  \  |    /   |      \           
                |  |  |   | |  | | |   __   |  |    \   |  |\   \          
                \     /   | |  | | |  |  |  |  | |\  \  |  | \   \       
                 \___/    |_|  |_| |__|  |__|  |_| \__\ |__|  \__/        
                                                                              
                      - O R C A' S   B I G   F R I E N D -                    
                                      &                                       
                       - I N T E G R A L  F E E D E R -                       
                                                                              
 v1 FN, 2020, v2 2021, v3 2022-2024                                           
------------------------------------------------------------------------------


----------------------
SHARK INTEGRAL PACKAGE
----------------------

Number of atoms                             ...     41
Number of basis functions                   ...    334
Number of shells                            ...    170
Maximum angular momentum                    ...      2
Integral batch strategy                     ... SHARK/LIBINT Hybrid
RI-J (if used) integral strategy            ... SPLIT-RIJ (Revised 2003 algorithm where possible)
Printlevel                                  ...      1
Contraction scheme used                     ... SEGMENTED contraction
Prescreening option                         ... SCHWARTZ
   Thresh                                   ... 1.000e-09
   Tcut                                     ... 1.000e-10
   Tpresel                                  ... 1.000e-10 
Coulomb Range Separation                    ... NOT USED
Exchange Range Separation                   ... NOT USED
Multipole approximations                    ... NOT USED
Finite Nucleus Model                        ... NOT USED
CABS basis                                  ... NOT available
Auxiliary Coulomb fitting basis             ... AVAILABLE
   # of basis functions in Aux-J            ...   1185
   # of shells in Aux-J                     ...    407
   Maximum angular momentum in Aux-J        ...      4
Auxiliary J/K fitting basis                 ... NOT available
Auxiliary Correlation fitting basis         ... NOT available
Auxiliary 'external' fitting basis          ... NOT available

Checking pre-screening integrals            ... done (  0.0 sec) Dimension = 170
Check shell pair data                       ... done (  0.0 sec)
Shell pair information
Shell pair cut-off parameter TPreSel        ...   1.0e-10
Total number of shell pairs                 ...     14535
Shell pairs after pre-screening             ...     10073
Total number of primitive shell pairs       ...     62501
Primitive shell pairs kept                  ...     24867
          la=0 lb=0:   3909 shell pairs
          la=1 lb=0:   3427 shell pairs
          la=1 lb=1:    796 shell pairs
          la=2 lb=0:   1261 shell pairs
          la=2 lb=1:    572 shell pairs
          la=2 lb=2:    108 shell pairs

Calculating one electron integrals          ... done (  0.0 sec)
Calculating RI/J V-Matrix + Cholesky decomp.... done (  0.1 sec)
Calculating Nuclear repulsion               ... done (  0.0 sec) ENN=   2741.225880608665 Eh

Diagonalization of the overlap matrix:
Smallest eigenvalue                        ... 3.368e-03
Time for diagonalization                   ...    0.010 sec
Threshold for overlap eigenvalues          ... 1.000e-07
Number of eigenvalues below threshold      ... 0
Time for construction of square roots      ...    0.023 sec
Total time needed                          ...    0.041 sec

-------------------
DFT GRID GENERATION
-------------------

General Integration Accuracy     IntAcc      ... 4.159
Radial Grid Type                 RadialGrid  ... OptM3 with GC (2021)
Angular Grid (max. ang.)         AngularGrid ... 3 (Lebedev-194)
Angular grid pruning method      GridPruning ... 4 (adaptive)
Weight generation scheme         WeightScheme... mBecke (2022)
Basis function cutoff            BFCut       ... 1.0000e-10
Integration weight cutoff        WCut        ... 1.0000e-14
Partially contracted basis set               ... off
Rotationally invariant grid construction     ... off
Angular grids for H and He will be reduced by one unit

Total number of grid points                  ...    97551
Total number of batches                      ...     1544
Average number of points per batch           ...       63
Average number of grid points per atom       ...     2379
Initializing property integral containers    ... done (  0.0 sec)

SHARK setup successfully completed in   1.5 seconds

Maximum memory used throughout the entire STARTUP-calculation: 51.5 MB
-------------------------------------------------------------------------------
                                 ORCA GUESS
                   Start orbitals & Density for SCF / CASSCF
-------------------------------------------------------------------------------

------------
SCF SETTINGS
------------
Hamiltonian:
 Density Functional     Method          .... DFT(GTOs)
 Exchange Functional    Exchange        .... PBE
   PBE kappa parameter   XKappa         ....  0.804000
   PBE mue parameter    XMuePBE         ....  0.219520
 Correlation Functional Correlation     .... PBE
   PBE beta parameter  CBetaPBE         ....  0.066725
 LDA part of GGA corr.  LDAOpt          .... PW91-LDA
 Gradients option       PostSCFGGA      .... off
   NL short-range parameter             ....  6.400000
 RI-approximation to the Coulomb term is turned on
   Number of AuxJ basis functions       .... 1185


General Settings:
 Integral files         IntName         .... sp
 Hartree-Fock type      HFTyp           .... RHF
 Total Charge           Charge          ....    0
 Multiplicity           Mult            ....    1
 Number of Electrons    NEL             ....  202
 Basis Dimension        Dim             ....  334
 Nuclear Repulsion      ENuc            ....   2741.2258806087 Eh

Convergence Acceleration:
 AO-DIIS                CNVDIIS         .... on
   Start iteration      DIISMaxIt       ....    12
   Startup error        DIISStart       ....  0.200000
   # of expansion vecs  DIISMaxEq       ....     5
   Bias factor          DIISBfac        ....   1.050
   Max. coefficient     DIISMaxC        ....  10.000
 MO-DIIS                CNVKDIIS        .... off
 Trust-Rad. Augm. Hess. CNVTRAH         .... auto
   Auto Start mean grad. ratio tolernc. ....  1.125000
   Auto Start start iteration           ....    50
   Auto Start num. interpolation iter.  ....    10
   Max. Number of Micro iterations      ....    24
   Max. Number of Macro iterations      .... Maxiter - #DIIS iter
   Number of Davidson start vectors     ....     2
   Converg. threshold    (grad. norm)   ....   1.000e-04
   Grad. Scal. Fac. for Micro threshold ....   0.100
   Minimum threshold for Micro iter.    ....   1.000e-02
   NR start threshold (gradient norm)   ....   1.000e-04
   Initial trust radius                 ....   0.400
   Minimum AH scaling param. (alpha)    ....   1.000
   Maximum AH scaling param. (alpha)    .... 1000.000
   Quad. conv. algorithm                .... NR
   White noise on init. David. guess    .... on
   Maximum white noise                  ....   0.010
   Pseudo random numbers                .... off
   Inactive MOs                         .... canonical
   Orbital update algorithm             .... Taylor
   Preconditioner                       .... Diag
   Full preconditioner red. dimension   ....   250
 SOSCF                  CNVSOSCF        .... on
   Start iteration      SOSCFMaxIt      ....   150
   Startup grad/error   SOSCFStart      ....  0.003300
   Hessian update       SOSCFHessUp     .... L-BFGS
 Level Shifting         CNVShift        .... on
   Level shift para.    LevelShift      ....    0.2500
   Turn off err/grad.   ShiftErr        ....    0.0010
 Zerner damping         CNVZerner       .... off
 Static damping         CNVDamp         .... on
   Fraction old density DampFac         ....    0.7000
   Max. Damping (<1)    DampMax         ....    0.9800
   Min. Damping (>=0)   DampMin         ....    0.0000
   Turn off err/grad.   DampErr         ....    0.1000

SCF Procedure:
 Maximum # iterations   MaxIter         ....   125
 SCF integral mode      SCFMode         .... Direct
   Integral package                     .... SHARK and LIBINT hybrid scheme
 Reset frequency        DirectResetFreq ....    20
 Integral Threshold     Thresh          ....  1.000e-09 Eh
 Primitive CutOff       TCut            ....  1.000e-10 Eh

Convergence Tolerance:
 Convergence Check Mode ConvCheckMode   .... Total+1el-Energy
 Convergence forced     ConvForced      .... 0
 Energy Change          TolE            ....  1.000e-05 Eh
 1-El. energy change                    ....  1.000e-02 Eh
 Orbital Gradient       TolG            ....  1.000e-04
 Orbital Rotation angle TolX            ....  1.000e-04
 DIIS Error             TolErr          ....  5.000e-04

------------------------------
INITIAL GUESS: MODEL POTENTIAL
------------------------------
Loading Hartree-Fock densities                     ... done
Calculating cut-offs                               ... done
Initializing the effective Hamiltonian             ... done
Setting up the integral package (SHARK)            ... done
Starting the Coulomb interaction                   ... done (   0.6 sec)
Making the grid                                    ... done (   0.5 sec)
Mapping shells                                     ... done
Starting the XC term evaluation                    ... done (   0.3 sec)
  promolecular density results
     # of electrons  =    201.994245239
     EX              =   -229.994138520
     EC              =     -7.283225873
     EX+EC           =   -237.277364393
Transforming the Hamiltonian                       ... done (   0.0 sec)
Diagonalizing the Hamiltonian                      ... done (   0.0 sec)
Back transforming the eigenvectors                 ... done (   0.0 sec)
Now organizing SCF variables                       ... done
                      ------------------
                      INITIAL GUESS DONE (   1.6 sec)
                      ------------------
             **** ENERGY FILE WAS UPDATED (sp.en.tmp) ****
Finished Guess after   1.8 sec
Maximum memory used throughout the entire GUESS-calculation: 38.9 MB

-------------------------------------------------------------------------------------------
                                      ORCA LEAN-SCF
                              memory conserving SCF solver
-------------------------------------------------------------------------------------------

----------------------------------------D-I-I-S--------------------------------------------
Iteration    Energy (Eh)           Delta-E    RMSDP     MaxDP     DIISErr   Damp  Time(sec)
-------------------------------------------------------------------------------------------
               ***  Starting incremental Fock matrix formation  ***
    1    -2929.1898549701354568     0.00e+00  2.68e-03  1.40e-01  1.80e-01  0.700   2.2
    2    -2929.4153051087823769    -2.25e-01  1.74e-03  7.18e-02  7.42e-02  0.700   2.0
                               ***Turning on AO-DIIS***
    3    -2929.4868461719670449    -7.15e-02  6.81e-04  1.87e-02  2.18e-02  0.700   2.0
    4    -2929.5319161007873845    -4.51e-02  1.03e-03  3.75e-02  1.10e-02  0.000   2.0
    5    -2929.6370068613687181    -1.05e-01  3.10e-04  1.26e-02  7.68e-03  0.000   2.0
                              *** Initializing SOSCF ***
---------------------------------------S-O-S-C-F--------------------------------------
Iteration    Energy (Eh)           Delta-E    RMSDP     MaxDP     MaxGrad    Time(sec)
--------------------------------------------------------------------------------------
    6    -2929.6380833423208969    -1.08e-03  1.10e-04  3.53e-03  2.01e-03     1.9
               *** Restarting incremental Fock matrix formation ***
    7    -2929.6382106594383004    -1.27e-04  7.33e-05  2.05e-03  2.10e-04     2.1
    8    -2929.6382139350807847    -3.28e-06  3.11e-05  8.74e-04  2.27e-04     1.7
                 **** Energy Check signals convergence ****

               *****************************************************
               *                     SUCCESS                       *
               *           SCF CONVERGED AFTER   8 CYCLES          *
               *****************************************************

             **** ENERGY FILE WAS UPDATED (sp.en.tmp) ****

----------------
TOTAL SCF ENERGY
----------------

Total Energy       :      -2929.63821393508078 Eh          -79719.50866 eV

Components:
Nuclear Repulsion  :       2741.22588060866474 Eh           74592.54842 eV
Electronic Energy  :      -5670.86409454374552 Eh         -154312.05709 eV
One Electron Energy:      -9501.22001771858595 Eh         -258541.34067 eV
Two Electron Energy:       3830.35592317484043 Eh          104229.28358 eV

Virial components:
Potential Energy   :      -5848.92171386540940 Eh         -159157.25123 eV
Kinetic Energy     :       2919.28349993032816 Eh           79437.74257 eV
Virial Ratio       :          2.00354700528571

DFT components:
N(Alpha)           :      101.000312273899 electrons
N(Beta)            :      101.000312273899 electrons
N(Total)           :      202.000624547797 electrons
E(X)               :     -231.805207530980 Eh       
E(C)               :       -7.291874060582 Eh       
E(XC)              :     -239.097081591563 Eh       

---------------
SCF CONVERGENCE
---------------

  Last Energy change         ...    3.2756e-06  Tolerance :   1.0000e-05
  Last MAX-Density change    ...    8.7428e-04  Tolerance :   1.0000e-03
  Last RMS-Density change    ...    3.1078e-05  Tolerance :   1.0000e-04
  Last DIIS Error            ...    2.0129e-03  Tolerance :   5.0000e-04
  Last Orbital Gradient      ...    2.2707e-04  Tolerance :   1.0000e-04
  Last Orbital Rotation      ...    4.2402e-04  Tolerance :   1.0000e-04


----------------
ORBITAL ENERGIES
----------------

  NO   OCC          E(Eh)            E(eV) 
   0   2.0000     -88.050732     -2395.9822 
   1   2.0000     -88.038769     -2395.6567 
   2   2.0000     -87.987378     -2394.2583 
   3   2.0000     -87.981371     -2394.0948 
   4   2.0000     -76.427653     -2079.7022 
   5   2.0000     -76.422081     -2079.5506 
   6   2.0000     -18.796677      -511.4836 
   7   2.0000     -18.792707      -511.3756 
   8   2.0000     -18.788640      -511.2649 
   9   2.0000     -18.782659      -511.1021 
  10   2.0000      -9.956978      -270.9431 
  11   2.0000      -9.956860      -270.9399 
  12   2.0000      -9.954110      -270.8651 
  13   2.0000      -9.951734      -270.8004 
  14   2.0000      -9.947397      -270.6824 
  15   2.0000      -9.888304      -269.0744 
  16   2.0000      -9.885475      -268.9974 
  17   2.0000      -9.882021      -268.9034 
  18   2.0000      -9.877161      -268.7712 
  19   2.0000      -7.695569      -209.4071 
  20   2.0000      -7.683691      -209.0839 
  21   2.0000      -7.632503      -207.6910 
  22   2.0000      -7.626586      -207.5299 
  23   2.0000      -6.425193      -174.8384 
  24   2.0000      -6.419491      -174.6832 
  25   2.0000      -5.723333      -155.7398 
  26   2.0000      -5.720029      -155.6499 
  27   2.0000      -5.712752      -155.4519 
  28   2.0000      -5.712054      -155.4329 
  29   2.0000      -5.708018      -155.3231 
  30   2.0000      -5.700385      -155.1154 
  31   2.0000      -5.661450      -154.0559 
  32   2.0000      -5.655579      -153.8961 
  33   2.0000      -5.652927      -153.8240 
  34   2.0000      -5.652791      -153.8203 
  35   2.0000      -5.647138      -153.6664 
  36   2.0000      -5.646749      -153.6559 
  37   2.0000      -4.648028      -126.4793 
  38   2.0000      -4.646892      -126.4484 
  39   2.0000      -4.645490      -126.4102 
  40   2.0000      -4.642385      -126.3257 
  41   2.0000      -4.641260      -126.2951 
  42   2.0000      -4.639714      -126.2530 
  43   2.0000      -0.989137       -26.9158 
  44   2.0000      -0.983740       -26.7689 
  45   2.0000      -0.944758       -25.7082 
  46   2.0000      -0.939964       -25.5777 
  47   2.0000      -0.764489       -20.8028 
  48   2.0000      -0.721213       -19.6252 
  49   2.0000      -0.709261       -19.3000 
  50   2.0000      -0.690805       -18.7978 
  51   2.0000      -0.686723       -18.6867 
  52   2.0000      -0.673397       -18.3241 
  53   2.0000      -0.652111       -17.7448 
  54   2.0000      -0.637318       -17.3423 
  55   2.0000      -0.597089       -16.2476 
  56   2.0000      -0.588322       -16.0091 
  57   2.0000      -0.573998       -15.6193 
  58   2.0000      -0.571167       -15.5422 
  59   2.0000      -0.561657       -15.2835 
  60   2.0000      -0.505329       -13.7507 
  61   2.0000      -0.494897       -13.4668 
  62   2.0000      -0.474758       -12.9188 
  63   2.0000      -0.467773       -12.7288 
  64   2.0000      -0.453811       -12.3488 
  65   2.0000      -0.451001       -12.2724 
  66   2.0000      -0.441542       -12.0150 
  67   2.0000      -0.434729       -11.8296 
  68   2.0000      -0.428751       -11.6669 
  69   2.0000      -0.419985       -11.4284 
  70   2.0000      -0.411649       -11.2016 
  71   2.0000      -0.403873       -10.9899 
  72   2.0000      -0.393896       -10.7185 
  73   2.0000      -0.387812       -10.5529 
  74   2.0000      -0.380829       -10.3629 
  75   2.0000      -0.367885       -10.0107 
  76   2.0000      -0.366976        -9.9859 
  77   2.0000      -0.355982        -9.6868 
  78   2.0000      -0.353498        -9.6192 
  79   2.0000      -0.350218        -9.5299 
  80   2.0000      -0.344775        -9.3818 
  81   2.0000      -0.341789        -9.3006 
  82   2.0000      -0.339585        -9.2406 
  83   2.0000      -0.333757        -9.0820 
  84   2.0000      -0.329326        -8.9614 
  85   2.0000      -0.323539        -8.8039 
  86   2.0000      -0.311407        -8.4738 
  87   2.0000      -0.300450        -8.1757 
  88   2.0000      -0.297202        -8.0873 
  89   2.0000      -0.292919        -7.9707 
  90   2.0000      -0.284405        -7.7391 
  91   2.0000      -0.272443        -7.4135 
  92   2.0000      -0.270089        -7.3495 
  93   2.0000      -0.264287        -7.1916 
  94   2.0000      -0.257900        -7.0178 
  95   2.0000      -0.236398        -6.4327 
  96   2.0000      -0.219073        -5.9613 
  97   2.0000      -0.206138        -5.6093 
  98   2.0000      -0.205179        -5.5832 
  99   2.0000      -0.199208        -5.4207 
 100   2.0000      -0.195361        -5.3160 
 101   0.0000      -0.042702        -1.1620 
 102   0.0000      -0.022199        -0.6041 
 103   0.0000      -0.016484        -0.4485 
 104   0.0000       0.005862         0.1595 
 105   0.0000       0.011262         0.3065 
 106   0.0000       0.021528         0.5858 
 107   0.0000       0.030803         0.8382 
 108   0.0000       0.035697         0.9714 
 109   0.0000       0.041619         1.1325 
 110   0.0000       0.047540         1.2936 
 111   0.0000       0.051821         1.4101 
*Only the first 10 virtual orbitals were printed.

                    ********************************
                    * MULLIKEN POPULATION ANALYSIS *
                    ********************************

-----------------------
MULLIKEN ATOMIC CHARGES
-----------------------
   0 C :   -0.284571
   1 C :   -0.012803
   2 O :   -0.348313
   3 P :    0.600900
   4 S :   -0.301812
   5 O :   -0.382272
   6 C :    0.000866
   7 C :   -0.320095
   8 S :   -0.103097
   9 C :   -0.361447
  10 S :   -0.076531
  11 P :    0.620047
  12 S :   -0.318058
  13 O :   -0.361457
  14 C :   -0.003693
  15 C :   -0.308718
  16 O :   -0.394404
  17 C :   -0.007767
  18 C :   -0.315598
  19 H :    0.129355
  20 H :    0.125022
  21 H :    0.106578
  22 H :    0.109959
  23 H :    0.099984
  24 H :    0.106113
  25 H :    0.113184
  26 H :    0.115494
  27 H :    0.127560
  28 H :    0.117981
  29 H :    0.202762
  30 H :    0.183083
  31 H :    0.101382
  32 H :    0.112776
  33 H :    0.107214
  34 H :    0.126852
  35 H :    0.123063
  36 H :    0.101899
  37 H :    0.112534
  38 H :    0.112426
  39 H :    0.113316
  40 H :    0.130287
Sum of atomic charges:    0.0000000

--------------------------------
MULLIKEN REDUCED ORBITAL CHARGES
--------------------------------
  0 C s       :     3.094650  s :     3.094650
      pz      :     1.002793  p :     3.162239
      px      :     1.065657
      py      :     1.093790
      dz2     :     0.005317  d :     0.027682
      dxz     :     0.006116
      dyz     :     0.005403
      dx2y2   :     0.004727
      dxy     :     0.006118

  1 C s       :     3.079110  s :     3.079110
      pz      :     0.919210  p :     2.874467
      px      :     0.973556
      py      :     0.981700
      dz2     :     0.012767  d :     0.059226
      dxz     :     0.012196
      dyz     :     0.012979
      dx2y2   :     0.010537
      dxy     :     0.010746

  2 O s       :     3.764108  s :     3.764108
      pz      :     1.316549  p :     4.570872
      px      :     1.619250
      py      :     1.635073
      dz2     :     0.003357  d :     0.013333
      dxz     :     0.002270
      dyz     :     0.003505
      dx2y2   :     0.001703
      dxy     :     0.002498

  3 P s       :     5.212074  s :     5.212074
      pz      :     2.855031  p :     8.596719
      px      :     2.834025
      py      :     2.907663
      dz2     :     0.143224  d :     0.590307
      dxz     :     0.120799
      dyz     :     0.099208
      dx2y2   :     0.115151
      dxy     :     0.111926

  4 S s       :     5.911568  s :     5.911568
      pz      :     3.494044  p :    10.347575
      px      :     3.513751
      py      :     3.339781
      dz2     :     0.005301  d :     0.042669
      dxz     :     0.007818
      dyz     :     0.010854
      dx2y2   :     0.007548
      dxy     :     0.011147

  5 O s       :     3.756708  s :     3.756708
      pz      :     1.384600  p :     4.612696
      px      :     1.454111
      py      :     1.773984
      dz2     :     0.003987  d :     0.012869
      dxz     :     0.002523
      dyz     :     0.001647
      dx2y2   :     0.002759
      dxy     :     0.001953

  6 C s       :     3.075067  s :     3.075067
      pz      :     0.728555  p :     2.863788
      px      :     1.062336
      py      :     1.072897
      dz2     :     0.020309  d :     0.060279
      dxz     :     0.009143
      dyz     :     0.014939
      dx2y2   :     0.011689
      dxy     :     0.004199

  7 C s       :     3.108924  s :     3.108924
      pz      :     1.059515  p :     3.183087
      px      :     1.088250
      py      :     1.035322
      dz2     :     0.006373  d :     0.028084
      dxz     :     0.003396
      dyz     :     0.005479
      dx2y2   :     0.009503
      dxy     :     0.003332

  8 S s       :     5.880801  s :     5.880801
      pz      :     3.802104  p :    10.145842
      px      :     3.036553
      py      :     3.307185
      dz2     :     0.010906  d :     0.076454
      dxz     :     0.009116
      dyz     :     0.006527
      dx2y2   :     0.025823
      dxy     :     0.024082

  9 C s       :     3.223708  s :     3.223708
      pz      :     1.010661  p :     3.097963
      px      :     0.963020
      py      :     1.124282
      dz2     :     0.008415  d :     0.039776
      dxz     :     0.007153
      dyz     :     0.009158
      dx2y2   :     0.006820
      dxy     :     0.008230

 10 S s       :     5.879795  s :     5.879795
      pz      :     3.217228  p :    10.122016
      px      :     3.397171
      py      :     3.507617
      dz2     :     0.023658  d :     0.074720
      dxz     :     0.012001
      dyz     :     0.015316
      dx2y2   :     0.008654
      dxy     :     0.015092

 11 P s       :     5.188489  s :     5.188489
      pz      :     2.846820  p :     8.598384
      px      :     2.878283
      py      :     2.873281
      dz2     :     0.123456  d :     0.593081
      dxz     :     0.119976
      dyz     :     0.132405
      dx2y2   :     0.092127
      dxy     :     0.125117

 12 S s       :     5.918385  s :     5.918385
      pz      :     3.272492  p :    10.357269
      px      :     3.558001
      py      :     3.526776
      dz2     :     0.011635  d :     0.042404
      dxz     :     0.010424
      dyz     :     0.012314
      dx2y2   :     0.003536
      dxy     :     0.004495

 13 O s       :     3.753387  s :     3.753387
      pz      :     1.384317  p :     4.594852
      px      :     1.617401
      py      :     1.593134
      dz2     :     0.002144  d :     0.013218
      dxz     :     0.003919
      dyz     :     0.002409
      dx2y2   :     0.002140
      dxy     :     0.002606

 14 C s       :     3.079919  s :     3.079919
      pz      :     0.900951  p :     2.863380
      px      :     0.976533
      py      :     0.985895
      dz2     :     0.008072  d :     0.060395
      dxz     :     0.017126
      dyz     :     0.013968
      dx2y2   :     0.007235
      dxy     :     0.013994

 15 C s       :     3.104017  s :     3.104017
      pz      :     1.060798  p :     3.176733
      px      :     1.066124
      py      :     1.049810
      dz2     :     0.001771  d :     0.027968
      dxz     :     0.008365
      dyz     :     0.007362
      dx2y2   :     0.003238
      dxy     :     0.007231

 16 O s       :     3.765625  s :     3.765625
      pz      :     1.611052  p :     4.615826
      px      :     1.432219
      py      :     1.572556
      dz2     :     0.002084  d :     0.012954
      dxz     :     0.003857
      dyz     :     0.002952
      dx2y2   :     0.001954
      dxy     :     0.002107

 17 C s       :     3.076956  s :     3.076956
      pz      :     1.002697  p :     2.870356
      px      :     0.900244
      py      :     0.967414
      dz2     :     0.006148  d :     0.060456
      dxz     :     0.016697
      dyz     :     0.013568
      dx2y2   :     0.009848
      dxy     :     0.014194

 18 C s       :     3.106314  s :     3.106314
      pz      :     1.073087  p :     3.181300
      px      :     1.072833
      py      :     1.035381
      dz2     :     0.002514  d :     0.027983
      dxz     :     0.008452
      dyz     :     0.007025
      dx2y2   :     0.002829
      dxy     :     0.007165

 19 H s       :     0.870645  s :     0.870645

 20 H s       :     0.874978  s :     0.874978

 21 H s       :     0.893422  s :     0.893422

 22 H s       :     0.890041  s :     0.890041

 23 H s       :     0.900016  s :     0.900016

 24 H s       :     0.893887  s :     0.893887

 25 H s       :     0.886816  s :     0.886816

 26 H s       :     0.884506  s :     0.884506

 27 H s       :     0.872440  s :     0.872440

 28 H s       :     0.882019  s :     0.882019

 29 H s       :     0.797238  s :     0.797238

 30 H s       :     0.816917  s :     0.816917

 31 H s       :     0.898618  s :     0.898618

 32 H s       :     0.887224  s :     0.887224

 33 H s       :     0.892786  s :     0.892786

 34 H s       :     0.873148  s :     0.873148

 35 H s       :     0.876937  s :     0.876937

 36 H s       :     0.898101  s :     0.898101

 37 H s       :     0.887466  s :     0.887466

 38 H s       :     0.887574  s :     0.887574

 39 H s       :     0.886684  s :     0.886684

 40 H s       :     0.869713  s :     0.869713


------------------------
MULLIKEN OVERLAP CHARGES
------------------------
B(  0-C ,  1-C ) :   0.8583 B(  0-C ,  2-O ) :  -0.1058 B(  0-C , 19-H ) :   0.7415 
B(  0-C , 20-H ) :   0.7424 B(  0-C , 21-H ) :   0.6969 B(  0-C , 22-H ) :  -0.0577 
B(  0-C , 23-H ) :  -0.0539 B(  1-C ,  2-O ) :   0.5190 B(  1-C ,  3-P ) :  -0.0614 
B(  1-C , 22-H ) :   0.7457 B(  1-C , 23-H ) :   0.7026 B(  2-O ,  3-P ) :   0.6458 
B(  2-O ,  4-S ) :  -0.0620 B(  2-O ,  5-O ) :  -0.0628 B(  2-O ,  8-S ) :  -0.0717 
B(  2-O , 22-H ) :  -0.0569 B(  2-O , 23-H ) :  -0.0635 B(  3-P ,  4-S ) :   0.9368 
B(  3-P ,  5-O ) :   0.6269 B(  3-P ,  6-C ) :  -0.0822 B(  3-P ,  8-S ) :   0.5277 
B(  3-P ,  9-C ) :  -0.0828 B(  4-S ,  5-O ) :  -0.0670 B(  4-S ,  8-S ) :  -0.0881 
B(  4-S , 25-H ) :   0.0541 B(  4-S , 29-H ) :   0.0764 B(  5-O ,  6-C ) :   0.5614 
B(  5-O ,  7-C ) :  -0.0908 B(  5-O ,  8-S ) :  -0.0737 B(  5-O , 24-H ) :  -0.0583 
B(  5-O , 25-H ) :  -0.0684 B(  6-C ,  7-C ) :   0.9318 B(  6-C , 24-H ) :   0.7284 
B(  6-C , 25-H ) :   0.7271 B(  7-C , 25-H ) :  -0.0681 B(  7-C , 26-H ) :   0.6898 
B(  7-C , 27-H ) :   0.7215 B(  7-C , 28-H ) :   0.7276 B(  8-S ,  9-C ) :   0.4874 
B(  8-S , 10-S ) :  -0.1276 B(  8-S , 29-H ) :  -0.0523 B(  8-S , 30-H ) :  -0.0578 
B(  9-C , 10-S ) :   0.3640 B(  9-C , 29-H ) :   0.6345 B(  9-C , 30-H ) :   0.7063 
B( 10-S , 11-P ) :   0.5105 B( 10-S , 12-S ) :  -0.0730 B( 10-S , 13-O ) :  -0.0877 
B( 10-S , 16-O ) :  -0.0721 B( 10-S , 29-H ) :  -0.0771 B( 10-S , 30-H ) :  -0.0644 
B( 11-P , 12-S ) :   0.9524 B( 11-P , 13-O ) :   0.6579 B( 11-P , 14-C ) :  -0.0752 
B( 11-P , 16-O ) :   0.5695 B( 11-P , 17-C ) :  -0.0814 B( 12-S , 13-O ) :  -0.0546 
B( 12-S , 16-O ) :  -0.0713 B( 12-S , 37-H ) :   0.0744 B( 13-O , 14-C ) :   0.5537 
B( 13-O , 15-C ) :  -0.0948 B( 13-O , 16-O ) :  -0.0662 B( 13-O , 31-H ) :  -0.0610 
B( 13-O , 32-H ) :  -0.0655 B( 14-C , 15-C ) :   0.9246 B( 14-C , 31-H ) :   0.7405 
B( 14-C , 32-H ) :   0.7261 B( 15-C , 31-H ) :  -0.0783 B( 15-C , 33-H ) :   0.6927 
B( 15-C , 34-H ) :   0.7386 B( 15-C , 35-H ) :   0.7386 B( 16-O , 17-C ) :   0.5677 
B( 16-O , 18-C ) :  -0.0944 B( 16-O , 36-H ) :  -0.0592 B( 16-O , 37-H ) :  -0.0693 
B( 17-C , 18-C ) :   0.9168 B( 17-C , 36-H ) :   0.7228 B( 17-C , 37-H ) :   0.7118 
B( 18-C , 36-H ) :  -0.0557 B( 18-C , 37-H ) :  -0.0648 B( 18-C , 38-H ) :   0.7328 
B( 18-C , 39-H ) :   0.6958 B( 18-C , 40-H ) :   0.7241 B( 22-H , 23-H ) :  -0.0762 
B( 24-H , 25-H ) :  -0.0652 B( 27-H , 28-H ) :  -0.0549 B( 31-H , 32-H ) :  -0.0721 
B( 34-H , 35-H ) :  -0.0517 B( 36-H , 37-H ) :  -0.0615 B( 38-H , 40-H ) :  -0.0515 



                     *******************************
                     * LOEWDIN POPULATION ANALYSIS *
                     *******************************

----------------------
LOEWDIN ATOMIC CHARGES
----------------------
   0 C :   -0.354634
   1 C :   -0.113337
   2 O :   -0.233729
   3 P :    0.572268
   4 S :   -0.295168
   5 O :   -0.249846
   6 C :   -0.115472
   7 C :   -0.371820
   8 S :    0.080706
   9 C :   -0.476912
  10 S :    0.091774
  11 P :    0.563264
  12 S :   -0.319086
  13 O :   -0.232775
  14 C :   -0.111952
  15 C :   -0.365917
  16 O :   -0.253933
  17 C :   -0.123268
  18 C :   -0.366855
  19 H :    0.120942
  20 H :    0.132345
  21 H :    0.128301
  22 H :    0.118439
  23 H :    0.102426
  24 H :    0.119437
  25 H :    0.113656
  26 H :    0.132312
  27 H :    0.121259
  28 H :    0.122962
  29 H :    0.125596
  30 H :    0.130206
  31 H :    0.108853
  32 H :    0.118187
  33 H :    0.127982
  34 H :    0.131603
  35 H :    0.120114
  36 H :    0.116359
  37 H :    0.109769
  38 H :    0.120902
  39 H :    0.131541
  40 H :    0.123499

-------------------------------
LOEWDIN REDUCED ORBITAL CHARGES
-------------------------------
  0 C s       :     2.950960  s :     2.950960
      pz      :     1.073017  p :     3.334885
      px      :     1.123639
      py      :     1.138229
      dz2     :     0.014734  d :     0.068790
      dxz     :     0.016123
      dyz     :     0.012096
      dx2y2   :     0.011335
      dxy     :     0.014502

  1 C s       :     2.931313  s :     2.931313
      pz      :     0.982954  p :     3.050489
      px      :     1.016724
      py      :     1.050811
      dz2     :     0.029461  d :     0.131535
      dxz     :     0.027930
      dyz     :     0.026689
      dx2y2   :     0.023968
      dxy     :     0.023487

  2 O s       :     3.506691  s :     3.506691
      pz      :     1.392844  p :     4.703159
      px      :     1.641208
      py      :     1.669106
      dz2     :     0.006952  d :     0.023879
      dxz     :     0.004270
      dyz     :     0.006612
      dx2y2   :     0.002270
      dxy     :     0.003775

  3 P s       :     5.055768  s :     5.055768
      pz      :     2.815404  p :     8.552676
      px      :     2.826023
      py      :     2.911249
      dz2     :     0.201984  d :     0.819289
      dxz     :     0.161426
      dyz     :     0.135597
      dx2y2   :     0.164114
      dxy     :     0.156168

  4 S s       :     5.759586  s :     5.759586
      pz      :     3.529986  p :    10.478029
      px      :     3.533024
      py      :     3.415020
      dz2     :     0.005969  d :     0.057553
      dxz     :     0.010768
      dyz     :     0.015773
      dx2y2   :     0.008628
      dxy     :     0.016414

  5 O s       :     3.498468  s :     3.498468
      pz      :     1.431432  p :     4.727721
      px      :     1.527504
      py      :     1.768785
      dz2     :     0.008101  d :     0.023656
      dxz     :     0.004821
      dyz     :     0.002850
      dx2y2   :     0.005143
      dxy     :     0.002741

  6 C s       :     2.926693  s :     2.926693
      pz      :     0.824444  p :     3.053854
      px      :     1.106853
      py      :     1.122557
      dz2     :     0.044539  d :     0.134925
      dxz     :     0.018878
      dyz     :     0.034990
      dx2y2   :     0.026956
      dxy     :     0.009561

  7 C s       :     2.954383  s :     2.954383
      pz      :     1.118199  p :     3.348158
      px      :     1.134755
      py      :     1.095204
      dz2     :     0.015401  d :     0.069279
      dxz     :     0.007925
      dyz     :     0.014782
      dx2y2   :     0.022555
      dxy     :     0.008617

  8 S s       :     5.638292  s :     5.638292
      pz      :     3.777900  p :    10.184091
      px      :     3.074285
      py      :     3.331906
      dz2     :     0.014029  d :     0.096911
      dxz     :     0.011341
      dyz     :     0.007292
      dx2y2   :     0.033743
      dxy     :     0.030507

  9 C s       :     3.061768  s :     3.061768
      pz      :     1.095048  p :     3.327608
      px      :     1.064232
      py      :     1.168328
      dz2     :     0.018798  d :     0.087536
      dxz     :     0.014330
      dyz     :     0.020622
      dx2y2   :     0.014858
      dxy     :     0.018927

 10 S s       :     5.652440  s :     5.652440
      pz      :     3.266466  p :    10.161743
      px      :     3.392688
      py      :     3.502590
      dz2     :     0.029550  d :     0.094043
      dxz     :     0.014162
      dyz     :     0.019262
      dx2y2   :     0.010565
      dxy     :     0.020503

 11 P s       :     5.052030  s :     5.052030
      pz      :     2.859702  p :     8.559449
      px      :     2.855614
      py      :     2.844133
      dz2     :     0.163916  d :     0.825257
      dxz     :     0.170836
      dyz     :     0.190774
      dx2y2   :     0.117126
      dxy     :     0.182605

 12 S s       :     5.767030  s :     5.767030
      pz      :     3.348862  p :    10.494600
      px      :     3.586774
      py      :     3.558964
      dz2     :     0.015129  d :     0.057456
      dxz     :     0.014490
      dyz     :     0.017972
      dx2y2   :     0.003879
      dxy     :     0.005985

 13 O s       :     3.496350  s :     3.496350
      pz      :     1.454699  p :     4.712415
      px      :     1.643221
      py      :     1.614495
      dz2     :     0.004053  d :     0.024009
      dxz     :     0.007479
      dyz     :     0.005453
      dx2y2   :     0.002866
      dxy     :     0.004158

 14 C s       :     2.926272  s :     2.926272
      pz      :     0.952457  p :     3.051447
      px      :     1.044409
      py      :     1.054581
      dz2     :     0.016326  d :     0.134233
      dxz     :     0.039583
      dyz     :     0.031425
      dx2y2   :     0.013015
      dxy     :     0.033884

 15 C s       :     2.952795  s :     2.952795
      pz      :     1.124764  p :     3.343802
      px      :     1.113614
      py      :     1.105425
      dz2     :     0.004316  d :     0.069319
      dxz     :     0.020599
      dyz     :     0.018554
      dx2y2   :     0.006256
      dxy     :     0.019595

 16 O s       :     3.503908  s :     3.503908
      pz      :     1.649195  p :     4.726188
      px      :     1.485845
      py      :     1.591148
      dz2     :     0.002790  d :     0.023836
      dxz     :     0.007329
      dyz     :     0.005235
      dx2y2   :     0.003650
      dxy     :     0.004833

 17 C s       :     2.928283  s :     2.928283
      pz      :     1.066848  p :     3.059535
      px      :     0.954865
      py      :     1.037822
      dz2     :     0.011063  d :     0.135450
      dxz     :     0.038730
      dyz     :     0.032381
      dx2y2   :     0.021380
      dxy     :     0.031896

 18 C s       :     2.953148  s :     2.953148
      pz      :     1.121205  p :     3.344449
      px      :     1.129307
      py      :     1.093937
      dz2     :     0.005025  d :     0.069257
      dxz     :     0.020564
      dyz     :     0.018602
      dx2y2   :     0.006935
      dxy     :     0.018131

 19 H s       :     0.879058  s :     0.879058

 20 H s       :     0.867655  s :     0.867655

 21 H s       :     0.871699  s :     0.871699

 22 H s       :     0.881561  s :     0.881561

 23 H s       :     0.897574  s :     0.897574

 24 H s       :     0.880563  s :     0.880563

 25 H s       :     0.886344  s :     0.886344

 26 H s       :     0.867688  s :     0.867688

 27 H s       :     0.878741  s :     0.878741

 28 H s       :     0.877038  s :     0.877038

 29 H s       :     0.874404  s :     0.874404

 30 H s       :     0.869794  s :     0.869794

 31 H s       :     0.891147  s :     0.891147

 32 H s       :     0.881813  s :     0.881813

 33 H s       :     0.872018  s :     0.872018

 34 H s       :     0.868397  s :     0.868397

 35 H s       :     0.879886  s :     0.879886

 36 H s       :     0.883641  s :     0.883641

 37 H s       :     0.890231  s :     0.890231

 38 H s       :     0.879098  s :     0.879098

 39 H s       :     0.868459  s :     0.868459

 40 H s       :     0.876501  s :     0.876501


---------------------------------
LOEWDIN BOND ORDERS (THRESH 0.050000)
---------------------------------
B(  0-C ,  1-C ) :   1.1584 B(  0-C ,  2-O ) :   0.0579 B(  0-C , 19-H ) :   0.9292 
B(  0-C , 20-H ) :   0.9347 B(  0-C , 21-H ) :   0.9272 B(  1-C ,  2-O ) :   1.0647 
B(  1-C ,  3-P ) :   0.0670 B(  1-C , 22-H ) :   0.9179 B(  1-C , 23-H ) :   0.9103 
B(  2-O ,  3-P ) :   1.3113 B(  2-O ,  4-S ) :   0.0718 B(  2-O ,  5-O ) :   0.0530 
B(  2-O ,  8-S ) :   0.0728 B(  3-P ,  4-S ) :   1.7673 B(  3-P ,  5-O ) :   1.2633 
B(  3-P ,  6-C ) :   0.0628 B(  3-P ,  8-S ) :   1.0119 B(  4-S ,  5-O ) :   0.0893 
B(  4-S ,  8-S ) :   0.1288 B(  5-O ,  6-C ) :   1.0903 B(  5-O ,  7-C ) :   0.0585 
B(  5-O ,  8-S ) :   0.0591 B(  6-C ,  7-C ) :   1.1583 B(  6-C , 24-H ) :   0.9173 
B(  6-C , 25-H ) :   0.9090 B(  7-C , 26-H ) :   0.9242 B(  7-C , 27-H ) :   0.9278 
B(  7-C , 28-H ) :   0.9350 B(  8-S ,  9-C ) :   1.1899 B(  8-S , 10-S ) :   0.0792 
B(  9-C , 10-S ) :   1.1319 B(  9-C , 29-H ) :   0.9056 B(  9-C , 30-H ) :   0.9264 
B( 10-S , 11-P ) :   1.0892 B( 10-S , 12-S ) :   0.1071 B( 10-S , 13-O ) :   0.0533 
B( 10-S , 16-O ) :   0.0684 B( 11-P , 12-S ) :   1.7668 B( 11-P , 13-O ) :   1.2908 
B( 11-P , 14-C ) :   0.0593 B( 11-P , 16-O ) :   1.2336 B( 11-P , 17-C ) :   0.0647 
B( 12-S , 13-O ) :   0.0857 B( 12-S , 16-O ) :   0.0934 B( 13-O , 14-C ) :   1.0811 
B( 13-O , 15-C ) :   0.0575 B( 13-O , 16-O ) :   0.0538 B( 14-C , 15-C ) :   1.1602 
B( 14-C , 31-H ) :   0.9165 B( 14-C , 32-H ) :   0.9134 B( 15-C , 33-H ) :   0.9255 
B( 15-C , 34-H ) :   0.9347 B( 15-C , 35-H ) :   0.9282 B( 16-O , 17-C ) :   1.0966 
B( 16-O , 18-C ) :   0.0593 B( 17-C , 18-C ) :   1.1561 B( 17-C , 36-H ) :   0.9170 
B( 17-C , 37-H ) :   0.9040 B( 18-C , 38-H ) :   0.9368 B( 18-C , 39-H ) :   0.9258 
B( 18-C , 40-H ) :   0.9267 

------------------------------------------
LOEWDIN REDUCED ORBITAL POPULATIONS PER MO
-------------------------------------------
THRESHOLD FOR PRINTING IS 0.1%%
                      0         1         2         3         4         5   
                 -88.05073 -88.03877 -87.98738 -87.98137 -76.42765 -76.42208
                   2.00000   2.00000   2.00000   2.00000   2.00000   2.00000
                  --------  --------  --------  --------  --------  --------
 3 P  s               0.0       0.0       0.0       0.0     100.0       0.0
 4 S  s               0.0       0.0     100.0       0.0       0.0       0.0
 8 S  s             100.0       0.0       0.0       0.0       0.0       0.0
10 S  s               0.0     100.0       0.0       0.0       0.0       0.0
11 P  s               0.0       0.0       0.0       0.0       0.0     100.0
12 S  s               0.0       0.0       0.0     100.0       0.0       0.0

                      6         7         8         9        10        11   
                 -18.79668 -18.79271 -18.78864 -18.78266  -9.95698  -9.95686
                   2.00000   2.00000   2.00000   2.00000   2.00000   2.00000
                  --------  --------  --------  --------  --------  --------
 2 O  s               0.0       0.0      99.9       0.0       0.0       0.0
 5 O  s              99.9       0.0       0.0       0.0       0.0       0.0
 6 C  s               0.0       0.0       0.0       0.0      99.6       0.0
 9 C  s               0.0       0.0       0.0       0.0       0.0      99.8
13 O  s               0.0       0.0       0.0      99.9       0.0       0.0
16 O  s               0.0      99.9       0.0       0.0       0.0       0.0

                     12        13        14        15        16        17   
                  -9.95411  -9.95173  -9.94740  -9.88830  -9.88547  -9.88202
                   2.00000   2.00000   2.00000   2.00000   2.00000   2.00000
                  --------  --------  --------  --------  --------  --------
 0 C  s               0.0       0.0       0.0       0.0       0.0      99.7
 1 C  s              99.7       0.0       0.0       0.0       0.0       0.0
 7 C  s               0.0       0.0       0.0      99.7       0.0       0.0
14 C  s               0.0       0.0      99.7       0.0       0.0       0.0
17 C  s               0.0      99.7       0.0       0.0       0.0       0.0
18 C  s               0.0       0.0       0.0       0.0      99.7       0.0

                     18        19        20        21        22        23   
                  -9.87716  -7.69557  -7.68369  -7.63250  -7.62659  -6.42519
                   2.00000   2.00000   2.00000   2.00000   2.00000   2.00000
                  --------  --------  --------  --------  --------  --------
 2 O  pz              0.0       0.0       0.0       0.0       0.0       0.2
 3 P  s               0.0       0.0       0.0       0.0       0.0      99.3
 4 S  s               0.0       0.0       0.0      99.9       0.0       0.0
 5 O  px              0.0       0.0       0.0       0.0       0.0       0.2
 8 S  s               0.0      99.7       0.0       0.0       0.0       0.0
 9 C  pz              0.0       0.0       0.1       0.0       0.0       0.0
 9 C  px              0.0       0.2       0.0       0.0       0.0       0.0
10 S  s               0.0       0.0      99.8       0.0       0.0       0.0
12 S  s               0.0       0.0       0.0       0.0      99.9       0.0
15 C  s              99.7       0.0       0.0       0.0       0.0       0.0

                     24        25        26        27        28        29   
                  -6.41949  -5.72333  -5.72003  -5.71275  -5.71205  -5.70802
                   2.00000   2.00000   2.00000   2.00000   2.00000   2.00000
                  --------  --------  --------  --------  --------  --------
 8 S  pz              0.0       2.2       0.1      97.7       0.0       0.0
 8 S  px              0.0      82.4      15.4       2.2       0.0       0.0
 8 S  py              0.0      15.5      84.4       0.1       0.0       0.0
10 S  pz              0.0       0.0       0.0       0.0      26.0      67.6
10 S  px              0.0       0.0       0.0       0.0      35.9      30.3
10 S  py              0.0       0.0       0.0       0.0      38.1       2.1
11 P  s              99.3       0.0       0.0       0.0       0.0       0.0
13 O  pz              0.1       0.0       0.0       0.0       0.0       0.0

                     30        31        32        33        34        35   
                  -5.70039  -5.66145  -5.65558  -5.65293  -5.65279  -5.64714
                   2.00000   2.00000   2.00000   2.00000   2.00000   2.00000
                  --------  --------  --------  --------  --------  --------
 4 S  pz              0.0      27.0       0.0       6.3      66.7       0.0
 4 S  px              0.0      22.0       0.0      51.1      26.9       0.0
 4 S  py              0.0      51.0       0.0      42.5       6.4       0.0
10 S  pz              6.4       0.0       0.0       0.0       0.0       0.0
10 S  px             33.8       0.0       0.0       0.0       0.0       0.0
10 S  py             59.8       0.0       0.0       0.0       0.0       0.0
12 S  pz              0.0       0.0      59.6       0.0       0.0      38.0
12 S  px              0.0       0.0      16.7       0.0       0.0      44.7
12 S  py              0.0       0.0      23.7       0.0       0.0      17.3

                     36        37        38        39        40        41   
                  -5.64675  -4.64803  -4.64689  -4.64549  -4.64239  -4.64126
                   2.00000   2.00000   2.00000   2.00000   2.00000   2.00000
                  --------  --------  --------  --------  --------  --------
 3 P  pz              0.0      55.5       6.4      38.0       0.0       0.0
 3 P  px              0.0      23.2      71.1       5.6       0.0       0.0
 3 P  py              0.0      21.2      22.4      56.4       0.0       0.0
11 P  pz              0.0       0.0       0.0       0.0       0.1      71.2
11 P  px              0.0       0.0       0.0       0.0      54.0      11.9
11 P  py              0.0       0.0       0.0       0.0      45.9      16.9
12 S  pz              2.4       0.0       0.0       0.0       0.0       0.0
12 S  px             38.6       0.0       0.0       0.0       0.0       0.0
12 S  py             59.0       0.0       0.0       0.0       0.0       0.0

                     42        43        44        45        46        47   
                  -4.63971  -0.98914  -0.98374  -0.94476  -0.93996  -0.76449
                   2.00000   2.00000   2.00000   2.00000   2.00000   2.00000
                  --------  --------  --------  --------  --------  --------
 0 C  s               0.0       0.2       0.0       0.3       0.0       0.1
 0 C  pz              0.0       0.3       0.0       0.6       0.0       0.0
 1 C  s               0.0       2.9       0.0       4.7       0.0       0.5
 1 C  pz              0.0       1.7       0.0       1.6       0.0       0.0
 1 C  px              0.0       1.0       0.0       1.6       0.0       0.0
 1 C  py              0.0       0.6       0.0       1.0       0.0       0.1
 1 C  dxz             0.0       0.1       0.0       0.2       0.0       0.0
 1 C  dyz             0.0       0.1       0.0       0.1       0.0       0.0
 2 O  s               0.0      24.3       0.0      34.3       0.0       0.4
 2 O  pz              0.0       0.8       0.0       0.1       0.0       0.4
 2 O  px              0.0       0.1       0.0       0.2       0.0       0.2
 2 O  py              0.0       0.9       0.0       0.9       0.0       0.0
 3 P  s               0.0      14.1       0.0       0.1       0.0       3.0
 3 P  pz              0.0       0.8       0.0       8.1       0.0       0.0
 3 P  px              0.0       4.2       0.0       1.8       0.0       1.3
 3 P  py              0.0       0.0       0.0       0.8       0.0       1.3
 3 P  dz2             0.0       0.2       0.0       1.6       0.0       0.1
 3 P  dxz             0.0       0.1       0.0       1.0       0.0       0.0
 3 P  dyz             0.0       0.2       0.0       0.2       0.0       0.0
 3 P  dx2y2           0.0       0.5       0.0       0.5       0.0       0.1
 3 P  dxy             0.0       0.0       0.0       0.1       0.0       0.1
 4 S  s               0.0       0.3       0.0       0.0       0.0       0.6
 4 S  pz              0.0       0.1       0.0       0.0       0.0       0.1
 4 S  px              0.0       0.1       0.0       0.0       0.0       0.0
 4 S  py              0.0       0.2       0.0       0.0       0.0       0.1
 5 O  s               0.0      32.5       0.0      26.7       0.0       0.2
 5 O  pz              0.0       0.1       0.0       1.0       0.0       0.2
 5 O  px              0.0       1.5       0.0       0.2       0.0       0.3
 6 C  s               0.0       3.7       0.0       4.4       0.0       0.3
 6 C  pz              0.0       3.7       0.0       3.4       0.0       0.0
 6 C  px              0.0       0.4       0.0       0.3       0.0       0.0
 6 C  dz2             0.0       0.3       0.0       0.3       0.0       0.0
 7 C  s               0.0       0.2       0.0       0.3       0.0       0.0
 7 C  pz              0.0       0.2       0.0       0.2       0.0       0.0
 7 C  py              0.0       0.2       0.0       0.3       0.0       0.0
 8 S  s               0.0       0.3       0.0       0.0       0.0      22.5
 8 S  px              0.0       0.1       0.0       0.0       0.0       2.0
 8 S  py              0.0       0.3       0.0       0.0       0.0       1.2
 8 S  dz2             0.0       0.0       0.0       0.0       0.0       0.2
 9 C  s               0.0       0.0       0.0       0.0       0.0      26.6
 9 C  pz              0.0       0.0       0.0       0.0       0.0       0.8
 9 C  px              0.0       0.0       0.0       0.0       0.0       1.9
10 S  s               0.0       0.0       0.3       0.0       0.0      15.3
10 S  pz              0.0       0.0       0.1       0.0       0.0       2.4
10 S  px              0.0       0.0       0.3       0.0       0.0       0.0
10 S  py              0.0       0.0       0.1       0.0       0.0       0.2
11 P  s               0.0       0.0      13.8       0.0       0.1       1.7
11 P  pz             28.6       0.0       4.6       0.0       0.7       0.1
11 P  px             34.1       0.0       0.4       0.0       4.1       1.1
11 P  py             37.2       0.0       0.1       0.0       5.6       0.5
11 P  dz2             0.0       0.0       0.0       0.0       0.4       0.0
11 P  dxz             0.0       0.0       0.0       0.0       1.1       0.0
11 P  dyz             0.0       0.0       0.0       0.0       1.8       0.0
11 P  dxy             0.0       0.0       0.9       0.0       0.1       0.2
12 S  s               0.0       0.0       0.3       0.0       0.0       0.2
12 S  pz              0.0       0.0       0.3       0.0       0.0       0.0
13 O  s               0.0       0.0      23.7       0.0      35.1       0.2
[...]
 1 C  pz              1.3       0.0       0.0       0.5
 1 C  px              0.7       0.0       0.0       0.2
 1 C  py              0.6       0.0       0.0       0.2
 1 C  dz2             0.0       0.0       0.0       0.1
 1 C  dxz             4.5       0.0       0.0       1.5
 1 C  dyz             2.7       0.0       0.0       1.0
 1 C  dxy             2.5       0.0       0.0       0.2
 2 O  s               2.5       0.0       0.0       0.3
 2 O  pz              1.8       0.0       0.1       3.2
 2 O  px              0.9       0.0       0.0       0.5
 2 O  py              0.4       0.0       0.0       0.0
 2 O  dz2             0.2       0.0       0.4      10.7
 2 O  dxz            17.8       0.0       0.0       1.6
 2 O  dyz            16.6       0.0       0.5      16.0
 2 O  dx2y2           0.2       0.0       0.0       0.3
 2 O  dxy            15.0       0.0       0.1       4.0
 3 P  s               0.7       0.0       0.0       0.1
 3 P  pz              0.0       0.0       0.1       2.4
 3 P  px              0.6       0.0       0.0       0.3
 3 P  py              0.0       0.0       0.0       0.3
 3 P  dz2             0.0       0.0       0.0       0.7
 3 P  dxz             0.0       0.0       0.0       1.2
 3 P  dx2y2           0.2       0.0       0.0       0.1
 5 O  s               0.1       0.0       0.0       0.1
 5 O  pz              1.5       0.0       0.1       2.5
 5 O  px              0.8       0.0       0.1       1.5
 5 O  dz2            19.0       0.1       1.2      32.9
 5 O  dyz             0.0       0.0       0.0       0.3
 5 O  dx2y2           1.8       0.0       0.2       5.1
 5 O  dxy             0.5       0.0       0.0       0.2
 6 C  s               0.5       0.0       0.0       0.9
 6 C  pz              0.9       0.0       0.1       1.5
 6 C  px              0.1       0.0       0.0       0.1
 6 C  dz2             2.1       0.0       0.1       3.6
 6 C  dxz             0.9       0.0       0.0       1.4
11 P  s               0.0       0.6       0.0       0.0
11 P  pz              0.0       0.3       0.2       0.0
11 P  px              0.0       0.4       0.6       0.0
11 P  py              0.0       0.2       1.1       0.1
11 P  dz2             0.0       0.0       0.8       0.0
11 P  dxz             0.0       0.3       0.2       0.0
11 P  dyz             0.0       0.0       0.4       0.0
11 P  dxy             0.0       0.0       0.1       0.0
13 O  s               0.0       3.2       0.1       0.0
13 O  pz              0.0       1.5       1.5       0.0
13 O  px              0.0       0.6       0.0       0.0
13 O  py              0.0       0.8       1.0       0.0
13 O  dz2             0.0       3.9       0.0       0.0
13 O  dxz             0.1      23.4      13.8       0.4
13 O  dyz             0.0      18.9       0.4       0.0
13 O  dx2y2           0.0       0.3       0.7       0.0
13 O  dxy             0.0       9.1       8.8       0.2
14 C  s               0.0       1.5       0.4       0.0
14 C  pz              0.0       1.2       0.4       0.0
14 C  px              0.0       1.0       0.2       0.0
14 C  py              0.0       0.7       0.2       0.0
14 C  dz2             0.0       0.6       0.3       0.0
14 C  dxz             0.0       5.0       0.8       0.0
14 C  dyz             0.0       3.4       0.8       0.0
14 C  dx2y2           0.0       0.1       0.0       0.0
14 C  dxy             0.0       1.4       0.3       0.0
15 C  dz2             0.0       0.2       0.0       0.0
15 C  dxy             0.0       0.2       0.0       0.0
16 O  s               0.0       0.0       0.8       0.0
16 O  px              0.0       1.3       2.4       0.1
16 O  py              0.0       0.8       1.6       0.1
16 O  dz2             0.0       0.2       0.6       0.0
16 O  dxz             0.0       9.6      25.6       1.1
16 O  dyz             0.0       5.6      15.3       0.6
16 O  dx2y2           0.0       0.1       1.0       0.0
16 O  dxy             0.0       0.0       4.9       0.1
17 C  s               0.0       0.3       1.3       0.0
17 C  pz              0.0       0.1       0.5       0.0
17 C  px              0.0       0.3       1.1       0.0
17 C  py              0.0       0.2       0.7       0.0
17 C  dz2             0.0       0.2       0.4       0.0
17 C  dxz             0.0       0.3       2.4       0.1
17 C  dyz             0.0       0.2       0.9       0.0
17 C  dx2y2           0.0       0.1       0.4       0.0
17 C  dxy             0.0       0.9       2.9       0.1


                      *****************************
                      * MAYER POPULATION ANALYSIS *
                      *****************************

  NA   - Mulliken gross atomic population
  ZA   - Total nuclear charge
  QA   - Mulliken gross atomic charge
  VA   - Mayer's total valence
  BVA  - Mayer's bonded valence
  FA   - Mayer's free valence

  ATOM       NA         ZA         QA         VA         BVA        FA
  0 C      6.2846     6.0000    -0.2846     3.9956     3.9956     0.0000
  1 C      6.0128     6.0000    -0.0128     4.0018     4.0018     0.0000
  2 O      8.3483     8.0000    -0.3483     2.1735     2.1735     0.0000
  3 P     14.3991    15.0000     0.6009     4.9734     4.9734     0.0000
  4 S     16.3018    16.0000    -0.3018     2.0653     2.0653     0.0000
  5 O      8.3823     8.0000    -0.3823     2.1674     2.1674     0.0000
  6 C      5.9991     6.0000     0.0009     4.0065     4.0065     0.0000
  7 C      6.3201     6.0000    -0.3201     3.9872     3.9872    -0.0000
  8 S     16.1031    16.0000    -0.1031     2.2819     2.2819     0.0000
  9 C      6.3614     6.0000    -0.3614     3.8188     3.8188    -0.0000
 10 S     16.0765    16.0000    -0.0765     2.2268     2.2268    -0.0000
 11 P     14.3800    15.0000     0.6200     4.9618     4.9618     0.0000
 12 S     16.3181    16.0000    -0.3181     2.0328     2.0328    -0.0000
 13 O      8.3615     8.0000    -0.3615     2.1906     2.1906     0.0000
 14 C      6.0037     6.0000    -0.0037     4.0241     4.0241     0.0000
 15 C      6.3087     6.0000    -0.3087     4.0009     4.0009    -0.0000
 16 O      8.3944     8.0000    -0.3944     2.1565     2.1565    -0.0000
 17 C      6.0078     6.0000    -0.0078     3.9991     3.9991    -0.0000
 18 C      6.3156     6.0000    -0.3156     3.9940     3.9940     0.0000
 19 H      0.8706     1.0000     0.1294     0.9730     0.9730     0.0000
 20 H      0.8750     1.0000     0.1250     0.9590     0.9590     0.0000
 21 H      0.8934     1.0000     0.1066     0.9536     0.9536     0.0000
 22 H      0.8900     1.0000     0.1100     0.9486     0.9486    -0.0000
 23 H      0.9000     1.0000     0.1000     0.9723     0.9723     0.0000
 24 H      0.8939     1.0000     0.1061     0.9494     0.9494     0.0000
 25 H      0.8868     1.0000     0.1132     0.9784     0.9784     0.0000
 26 H      0.8845     1.0000     0.1155     0.9547     0.9547     0.0000
 27 H      0.8724     1.0000     0.1276     0.9831     0.9831     0.0000
 28 H      0.8820     1.0000     0.1180     0.9610     0.9610    -0.0000
 29 H      0.7972     1.0000     0.2028     0.9735     0.9735     0.0000
 30 H      0.8169     1.0000     0.1831     0.9348     0.9348    -0.0000
 31 H      0.8986     1.0000     0.1014     0.9605     0.9605     0.0000
 32 H      0.8872     1.0000     0.1128     0.9555     0.9555    -0.0000
 33 H      0.8928     1.0000     0.1072     0.9535     0.9535    -0.0000
 34 H      0.8731     1.0000     0.1269     0.9614     0.9614    -0.0000
 35 H      0.8769     1.0000     0.1231     0.9807     0.9807    -0.0000
 36 H      0.8981     1.0000     0.1019     0.9489     0.9489    -0.0000
 37 H      0.8875     1.0000     0.1125     0.9904     0.9904    -0.0000
 38 H      0.8876     1.0000     0.1124     0.9604     0.9604     0.0000
 39 H      0.8867     1.0000     0.1133     0.9548     0.9548     0.0000
 40 H      0.8697     1.0000     0.1303     0.9832     0.9832     0.0000

  Mayer bond orders larger than 0.100000
B(  0-C ,  1-C ) :   1.1651 B(  0-C , 19-H ) :   0.9394 B(  0-C , 20-H ) :   0.9473 
B(  0-C , 21-H ) :   0.9393 B(  1-C ,  2-O ) :   0.8871 B(  1-C , 22-H ) :   0.9332 
B(  1-C , 23-H ) :   0.9129 B(  2-O ,  3-P ) :   1.1487 B(  3-P ,  4-S ) :   1.6526 
B(  3-P ,  5-O ) :   1.0873 B(  3-P ,  8-S ) :   0.9280 B(  4-S ,  8-S ) :   0.1094 
B(  5-O ,  6-C ) :   0.9062 B(  6-C ,  7-C ) :   1.1660 B(  6-C , 24-H ) :   0.9343 
B(  6-C , 25-H ) :   0.9191 B(  7-C , 26-H ) :   0.9370 B(  7-C , 27-H ) :   0.9347 
B(  7-C , 28-H ) :   0.9432 B(  8-S ,  9-C ) :   1.0195 B(  9-C , 10-S ) :   0.9597 
B(  9-C , 29-H ) :   0.8620 B(  9-C , 30-H ) :   0.9044 B( 10-S , 11-P ) :   0.9841 
B( 11-P , 12-S ) :   1.6502 B( 11-P , 13-O ) :   1.1251 B( 11-P , 16-O ) :   1.0412 
B( 13-O , 14-C ) :   0.9051 B( 14-C , 15-C ) :   1.1696 B( 14-C , 31-H ) :   0.9291 
B( 14-C , 32-H ) :   0.9267 B( 15-C , 33-H ) :   0.9372 B( 15-C , 34-H ) :   0.9455 
B( 15-C , 35-H ) :   0.9365 B( 16-O , 17-C ) :   0.9149 B( 17-C , 18-C ) :   1.1637 
B( 17-C , 36-H ) :   0.9330 B( 17-C , 37-H ) :   0.9100 B( 18-C , 38-H ) :   0.9447 
B( 18-C , 39-H ) :   0.9387 B( 18-C , 40-H ) :   0.9344 

-------
TIMINGS
-------

Total SCF time: 0 days 0 hours 0 min 16 sec 

Total time                  ....      16.540 sec
Sum of individual times     ....      15.982 sec  ( 96.6%)

SCF preparation             ....       0.232 sec  (  1.4%)
Fock matrix formation       ....      14.566 sec  ( 88.1%)
  Startup                   ....       0.056 sec  (  0.4% of F)
  Split-RI-J                ....       8.660 sec  ( 59.5% of F)
  XC integration            ....       5.359 sec  ( 36.8% of F)
    XC Preparation          ....       0.000 sec  (  0.0% of XC)
    Basis function eval.    ....       2.041 sec  ( 38.1% of XC)
    Density eval.           ....       1.009 sec  ( 18.8% of XC)
    XC-Functional eval.     ....       0.408 sec  (  7.6% of XC)
    XC-Potential eval.      ....       1.168 sec  ( 21.8% of XC)
Diagonalization             ....       0.000 sec  (  0.0%)
Density matrix formation    ....       0.226 sec  (  1.4%)
Total Energy calculation    ....       0.034 sec  (  0.2%)
Population analysis         ....       0.220 sec  (  1.3%)
Orbital Transformation      ....       0.084 sec  (  0.5%)
Orbital Orthonormalization  ....       0.000 sec  (  0.0%)
DIIS solution               ....       0.485 sec  (  2.9%)
  MO trafo                  ....       0.000 sec  (  0.0 % of DIIS)
  Orb grad                  ....       0.000 sec  (  0.0 % of DIIS)
  Energy W gradient         ....       0.000 sec  (  0.0 % of DIIS)
  DIIS error                ....       0.022 sec  (  4.5 % of DIIS)
  DIIS work                 ....       0.402 sec  ( 82.9 % of DIIS)
  Form Q                    ....       0.000 sec  (  0.0 % of DIIS)
  Form QpQm                 ....       0.000 sec  (  0.0 % of DIIS)
  Exp/Cayley                ....       0.000 sec  (  0.0 % of DIIS)
  Orb update                ....       0.000 sec  (  0.0 % of DIIS)
  Wake-sleep                ....       0.015 sec  (  3.2 % of DIIS)
SOSCF solution              ....       0.133 sec  (  0.8%)
  MO trafo                  ....       0.074 sec  ( 55.3 % of SOSCF)
  Orb grad                  ....       0.002 sec  (  1.4 % of SOSCF)
  Rot update                ....       0.012 sec  (  9.4 % of SOSCF)
  Step                      ....       0.045 sec  ( 33.8 % of SOSCF)
Finished LeanSCF after  16.6 sec

Maximum memory used throughout the entire LEANSCF-calculation: 34.1 MB


-------------------------------------------------------------------------------
                          DFT DISPERSION CORRECTION                            
                                                                               
                                DFTD4 V3.4.0                                   
-------------------------------------------------------------------------------
The PBE functional is recognized
Active option DFTDOPT                   ...         5   

-------------------------   ----------------
Dispersion correction           -0.064410143
-------------------------   ----------------

------------------   -----------------
gCP correction             0.185421120
------------------   -----------------

-------------------------   --------------------
FINAL SINGLE POINT ENERGY     -2929.517202958109
-------------------------   --------------------


------------------------------------------------------------------------------
                              ORCA PROPERTY CALCULATIONS
------------------------------------------------------------------------------

GBWName                                 ... sp.gbw
Number of atoms                         ...     41
Number of basis functions               ...    334
Max core memory                         ...   1024 MB

Electric properties:
Dipole moment                           ... YES
Quadrupole moment                       ...  NO
Static polarizability (Dipole/Dipole)   ...  NO
Static polarizability (Dipole/Quad.)    ...  NO
Static polarizability (Quad./Quad.)     ...  NO
Static polarizability (Velocity)        ...  NO

Atomic electric properties:
Dipole moment                           ...  NO
Quadrupole moment                       ...  NO
Static polarizability                   ...  NO

Choice of electric origin               ... Center of mass
Position of electric origin             ...    -0.000004    -0.000005     0.000001

General magnetic properties:
Magnetizability                         ...  NO

EPR properties:
g-Tensor (aka g-matrix)                 ...  NO
Zero-Field splitting spin-orbit         ...  NO
Zero-field splitting spin-spin          ...  NO
Hyperfine couplings                     ...  NO (   0 nuclei)
Quadrupole couplings                    ...  NO (   0 nuclei)
Contact density                         ...  NO (   0 nuclei)

NMR properties:
Chemical shifts                         ...  NO (   0 nuclei)
Spin-rotation constants                 ...  NO (   0 nuclei)
Spin-spin couplings                     ...  NO (   0 nuclei,    0 pairs)

Choice of magnetic origin               ... GIAO
Position of magnetic origin             ...     0.000000     0.000000     0.000000

Properties with geometric perturbations:
SCF Hessian                             ...  NO
IR spectrum                             ...  NO
VCD spectrum                            ...  NO
X-ray spectroscopy properties:
SCF XES/XAS/RIXS spectra                ...  NO


-------------
DIPOLE MOMENT
-------------

Method             : SCF
Type of density    : Electron Density
Multiplicity       :   1
Irrep              :   0
Energy             : -2929.6382139350807847 Eh
Relativity type    : 
Basis              : AO
                                X                 Y                 Z
Electronic contribution:      2.691429986       5.242634072      -3.678591000
Nuclear contribution   :     -2.241509725      -6.609819576       4.679883752
                        -----------------------------------------
Total Dipole Moment    :      0.449920261      -1.367185504       1.001292753
                        -----------------------------------------
Magnitude (a.u.)       :      1.753342984
Magnitude (Debye)      :      4.456643691



--------------------
Rotational spectrum 
--------------------
 
Rotational constants in cm-1:             0.012195             0.004758             0.004448 
Rotational constants in MHz :           365.582813           142.629797           133.346577 

Dipole components along the rotational axes: 
x,y,z [a.u.] :     0.919050    -0.027913    -1.492910 
x,y,z [Debye]:     2.336040    -0.070949    -3.794675 

 

Dipole moment calculation done in   0.0 sec 

Maximum memory used throughout the entire PROP-calculation: 23.5 MB

--------------------------------
SUGGESTED CITATIONS FOR THIS RUN
--------------------------------

Below you find a list of papers that are relevant to this ORCA run
We neither can nor want to force you to cite these papers, but we appreciate if you do
You receive ORCA, which is the product of decades of hard work by many enthusiastic individuals, for free
The only thing we kindly ask in return is that you cite our papers,
We deeply appreciate it, if you show your appreciation for ORCA by not just citing the generic ORCA reference.

Please note that relegating all ORCA citations to the supporting information does *not* help us.
SI sections are not indexed - citations you put there will not count into any citation statistics
But we need these citations in order to attract the funding resources that allow us to do what we are doing

Therefore, if you are a happy ORCA user, please consider citing a few of the papers listed below in the main body of your paper

In addition to the list printed below, the program has created the file sp.bibtex that contains the list in bibtex format
You can import this file easily into all common literature databanks and citation aid programs


List of essential papers. We consider these as the minimum necessary citations

  1. Neese,F.
     Software update: the ORCA program system, version 5.0
     WIRES Comput. Molec. Sci., 2022 12(1)e1606
     doi.org/10.1002/wcms.1606

List of papers to cite with high priority. The work reported in these papers was absolutely
necessary for this run to complete.
Our perspective: the developers of density functionals and basis sets usually get cited in chemistry papers
Good! But without the algorithms to do something with them, the functionals or basis sets would not do anything.
Hence, in our opinion, the algorithm design and method developments papers are equally worthy of getting cited

  1. Neese,F.
     An improvement of the resolution of the identity approximation for the formation of the Coulomb matrix
     J. Comp. Chem., 2003 24(14)1740-1747
     doi.org/10.1002/jcc.10318
  2. Neese,F.
     The SHARK Integral Generation and Digestion System
     J. Comp. Chem., 2022  1-16
     doi.org/10.1002/jcc.26942
  3. Caldeweyher,E.; Bannwarth,C.; Grimme,S.
     Extension of the D3 dispersion coefficient model
     J. Chem. Phys., 2017 147 034112-XXXX
     doi.org/10.1063/1.4993215
  4. Caldeweyher,E.; Ehlert,S.; Hansen,A.; Neugebauer,H.; Spicher,S.; Bannwarth,C.; Grimme,S.
     A generally applicable atomic-charge dependent London dispersion correction
     J. Chem. Phys., 2019 150 154122-XXXX
     doi.org/10.1063/1.5090222
  5. Caldeweyher,E.; Mewes,J.; Ehlert,S.; Grimme,S.
     Extension and evaluation of the D4 London-dispersion model for periodic systems
     Phys. Chem. Chem. Phys., 2020 22(16)8499-8512
     doi.org/10.1039/D0CP00502A

List of suggested additional citations. These are papers that are important in the 'surrounding' of 
of this run, or papers that preceded the highly important papers. If you like your results we are grateful for a citation.

  1. Neese,F.
     The ORCA program system
     WIRES Comput. Molec. Sci., 2012 2(1)73-78
     doi.org/10.1002/wcms.81
  2. Neese,F.
     Software update: the ORCA program system, version 4.0
     WIRES Comput. Molec. Sci., 2018 8(1)1-6
     doi.org/10.1002/wcms.1327
  3. Neese,F.; Wennmohs,F.; Becker,U.; Riplinger,C.
     The ORCA quantum chemistry program package
     J. Chem. Phys., 2020 152 Art. No. L224108
     doi.org/10.1063/5.0004608

List of optional additional citations

  1. Neese,F.
     Approximate second-order SCF convergence for spin unrestricted wavefunctions
     Chem. Phys. Lett., 2000 325(1-3)93-98
     doi.org/10.1016/s0009-2614(00)00662-x

Timings for individual modules:

Sum of individual times          ...       20.199 sec (=   0.337 min)
Startup calculation              ...        1.566 sec (=   0.026 min)   7.8 %
SCF iterations                   ...       18.514 sec (=   0.309 min)  91.7 %
Property calculations            ...        0.119 sec (=   0.002 min)   0.6 %
                             ****ORCA TERMINATED NORMALLY****
TOTAL RUN TIME: 0 days 0 hours 0 minutes 21 seconds 33 msec
