      -----------------------------------------------------------      
     |                   =====================                   |     
     |                           x T B                           |     
     |                   =====================                   |     
     |                         S. Grimme                         |     
     |          Mulliken Center for Theoretical Chemistry        |     
     |                    University of Bonn                     |     
      -----------------------------------------------------------      

   * xtb version 6.7.1 (edcfbbe) compiled by 'albert@albert-system' on 2024-07-22

   xtb is free software: you can redistribute it and/or modify it under
   the terms of the GNU Lesser General Public License as published by
   the Free Software Foundation, either version 3 of the License, or
   (at your option) any later version.
   
   xtb is distributed in the hope that it will be useful,
   but WITHOUT ANY WARRANTY; without even the implied warranty of
   MERCHANTABILITY or FITNESS FOR A PARTICULAR PURPOSE.  See the
   GNU Lesser General Public License for more details.
   
   Cite this work as:
   * C. Bannwarth, E. Caldeweyher, S. Ehlert, A. Hansen, P. Pracht,
     J. Seibert, S. Spicher, S. Grimme, WIREs Comput. Mol. Sci., 2020, 11,
     e01493. DOI: 10.1002/wcms.1493
   
   for GFN2-xTB:
   * C. Bannwarth, S. Ehlert and S. Grimme., J. Chem. Theory Comput., 2019,
     15, 1652-1671. DOI: 10.1021/acs.jctc.8b01176
   for GFN1-xTB:
   * S. Grimme, C. Bannwarth, P. Shushkov, J. Chem. Theory Comput., 2017,
     13, 1989-2009. DOI: 10.1021/acs.jctc.7b00118
   for GFN0-xTB:
   * P. Pracht, E. Caldeweyher, S. Ehlert, S. Grimme, ChemRxiv, 2019, preprint.
     DOI: 10.26434/chemrxiv.8326202.v1
   for GFN-FF:
   * S. Spicher and S. Grimme, Angew. Chem. Int. Ed., 2020, 59, 15665-15673.
     DOI: 10.1002/anie.202004239
   
   for ALPB and GBSA implicit solvation:
   * S. Ehlert, M. Stahn, S. Spicher, S. Grimme, J. Chem. Theory Comput.,
     2021, 17, 4250-4261. DOI: 10.1021/acs.jctc.1c00471
   
   for ddCOSMO and CPCM-X implicit solvation:
   * M. Stahn, S. Ehlert, S. Grimme, J. Phys. Chem. A,
     2023, XX, XXXX-XXXX. DOI: 10.1021/acs.jpca.3c04382
   
   for DFT-D4:
   * E. Caldeweyher, C. Bannwarth and S. Grimme, J. Chem. Phys., 2017,
     147, 034112. DOI: 10.1063/1.4993215
   * E. Caldeweyher, S. Ehlert, A. Hansen, H. Neugebauer, S. Spicher,
     C. Bannwarth and S. Grimme, J. Chem. Phys., 2019, 150, 154122.
     DOI: 10.1063/1.5090222
   * E. Caldeweyher, J.-M. Mewes, S. Ehlert and S. Grimme, Phys. Chem. Chem. Phys.
     2020, 22, 8499-8512. DOI: 10.1039/D0CP00502A
   
   for sTDA-xTB:
   * S. Grimme and C. Bannwarth, J. Chem. Phys., 2016, 145, 054103.
     DOI: 10.1063/1.4959605
   
   in the mass-spec context:
   * V. Asgeirsson, C. Bauer and S. Grimme, Chem. Sci., 2017, 8, 4879.
     DOI: 10.1039/c7sc00601b
   * J. Koopman and S. Grimme, ACS Omega 2019, 4, 12, 15120-15133.
     DOI: 10.1021/acsomega.9b02011
   
   for metadynamics refer to:
   * S. Grimme, J. Chem. Theory Comput., 2019, 155, 2847-2862
     DOI: 10.1021/acs.jctc.9b00143
   
   for SPH calculations refer to:
   * S. Spicher and S. Grimme, J. Chem. Theory Comput., 2021, 17, 1701-1714
     DOI: 10.1021/acs.jctc.0c01306
   
   for ONIOM refer to:
   * C. Plett, A. Katbashev, S. Ehlert, S. Grimme, M. Bursch,
     Phys. Chem. Chem. Phys., 2023, 25, 17860-17868. DOI: 10.1039/D3CP02178E
   
   for DIPRO refer to:
   * J. Kohn, N. Gildemeister, S. Grimme, D. Fazzi, A. Hansen,
     J. Chem. Phys., 2023, just accepted.
   
   for PTB refer to:
   * S. Grimme, M. Mueller, A. Hansen, J. Chem. Phys., 2023, 158, 124111.
     DOI: 10.1063/5.0137838
   
   with help from (in alphabetical order)
   P. Atkinson, C. Bannwarth, F. Bohle, G. Brandenburg, E. Caldeweyher
   M. Checinski, S. Dohm, S. Ehlert, S. Ehrlich, I. Gerasimov, C. Hölzer
   A. Katbashev, J. Kohn, J. Koopman, C. Lavigne, S. Lehtola, F. März, M. Müller,
   F. Musil, H. Neugebauer, J. Pisarek, C. Plett, P. Pracht, F. Pultar,
   J. Seibert, P. Shushkov, S. Spicher, M. Stahn, M. Steiner, T. Strunk,
   J. Stückrath, T. Rose, and J. Unsleber
   
 * started run on 2025/04/09 at 05:21:02.520     
   ID    Z sym.   atoms
    1    6 C      1, 2, 7, 8, 10, 15, 16, 18, 19
    2    8 O      3, 6, 14, 17
    3   15 P      4, 12
    4   16 S      5, 9, 11, 13
    5    1 H      20-41

           -------------------------------------------------
          |                Calculation Setup                |
           -------------------------------------------------

          program call               : /srv/scratch/z5358697/.xtb/bin/xtb gas.coord --gfn2 --sp --chrg 0 --norestart --parallel 1
          hostname                   : k163
          coordinate file            : gas.coord
          omp threads                :                     1


           -------------------------------------------------
          |                 G F N 2 - x T B                 |
           -------------------------------------------------

        Reference                      10.1021/acs.jctc.8b01176
      * Hamiltonian:
        H0-scaling (s, p, d)           1.850000    2.230000    2.230000
        zeta-weighting                 0.500000
      * Dispersion:
        s8                             2.700000
        a1                             0.520000
        a2                             5.000000
        s9                             5.000000
      * Repulsion:
        kExp                           1.500000    1.000000
        rExp                           1.000000
      * Coulomb:
        alpha                          2.000000
        third order                    shell-resolved
        anisotropic                    true
        a3                             3.000000
        a5                             4.000000
        cn-shift                       1.200000
        cn-exp                         4.000000
        max-rad                        5.000000


          ...................................................
          :                      SETUP                      :
          :.................................................:
          :  # basis functions                 134          :
          :  # atomic orbitals                 128          :
          :  # shells                           66          :
          :  # electrons                       116          :
          :  max. iterations                   250          :
          :  Hamiltonian                  GFN2-xTB          :
          :  restarted?                      false          :
          :  GBSA solvation                  false          :
          :  PC potential                    false          :
          :  electronic temp.          300.0000000     K    :
          :  accuracy                    1.0000000          :
          :  -> integral cutoff          0.2500000E+02      :
          :  -> integral neglect         0.1000000E-07      :
          :  -> SCF convergence          0.1000000E-05 Eh   :
          :  -> wf. convergence          0.1000000E-03 e    :
          :  Broyden damping             0.4000000          :
          :  net charge                          0          :
          :  unpaired electrons                  0          :
          ...................................................

 iter      E             dE          RMSdq      gap      omega  full diag
   1    -65.3799701 -0.653800E+02  0.623E+00    4.31       0.0  T
   2    -65.5487340 -0.168764E+00  0.393E+00    3.24       1.0  T
   3    -65.5684556 -0.197216E-01  0.142E+00    3.05       1.0  T
   4    -65.5710942 -0.263861E-02  0.609E-01    2.81       1.0  T
   5    -65.5719249 -0.830694E-03  0.252E-01    2.91       1.0  T
   6    -65.5720545 -0.129586E-03  0.130E-01    2.89       1.0  T
   7    -65.5721066 -0.520867E-04  0.484E-02    2.91       1.0  T
   8    -65.5721164 -0.985493E-05  0.229E-02    2.91       1.0  T
   9    -65.5721183 -0.186567E-05  0.563E-03    2.91       2.8  T
  10    -65.5721184 -0.118703E-06  0.238E-03    2.91       6.6  T
  11    -65.5721184 -0.556705E-08  0.499E-04    2.91      31.3  T
  12    -65.5721184 -0.754184E-09  0.218E-04    2.91      71.7  T

   *** convergence criteria satisfied after 12 iterations ***

         #    Occupation            Energy/Eh            Energy/eV
      -------------------------------------------------------------
         1        2.0000           -0.7638934             -20.7866
       ...           ...                  ...                  ...
        52        2.0000           -0.4390471             -11.9471
        53        2.0000           -0.4151319             -11.2963
        54        2.0000           -0.4070097             -11.0753
        55        2.0000           -0.3754527             -10.2166
        56        2.0000           -0.3743723             -10.1872
        57        2.0000           -0.3723742             -10.1328
        58        2.0000           -0.3713434             -10.1048 (HOMO)
        59                         -0.2644538              -7.1962 (LUMO)
        60                         -0.2479352              -6.7467
        61                         -0.2124225              -5.7803
        62                         -0.1768349              -4.8119
        63                         -0.1680364              -4.5725
       ...                                ...                  ...
       128                          1.2792884              34.8112
      -------------------------------------------------------------
                  HL-Gap            0.1068896 Eh            2.9086 eV
             Fermi-level           -0.3178986 Eh           -8.6505 eV

 SCC (total)                   0 d,  0 h,  0 min,  0.055 sec
 SCC setup                      ...        0 min,  0.000 sec (  0.473%)
 Dispersion                     ...        0 min,  0.000 sec (  0.561%)
 classical contributions        ...        0 min,  0.000 sec (  0.101%)
 integral evaluation            ...        0 min,  0.008 sec ( 14.475%)
 iterations                     ...        0 min,  0.025 sec ( 45.184%)
 molecular gradient             ...        0 min,  0.021 sec ( 38.751%)
 printout                       ...        0 min,  0.000 sec (  0.426%)

         :::::::::::::::::::::::::::::::::::::::::::::::::::::
         ::                     SUMMARY                     ::
         :::::::::::::::::::::::::::::::::::::::::::::::::::::
         :: total energy             -65.009030163847 Eh    ::
         :: gradient norm              0.038479113703 Eh/a0 ::
         :: HOMO-LUMO gap              2.908614229365 eV    ::
         ::.................................................::
         :: SCC energy               -65.571134737823 Eh    ::
         :: -> isotropic ES            0.103433755512 Eh    ::
         :: -> anisotropic ES         -0.010206081773 Eh    ::
         :: -> anisotropic XC          0.031427471407 Eh    ::
         :: -> dispersion             -0.052010254210 Eh    ::
         :: repulsion energy           0.562104573976 Eh    ::
         :: add. restraining           0.000000000000 Eh    ::
         :: total charge              -0.000000000000 e     ::
         :::::::::::::::::::::::::::::::::::::::::::::::::::::

           -------------------------------------------------
          |                Property Printout                |
           -------------------------------------------------

    * Orbital Energies and Occupations

         #    Occupation            Energy/Eh            Energy/eV
      -------------------------------------------------------------
         1        2.0000           -0.7638934             -20.7866
       ...           ...                  ...                  ...
        46        2.0000           -0.4745351             -12.9128
        47        2.0000           -0.4694886             -12.7754
        48        2.0000           -0.4663275             -12.6894
        49        2.0000           -0.4656098             -12.6699
        50        2.0000           -0.4638059             -12.6208
        51        2.0000           -0.4462705             -12.1436
        52        2.0000           -0.4390471             -11.9471
        53        2.0000           -0.4151319             -11.2963
        54        2.0000           -0.4070097             -11.0753
        55        2.0000           -0.3754527             -10.2166
        56        2.0000           -0.3743723             -10.1872
        57        2.0000           -0.3723742             -10.1328
        58        2.0000           -0.3713434             -10.1048 (HOMO)
        59                         -0.2644538              -7.1962 (LUMO)
        60                         -0.2479352              -6.7467
        61                         -0.2124225              -5.7803
        62                         -0.1768349              -4.8119
        63                         -0.1680364              -4.5725
        64                         -0.1659787              -4.5165
        65                         -0.1554427              -4.2298
        66                         -0.1531095              -4.1663
        67                         -0.1217022              -3.3117
        68                         -0.1144062              -3.1132
        69                         -0.0501308              -1.3641
       ...                                ...                  ...
       128                          1.2792884              34.8112
      -------------------------------------------------------------
                  HL-Gap            0.1068896 Eh            2.9086 eV
             Fermi-level           -0.3178986 Eh           -8.6505 eV

     #   Z          covCN         q      C6AA      α(0)
     1   6 C        3.751    -0.116    22.783     6.807
     2   6 C        3.849     0.084    19.153     6.225
     3   8 O        1.654    -0.227    17.787     5.693
     4  15 P        3.815     0.361   145.182    21.644
     5  16 S        0.926    -0.372   155.307    21.079
     6   8 O        1.655    -0.247    18.117     5.746
     7   6 C        3.824     0.082    19.208     6.237
     8   6 C        3.751    -0.118    22.812     6.811
     9  16 S        2.025    -0.177   148.572    20.515
    10   6 C        3.833     0.050    19.720     6.318
    11  16 S        2.025    -0.181   148.711    20.525
    12  15 P        3.816     0.366   145.005    21.631
    13  16 S        0.926    -0.373   155.364    21.083
    14   8 O        1.654    -0.229    17.810     5.697
    15   6 C        3.844     0.083    19.175     6.229
    16   6 C        3.751    -0.117    22.808     6.811
    17   8 O        1.655    -0.245    18.077     5.740
    18   6 C        3.830     0.081    19.211     6.236
    19   6 C        3.751    -0.118    22.820     6.812
    20   1 H        0.925     0.056     2.245     2.343
    21   1 H        0.925     0.065     2.146     2.291
    22   1 H        0.925     0.069     2.093     2.263
    23   1 H        0.924     0.060     2.199     2.319
    24   1 H        0.924     0.049     2.333     2.389
    25   1 H        0.924     0.056     2.246     2.344
    26   1 H        0.924     0.068     2.107     2.270
    27   1 H        0.925     0.060     2.197     2.318
    28   1 H        0.925     0.069     2.092     2.262
    29   1 H        0.925     0.066     2.126     2.280
    30   1 H        0.925     0.086     1.914     2.164
    31   1 H        0.925     0.086     1.918     2.166
    32   1 H        0.924     0.053     2.282     2.362
    33   1 H        0.924     0.063     2.168     2.303
    34   1 H        0.925     0.057     2.238     2.340
    35   1 H        0.925     0.066     2.130     2.282
    36   1 H        0.925     0.065     2.141     2.288
    37   1 H        0.924     0.056     2.247     2.344
    38   1 H        0.924     0.067     2.117     2.275
    39   1 H        0.925     0.066     2.125     2.279
    40   1 H        0.925     0.060     2.197     2.318
    41   1 H        0.925     0.069     2.093     2.262

 Mol. C6AA /au·bohr⁶  :      26540.328698
 Mol. C8AA /au·bohr⁸  :     863463.376497
 Mol. α(0) /au        :        258.299429


Wiberg/Mayer (AO) data.
largest (>0.10) Wiberg bond orders for each atom

 ---------------------------------------------------------------------------
     #   Z sym  total        # sym  WBO       # sym  WBO       # sym  WBO
 ---------------------------------------------------------------------------
     1   6 C    3.988 --     2 C    1.021    22 H    0.983    21 H    0.980
                            20 H    0.980
     2   6 C    3.915 --     1 C    1.021    23 H    0.973    24 H    0.966
                             3 O    0.890
     3   8 O    2.426 --     4 P    1.347     2 C    0.890
     4  15 P    5.299 --     5 S    1.570     3 O    1.347     6 O    1.313
                             9 S    0.942
     5  16 S    1.914 --     4 P    1.570     9 S    0.145
     6   8 O    2.413 --     4 P    1.313     7 C    0.902
     7   6 C    3.909 --     8 C    1.022    25 H    0.970    26 H    0.969
                             6 O    0.902
     8   6 C    3.989 --     7 C    1.022    28 H    0.982    27 H    0.980
                            29 H    0.974
     9  16 S    2.274 --    10 C    0.990     4 P    0.942     5 S    0.145
    10   6 C    3.954 --    11 S    0.990     9 S    0.990    31 H    0.948
                            30 H    0.947
    11  16 S    2.273 --    10 C    0.990    12 P    0.939    13 S    0.145
    12  15 P    5.296 --    13 S    1.571    14 O    1.346    17 O    1.311
                            11 S    0.939
    13  16 S    1.915 --    12 P    1.571    11 S    0.145
    14   8 O    2.428 --    12 P    1.346    15 C    0.892
    15   6 C    3.915 --    16 C    1.020    33 H    0.971    32 H    0.966
                            14 O    0.892
    16   6 C    3.989 --    15 C    1.020    35 H    0.984    36 H    0.981
                            34 H    0.980
    17   8 O    2.414 --    12 P    1.311    18 C    0.903
    18   6 C    3.910 --    19 C    1.022    37 H    0.970    38 H    0.969
                            17 O    0.903
    19   6 C    3.988 --    18 C    1.022    41 H    0.982    40 H    0.980
                            39 H    0.974
    20   1 H    0.995 --     1 C    0.980
    21   1 H    0.996 --     1 C    0.980
    22   1 H    0.995 --     1 C    0.983
    23   1 H    0.996 --     2 C    0.973
    24   1 H    0.998 --     2 C    0.966
    25   1 H    0.997 --     7 C    0.970
    26   1 H    0.995 --     7 C    0.969
    27   1 H    0.996 --     8 C    0.980
    28   1 H    0.995 --     8 C    0.982
    29   1 H    0.996 --     8 C    0.974
    30   1 H    0.992 --    10 C    0.947
    31   1 H    0.993 --    10 C    0.948
    32   1 H    0.997 --    15 C    0.966
    33   1 H    0.996 --    15 C    0.971
    34   1 H    0.995 --    16 C    0.980
    35   1 H    0.995 --    16 C    0.984
    36   1 H    0.996 --    16 C    0.981
    37   1 H    0.997 --    18 C    0.970
    38   1 H    0.995 --    18 C    0.969
    39   1 H    0.996 --    19 C    0.974
    40   1 H    0.996 --    19 C    0.980
    41   1 H    0.995 --    19 C    0.982
 ---------------------------------------------------------------------------

Topologies differ in total number of bonds
Writing topology from bond orders to xtbtopo.mol

molecular dipole:
                 x           y           z       tot (Debye)
 q only:       -0.468       1.242       2.465
   full:       -0.381       1.591       2.952       8.579
molecular quadrupole (traceless):
                xx          xy          yy          xz          yz          zz
 q only:        8.112      27.580      -7.502     -17.163       6.762      -0.610
  q+dip:       11.719      28.046      -8.277     -14.664       5.913      -3.442
   full:       12.040      28.541      -8.431     -15.413       5.885      -3.609


           -------------------------------------------------
          | TOTAL ENERGY              -65.009030163847 Eh   |
          | GRADIENT NORM               0.038479113703 Eh/α |
          | HOMO-LUMO GAP               2.908614229365 eV   |
           -------------------------------------------------

------------------------------------------------------------------------
 * finished run on 2025/04/09 at 05:21:02.610     
------------------------------------------------------------------------
 total:
 * wall-time:     0 d,  0 h,  0 min,  0.090 sec
 *  cpu-time:     0 d,  0 h,  0 min,  0.068 sec
 * ratio c/w:     0.754 speedup
 SCF:
 * wall-time:     0 d,  0 h,  0 min,  0.055 sec
 *  cpu-time:     0 d,  0 h,  0 min,  0.055 sec
 * ratio c/w:     0.990 speedup

