      -----------------------------------------------------------      
     |                   =====================                   |     
     |                           x T B                           |     
     |                   =====================                   |     
     |                         S. Grimme                         |     
     |          Mulliken Center for Theoretical Chemistry        |     
     |                    University of Bonn                     |     
      -----------------------------------------------------------      

   * xtb version 6.7.1 (edcfbbe) compiled by 'albert@albert-system' on 2024-07-22

   xtb is free software: you can redistribute it and/or modify it under
   the terms of the GNU Lesser General Public License as published by
   the Free Software Foundation, either version 3 of the License, or
   (at your option) any later version.
   
   xtb is distributed in the hope that it will be useful,
   but WITHOUT ANY WARRANTY; without even the implied warranty of
   MERCHANTABILITY or FITNESS FOR A PARTICULAR PURPOSE.  See the
   GNU Lesser General Public License for more details.
   
   Cite this work as:
   * C. Bannwarth, E. Caldeweyher, S. Ehlert, A. Hansen, P. Pracht,
     J. Seibert, S. Spicher, S. Grimme, WIREs Comput. Mol. Sci., 2020, 11,
     e01493. DOI: 10.1002/wcms.1493
   
   for GFN2-xTB:
   * C. Bannwarth, S. Ehlert and S. Grimme., J. Chem. Theory Comput., 2019,
     15, 1652-1671. DOI: 10.1021/acs.jctc.8b01176
   for GFN1-xTB:
   * S. Grimme, C. Bannwarth, P. Shushkov, J. Chem. Theory Comput., 2017,
     13, 1989-2009. DOI: 10.1021/acs.jctc.7b00118
   for GFN0-xTB:
   * P. Pracht, E. Caldeweyher, S. Ehlert, S. Grimme, ChemRxiv, 2019, preprint.
     DOI: 10.26434/chemrxiv.8326202.v1
   for GFN-FF:
   * S. Spicher and S. Grimme, Angew. Chem. Int. Ed., 2020, 59, 15665-15673.
     DOI: 10.1002/anie.202004239
   
   for ALPB and GBSA implicit solvation:
   * S. Ehlert, M. Stahn, S. Spicher, S. Grimme, J. Chem. Theory Comput.,
     2021, 17, 4250-4261. DOI: 10.1021/acs.jctc.1c00471
   
   for ddCOSMO and CPCM-X implicit solvation:
   * M. Stahn, S. Ehlert, S. Grimme, J. Phys. Chem. A,
     2023, XX, XXXX-XXXX. DOI: 10.1021/acs.jpca.3c04382
   
   for DFT-D4:
   * E. Caldeweyher, C. Bannwarth and S. Grimme, J. Chem. Phys., 2017,
     147, 034112. DOI: 10.1063/1.4993215
   * E. Caldeweyher, S. Ehlert, A. Hansen, H. Neugebauer, S. Spicher,
     C. Bannwarth and S. Grimme, J. Chem. Phys., 2019, 150, 154122.
     DOI: 10.1063/1.5090222
   * E. Caldeweyher, J.-M. Mewes, S. Ehlert and S. Grimme, Phys. Chem. Chem. Phys.
     2020, 22, 8499-8512. DOI: 10.1039/D0CP00502A
   
   for sTDA-xTB:
   * S. Grimme and C. Bannwarth, J. Chem. Phys., 2016, 145, 054103.
     DOI: 10.1063/1.4959605
   
   in the mass-spec context:
   * V. Asgeirsson, C. Bauer and S. Grimme, Chem. Sci., 2017, 8, 4879.
     DOI: 10.1039/c7sc00601b
   * J. Koopman and S. Grimme, ACS Omega 2019, 4, 12, 15120-15133.
     DOI: 10.1021/acsomega.9b02011
   
   for metadynamics refer to:
   * S. Grimme, J. Chem. Theory Comput., 2019, 155, 2847-2862
     DOI: 10.1021/acs.jctc.9b00143
   
   for SPH calculations refer to:
   * S. Spicher and S. Grimme, J. Chem. Theory Comput., 2021, 17, 1701-1714
     DOI: 10.1021/acs.jctc.0c01306
   
   for ONIOM refer to:
   * C. Plett, A. Katbashev, S. Ehlert, S. Grimme, M. Bursch,
     Phys. Chem. Chem. Phys., 2023, 25, 17860-17868. DOI: 10.1039/D3CP02178E
   
   for DIPRO refer to:
   * J. Kohn, N. Gildemeister, S. Grimme, D. Fazzi, A. Hansen,
     J. Chem. Phys., 2023, just accepted.
   
   for PTB refer to:
   * S. Grimme, M. Mueller, A. Hansen, J. Chem. Phys., 2023, 158, 124111.
     DOI: 10.1063/5.0137838
   
   with help from (in alphabetical order)
   P. Atkinson, C. Bannwarth, F. Bohle, G. Brandenburg, E. Caldeweyher
   M. Checinski, S. Dohm, S. Ehlert, S. Ehrlich, I. Gerasimov, C. Hölzer
   A. Katbashev, J. Kohn, J. Koopman, C. Lavigne, S. Lehtola, F. März, M. Müller,
   F. Musil, H. Neugebauer, J. Pisarek, C. Plett, P. Pracht, F. Pultar,
   J. Seibert, P. Shushkov, S. Spicher, M. Stahn, M. Steiner, T. Strunk,
   J. Stückrath, T. Rose, and J. Unsleber
   
 * started run on 2025/04/09 at 05:21:19.586     
   ID    Z sym.   atoms
    1    6 C      1, 2, 7, 8, 10, 15, 16, 18, 19
    2    8 O      3, 6, 14, 17
    3   15 P      4, 12
    4   16 S      5, 9, 11, 13
    5    1 H      20-41

           -------------------------------------------------
          |                Calculation Setup                |
           -------------------------------------------------

          program call               : /srv/scratch/z5358697/.xtb/bin/xtb solv.coord --gfn2 --sp --chrg 0 --norestart --parallel 1 --alpb water reference -I xtb_sp-xcontrol-inp
          hostname                   : k163
          coordinate file            : solv.coord
          omp threads                :                     1


           -------------------------------------------------
          |                 G F N 2 - x T B                 |
           -------------------------------------------------

        Reference                      10.1021/acs.jctc.8b01176
      * Hamiltonian:
        H0-scaling (s, p, d)           1.850000    2.230000    2.230000
        zeta-weighting                 0.500000
      * Dispersion:
        s8                             2.700000
        a1                             0.520000
        a2                             5.000000
        s9                             5.000000
      * Repulsion:
        kExp                           1.500000    1.000000
        rExp                           1.000000
      * Coulomb:
        alpha                          2.000000
        third order                    shell-resolved
        anisotropic                    true
        a3                             3.000000
        a5                             4.000000
        cn-shift                       1.200000
        cn-exp                         4.000000
        max-rad                        5.000000

      * Solvation model:               ALPB
        Solvent                        water
        Parameter file                 internal GFN2-xTB/ALPB
        Dielectric constant                8.0200E+01
        Reference state                gsolv=reference [X=1]
        Free energy shift                  2.8945E-03 Eh       1.8164E+00 kcal/mol
        Temperature                        2.9815E+02 K
        Density                            1.0000E+00 kg/L
        Solvent mass                       1.8000E+01 g/mol
        Interaction kernel             P16
        Born radius scaling (c1)           1.4744E+00
        Born radii integrator          GBOBC
        Born offset                        0.0000E+00 a0       0.0000E+00 AA
        H-bond correction              true
        Ion screening                  false
        Surface tension                    1.0000E-05 Eh       1.5569E+01 dyn/cm
        Grid points                               974 per atom

          ...................................................
          :                      SETUP                      :
          :.................................................:
          :  # basis functions                 134          :
          :  # atomic orbitals                 128          :
          :  # shells                           66          :
          :  # electrons                       116          :
          :  max. iterations                   250          :
          :  Hamiltonian                  GFN2-xTB          :
          :  restarted?                      false          :
          :  GBSA solvation                   true          :
          :  PC potential                    false          :
          :  electronic temp.          300.0000000     K    :
          :  accuracy                    1.0000000          :
          :  -> integral cutoff          0.2500000E+02      :
          :  -> integral neglect         0.1000000E-07      :
          :  -> SCF convergence          0.1000000E-05 Eh   :
          :  -> wf. convergence          0.1000000E-03 e    :
          :  Broyden damping             0.4000000          :
          :  net charge                          0          :
          :  unpaired electrons                  0          :
          ...................................................

 iter      E             dE          RMSdq      gap      omega  full diag
   1    -65.4413480 -0.654413E+02  0.636E+00    4.47       0.0  T
   2    -65.5613520 -0.120004E+00  0.356E+00    3.68       1.0  T
   3    -65.5807328 -0.193808E-01  0.111E+00    3.26       1.0  T
   4    -65.5834423 -0.270945E-02  0.489E-01    3.22       1.0  T
   5    -65.5841368 -0.694539E-03  0.255E-01    3.28       1.0  T
   6    -65.5843240 -0.187243E-03  0.109E-01    3.28       1.0  T
   7    -65.5843680 -0.439970E-04  0.391E-02    3.29       1.0  T
   8    -65.5843722 -0.417490E-05  0.174E-02    3.29       1.0  T
   9    -65.5843731 -0.850392E-06  0.601E-03    3.29       2.6  T
  10    -65.5843731 -0.229654E-07  0.267E-03    3.29       5.9  T
  11    -65.5843731 -0.376546E-07  0.878E-04    3.29      17.8  T
  12    -65.5843731 -0.147016E-08  0.428E-04    3.29      36.5  T

   *** convergence criteria satisfied after 12 iterations ***

         #    Occupation            Energy/Eh            Energy/eV
      -------------------------------------------------------------
         1        2.0000           -0.7669906             -20.8709
       ...           ...                  ...                  ...
        52        2.0000           -0.4478215             -12.1858
        53        2.0000           -0.4208014             -11.4506
        54        2.0000           -0.4140366             -11.2665
        55        2.0000           -0.3985426             -10.8449
        56        2.0000           -0.3976075             -10.8195
        57        2.0000           -0.3926600             -10.6848
        58        2.0000           -0.3878084             -10.5528 (HOMO)
        59                         -0.2667667              -7.2591 (LUMO)
        60                         -0.2585444              -7.0353
        61                         -0.2237026              -6.0873
        62                         -0.1965474              -5.3483
        63                         -0.1833206              -4.9884
       ...                                ...                  ...
       128                          1.3310900              36.2208
      -------------------------------------------------------------
                  HL-Gap            0.1210417 Eh            3.2937 eV
             Fermi-level           -0.3272876 Eh           -8.9059 eV

 SCC (total)                   0 d,  0 h,  0 min,  0.053 sec
 SCC setup                      ...        0 min,  0.002 sec (  4.618%)
 Dispersion                     ...        0 min,  0.000 sec (  0.573%)
 classical contributions        ...        0 min,  0.000 sec (  0.107%)
 integral evaluation            ...        0 min,  0.011 sec ( 19.863%)
 iterations                     ...        0 min,  0.020 sec ( 38.093%)
 molecular gradient             ...        0 min,  0.019 sec ( 36.328%)
 printout                       ...        0 min,  0.000 sec (  0.390%)

         :::::::::::::::::::::::::::::::::::::::::::::::::::::
         ::                     SUMMARY                     ::
         :::::::::::::::::::::::::::::::::::::::::::::::::::::
         :: total energy             -65.023571695380 Eh    ::
         :: total w/o Gsasa/hb       -65.026248377979 Eh    ::
         :: gradient norm              0.000052748422 Eh/a0 ::
         :: HOMO-LUMO gap              3.293712706740 eV    ::
         ::.................................................::
         :: SCC energy               -65.583521886648 Eh    ::
         :: -> isotropic ES            0.129243133730 Eh    ::
         :: -> anisotropic ES         -0.019724179238 Eh    ::
         :: -> anisotropic XC          0.029321179693 Eh    ::
         :: -> dispersion             -0.054112925517 Eh    ::
         :: -> Gsolv                  -0.022814540756 Eh    ::
         ::    -> Gelec               -0.025491223355 Eh    ::
         ::    -> Gsasa                0.003985230200 Eh    ::
         ::    -> Ghb                 -0.004203096761 Eh    ::
         ::    -> Gshift               0.002894549160 Eh    ::
         :: repulsion energy           0.559950191268 Eh    ::
         :: add. restraining           0.000000000000 Eh    ::
         :: total charge               0.000000000000 e     ::
         :::::::::::::::::::::::::::::::::::::::::::::::::::::

           -------------------------------------------------
          |                Property Printout                |
           -------------------------------------------------

    * Orbital Energies and Occupations

         #    Occupation            Energy/Eh            Energy/eV
      -------------------------------------------------------------
         1        2.0000           -0.7669906             -20.8709
       ...           ...                  ...                  ...
        46        2.0000           -0.4635655             -12.6143
        47        2.0000           -0.4609229             -12.5424
        48        2.0000           -0.4595786             -12.5058
        49        2.0000           -0.4535393             -12.3414
        50        2.0000           -0.4524782             -12.3126
        51        2.0000           -0.4501350             -12.2488
        52        2.0000           -0.4478215             -12.1858
        53        2.0000           -0.4208014             -11.4506
        54        2.0000           -0.4140366             -11.2665
        55        2.0000           -0.3985426             -10.8449
        56        2.0000           -0.3976075             -10.8195
        57        2.0000           -0.3926600             -10.6848
        58        2.0000           -0.3878084             -10.5528 (HOMO)
        59                         -0.2667667              -7.2591 (LUMO)
        60                         -0.2585444              -7.0353
        61                         -0.2237026              -6.0873
        62                         -0.1965474              -5.3483
        63                         -0.1833206              -4.9884
        64                         -0.1798704              -4.8945
        65                         -0.1752205              -4.7680
        66                         -0.1532345              -4.1697
        67                         -0.1315154              -3.5787
        68                         -0.1224285              -3.3314
        69                         -0.0496080              -1.3499
       ...                                ...                  ...
       128                          1.3310900              36.2208
      -------------------------------------------------------------
                  HL-Gap            0.1210417 Eh            3.2937 eV
             Fermi-level           -0.3272876 Eh           -8.9059 eV

     #   Z          covCN         q      C6AA      α(0)
     1   6 C        3.751    -0.136    23.188     6.867
     2   6 C        3.846     0.075    19.305     6.250
     3   8 O        1.654    -0.270    18.498     5.806
     4  15 P        3.834     0.367   144.964    21.628
     5  16 S        0.927    -0.468   159.885    21.387
     6   8 O        1.656    -0.271    18.503     5.807
     7   6 C        3.861     0.085    19.142     6.222
     8   6 C        3.751    -0.124    22.943     6.831
     9  16 S        1.994    -0.105   145.427    20.297
    10   6 C        3.799     0.027    20.121     6.387
    11  16 S        1.994    -0.139   146.892    20.399
    12  15 P        3.823     0.366   144.988    21.630
    13  16 S        0.927    -0.461   159.527    21.363
    14   8 O        1.655    -0.269    18.472     5.802
    15   6 C        3.857     0.080    19.211     6.234
    16   6 C        3.751    -0.129    23.031     6.844
    17   8 O        1.655    -0.261    18.344     5.782
    18   6 C        3.839     0.079    19.243     6.240
    19   6 C        3.751    -0.117    22.804     6.810
    20   1 H        0.925     0.090     1.882     2.145
    21   1 H        0.925     0.067     2.124     2.279
    22   1 H        0.925     0.072     2.067     2.248
    23   1 H        0.924     0.087     1.906     2.159
    24   1 H        0.924     0.068     2.102     2.267
    25   1 H        0.924     0.054     2.270     2.356
    26   1 H        0.924     0.086     1.916     2.164
    27   1 H        0.925     0.081     1.967     2.193
    28   1 H        0.925     0.071     2.079     2.255
    29   1 H        0.925     0.052     2.296     2.370
    30   1 H        0.924     0.091     1.868     2.137
    31   1 H        0.926     0.137     1.481     1.903
    32   1 H        0.924     0.086     1.920     2.167
    33   1 H        0.924     0.056     2.245     2.343
    34   1 H        0.925     0.060     2.196     2.318
    35   1 H        0.925     0.070     2.086     2.259
    36   1 H        0.925     0.083     1.947     2.182
    37   1 H        0.924     0.089     1.890     2.150
    38   1 H        0.924     0.072     2.063     2.246
    39   1 H        0.925     0.056     2.246     2.344
    40   1 H        0.925     0.058     2.219     2.330
    41   1 H        0.925     0.085     1.932     2.174

 Mol. C6AA /au·bohr⁶  :      26399.004600
 Mol. C8AA /au·bohr⁸  :     862452.037564
 Mol. α(0) /au        :        257.573622


Wiberg/Mayer (AO) data.
largest (>0.10) Wiberg bond orders for each atom

 ---------------------------------------------------------------------------
     #   Z sym  total        # sym  WBO       # sym  WBO       # sym  WBO
 ---------------------------------------------------------------------------
     1   6 C    3.984 --     2 C    1.022    22 H    0.983    21 H    0.976
                            20 H    0.974
     2   6 C    3.886 --     1 C    1.022    24 H    0.967    23 H    0.967
                             3 O    0.868
     3   8 O    2.388 --     4 P    1.332     2 C    0.868
     4  15 P    5.318 --     5 S    1.540     3 O    1.332     6 O    1.286
                             9 S    1.014
     5  16 S    1.850 --     4 P    1.540     9 S    0.128
     6   8 O    2.380 --     4 P    1.286     7 C    0.885
     7   6 C    3.896 --     8 C    1.022    25 H    0.965    26 H    0.965
                             6 O    0.885
     8   6 C    3.988 --     7 C    1.022    28 H    0.983    27 H    0.977
                            29 H    0.976
     9  16 S    2.314 --     4 P    1.014    10 C    0.986     5 S    0.128
    10   6 C    3.942 --     9 S    0.986    11 S    0.985    31 H    0.953
                            30 H    0.937
    11  16 S    2.307 --    12 P    1.014    10 C    0.985    13 S    0.142
    12  15 P    5.308 --    13 S    1.490    17 O    1.336    14 O    1.314
                            11 S    1.014
    13  16 S    1.859 --    12 P    1.490    11 S    0.142
    14   8 O    2.397 --    12 P    1.314    15 C    0.886
    15   6 C    3.890 --    16 C    1.020    33 H    0.969    32 H    0.967
                            14 O    0.886
    16   6 C    3.985 --    15 C    1.020    35 H    0.983    34 H    0.981
                            36 H    0.976
    17   8 O    2.399 --    12 P    1.336    18 C    0.869
    18   6 C    3.885 --    19 C    1.023    38 H    0.970    37 H    0.965
                            17 O    0.869
    19   6 C    3.988 --    18 C    1.023    40 H    0.983    41 H    0.976
                            39 H    0.975
    20   1 H    0.990 --     1 C    0.974
    21   1 H    0.996 --     1 C    0.976
    22   1 H    0.995 --     1 C    0.983
    23   1 H    0.992 --     2 C    0.967
    24   1 H    0.995 --     2 C    0.967
    25   1 H    0.997 --     7 C    0.965
    26   1 H    0.993 --     7 C    0.965
    27   1 H    0.992 --     8 C    0.977
    28   1 H    0.995 --     8 C    0.983
    29   1 H    0.997 --     8 C    0.976
    30   1 H    0.992 --    10 C    0.937
    31   1 H    0.981 --    10 C    0.953
    32   1 H    0.993 --    15 C    0.967
    33   1 H    0.997 --    15 C    0.969
    34   1 H    0.996 --    16 C    0.981
    35   1 H    0.995 --    16 C    0.983
    36   1 H    0.992 --    16 C    0.976
    37   1 H    0.992 --    18 C    0.965
    38   1 H    0.995 --    18 C    0.970
    39   1 H    0.997 --    19 C    0.975
    40   1 H    0.997 --    19 C    0.983
    41   1 H    0.992 --    19 C    0.976
 ---------------------------------------------------------------------------

Topologies differ in total number of bonds
Writing topology from bond orders to xtbtopo.mol

molecular dipole:
                 x           y           z       tot (Debye)
 q only:        0.319      -1.227       1.306
   full:        0.093      -0.818       1.211       3.722
molecular quadrupole (traceless):
                xx          xy          yy          xz          yz          zz
 q only:       35.856      -6.806     -11.082      -1.765       1.969     -24.774
  q+dip:       37.546      -2.648     -14.164       2.282      -2.236     -23.382
   full:       38.118      -3.602     -13.533       1.647      -1.119     -24.585


           -------------------------------------------------
          | TOTAL ENERGY              -65.023571695380 Eh   |
          | GRADIENT NORM               0.000052748422 Eh/α |
          | HOMO-LUMO GAP               3.293712706740 eV   |
           -------------------------------------------------

------------------------------------------------------------------------
 * finished run on 2025/04/09 at 05:21:19.690     
------------------------------------------------------------------------
 total:
 * wall-time:     0 d,  0 h,  0 min,  0.104 sec
 *  cpu-time:     0 d,  0 h,  0 min,  0.063 sec
 * ratio c/w:     0.607 speedup
 SCF:
 * wall-time:     0 d,  0 h,  0 min,  0.053 sec
 *  cpu-time:     0 d,  0 h,  0 min,  0.050 sec
 * ratio c/w:     0.932 speedup

