
                                 *****************
                                 * O   R   C   A *
                                 *****************

                                            #,                                       
                                            ###                                      
                                            ####                                     
                                            #####                                    
                                            ######                                   
                                           ########,                                 
                                     ,,################,,,,,                         
                               ,,#################################,,                 
                          ,,##########################################,,             
                       ,#########################################, ''#####,          
                    ,#############################################,,   '####,        
                  ,##################################################,,,,####,       
                ,###########''''           ''''###############################       
              ,#####''   ,,,,##########,,,,          '''####'''          '####       
            ,##' ,,,,###########################,,,                        '##       
           ' ,,###''''                  '''############,,,                           
         ,,##''                                '''############,,,,        ,,,,,,###''
      ,#''                                            '''#######################'''  
     '                                                          ''''####''''         
             ,#######,   #######,   ,#######,      ##                                
            ,#'     '#,  ##    ##  ,#'     '#,    #''#        ,####,   ,####,        
            ##       ##  ##   ,#'  ##            #'  '#       #'       #'  '#        
            ##       ##  #######   ##           ,######,      #####,   #    #        
            '#,     ,#'  ##    ##  '#,     ,#' ,#      #,     #,   #   #,  ,#        
             '#######'   ##     ##  '#######'  #'      '#     '####' # '####'        



                #########################################################
                #                        -***-                          #
                #          Department of theory and spectroscopy        #
                #                                                       #
                #                      Frank Neese                      #
                #                                                       #
                #     Directorship, Architecture, Infrastructure        #
                #                    SHARK, DRIVERS                     #
                #        Core code/Algorithms in most modules           #
                #                                                       #
                #        Max Planck Institute fuer Kohlenforschung      #
                #                Kaiser Wilhelm Platz 1                 #
                #                 D-45470 Muelheim/Ruhr                 #
                #                      Germany                          #
                #                                                       #
                #                  All rights reserved                  #
                #                        -***-                          #
                #########################################################


                         Program Version 6.0.0  -   RELEASE  -


 With contributions from (in alphabetic order):
   Daniel Aravena         : Magnetic Suceptibility
   Michael Atanasov       : Ab Initio Ligand Field Theory (pilot matlab implementation)
   Alexander A. Auer      : GIAO ZORA, VPT2 properties, NMR spectrum
   Ute Becker             : All parallelization in ORCA, NUMFREQ, NUMCALC
   Giovanni Bistoni       : ED, misc. LED, open-shell LED, HFLD
   Martin Brehm           : Molecular dynamics
   Dmytro Bykov           : pre 5.0 version of the SCF Hessian
   Marcos Casanova-Páez   : Triplet and SCS-CIS(D). UHF-(DLPNO)-IP/EA/STEOM-CCSD. UHF-CVS-IP/STEOM-CCSD
   Vijay G. Chilkuri      : MRCI spin determinant printing, contributions to CSF-ICE
   Pauline Colinet        : FMM embedding
   Dipayan Datta          : RHF DLPNO-CCSD density
   Achintya Kumar Dutta   : EOM-CC, STEOM-CC
   Nicolas Foglia         : Exact transition moments, OPA infrastructure, MCD improvements
   Dmitry Ganyushin       : Spin-Orbit,Spin-Spin,Magnetic field MRCI
   Miquel Garcia          : C-PCM and meta-GGA Hessian, CCSD/C-PCM, Gaussian charge scheme
   Tiago L. C. Gouveia    : GS-ROHF, GS-ROCIS
   Yang Guo               : DLPNO-NEVPT2, F12-NEVPT2, CIM, IAO-localization
   Andreas Hansen         : Spin unrestricted coupled pair/coupled cluster methods
   Ingolf Harden          : AUTO-CI MPn and infrastructure 
   Benjamin Helmich-Paris : MC-RPA, TRAH-(SCF,CASSCF), AVAS, COSX integrals, SCF dyn. polar.
   Lee Huntington         : MR-EOM, pCC
   Robert Izsak           : Overlap fitted RIJCOSX, COSX-SCS-MP3, EOM
   Riya Kayal             : Wick's Theorem for AUTO-CI, AUTO-CI UHF-CCSDT
   Emily Kempfer          : AUTO-CI, RHF CISDT and CCSDT
   Christian Kollmar      : KDIIS, OOCD, Brueckner-CCSD(T), CCSD density, CASPT2, CASPT2-K, improved NEVPT2
   Axel Koslowski         : Symmetry handling
   Simone Kossmann        : Meta GGA functionals, TD-DFT gradient, OOMP2, (MP2 Hessian; deprecated post 5.0)
   Lucas Lang             : DCDCAS
   Marvin Lechner         : AUTO-CI (C++ implementation), FIC-MRCC
   Spencer Leger          : CASSCF response
   Dagmar Lenk            : GEPOL surface, SMD, ORCA-2-JSON
   Dimitrios Liakos       : Extrapolation schemes; Compound Job, initial MDCI parallelization
   Dimitrios Manganas     : Further ROCIS development; embedding schemes. LFT, Crystal Embedding
   Dimitrios Pantazis     : SARC Basis sets
   Anastasios Papadopoulos: AUTO-CI, single reference methods and gradients
   Taras Petrenko         : pre 6.0 DFT Hessian and TD-DFT gradient, (ASA, deprecated), ECA, 1-Electron XAS/XES, NRVS
   Peter Pinski           : DLPNO-MP2, DLPNO-MP2 Gradient
   Christoph Reimann      : Effective Core Potentials
   Marius Retegan         : Local ZFS, SOC
   Christoph Riplinger    : Optimizer, TS searches, QM/MM, DLPNO-CCSD(T), (RO)-DLPNO pert. Triples
   Michael Roemelt        : Original ROCIS implementation
   Masaaki Saitow         : Open-shell DLPNO-CCSD energy and density
   Barbara Sandhoefer     : DKH picture change effects
   Kantharuban Sivalingam : CASSCF convergence/infrastructure, NEVPT2 and variants, FIC-MRCI
   Bernardo de Souza      : ESD, SOC TD-DFT
   Georgi Stoychev        : AutoAux, RI-MP2 NMR, DLPNO-MP2 response, X2C
   Van Anh Tran           : RI-MP2 g-tensors
   Willem Van den Heuvel  : Paramagnetic NMR
   Zikuan Wang            : NOTCH, Electric field optimization 
   Frank Wennmohs         : Technical directorship and infrastructure
   Hang Xu                : AUTO-CI-Response properties 


 We gratefully acknowledge several colleagues who have allowed us to
 interface, adapt or use parts of their codes:
   Stefan Grimme, W. Hujo, H. Kruse, P. Pracht,  : VdW corrections, initial TS optimization,
                  C. Bannwarth, S. Ehlert,         DFT functionals, gCP, sTDA/sTD-DF
                  L. Wittmann, M. Mueller
   Ed Valeev, F. Pavosevic, A. Kumar             : LibInt (2-el integral package), F12 methods
   Garnet Chan, S. Sharma, J. Yang, R. Olivares  : DMRG
   Ulf Ekstrom                                   : XCFun DFT Library
   Mihaly Kallay                                 : mrcc  (arbitrary order and MRCC methods)
   Frank Weinhold                                : gennbo (NPA and NBO analysis)
   Simon Mueller                                 : openCOSMO-RS
   Christopher J. Cramer and Donald G. Truhlar   : smd solvation model
   Lars Goerigk                                  : TD-DFT with DH, B97 family of functionals
   V. Asgeirsson, H. Jonsson                     : NEB implementation
   FAccTs GmbH                                   : IRC, NEB, NEB-TS, DLPNO-Multilevel, CI-OPT
                                                   MM, QMMM, 2- and 3-layer-ONIOM, Crystal-QMMM,
                                                   LR-CPCM, SF, NACMEs, symmetry and pop. for TD-DFT,
                                                   nearIR, NL-DFT gradient (VV10), updates on ESD,
                                                   ML-optimized integration grids, MBIS, APM,
                                                   GOAT, DOCKER, SOLVATOR, interface openCOSMO-RS
   S Lehtola, MJT Oliveira, MAL Marques          : LibXC Library
   Liviu Ungur et al                             : ANISO software


 Your calculation uses the libint2 library for the computation of 2-el integrals
 For citations please refer to: http://libint.valeyev.net

 Your ORCA version has been built with support for libXC version: 6.2.2
 For citations please refer to: https://libxc.gitlab.io

 This ORCA versions uses:
   CBLAS   interface :  Fast vector & matrix operations
   LAPACKE interface :  Fast linear algebra routines
   SCALAPACK package :  Parallel linear algebra routines
   Shared memory     :  Shared parallel matrices
   BLAS/LAPACK       :  OpenBLAS 0.3.27  USE64BITINT DYNAMIC_ARCH NO_AFFINITY SapphireRapids SINGLE_THREADED
        Core in use  :  SapphireRapids
   Copyright (c) 2011-2014, The OpenBLAS Project


Your calculation utilizes the geometrical counterpoise correction gCP
Please cite in your paper:
H.Kruse, S. Grimme J.Chem.Phys., 136, (2012), 154101 
   

Your calculation utilizes the atom-pairwise dispersion correction
based on EEQ partial charges (D4)


================================================================================

----- Orbital basis set information -----
Your calculation utilizes the basis: def2-SV(P)
   F. Weigend and R. Ahlrichs, Phys. Chem. Chem. Phys. 7, 3297 (2005).

----- AuxJ basis set information -----
Your calculation utilizes the auxiliary basis: def2/J
   F. Weigend, Phys. Chem. Chem. Phys. 8, 1057 (2006).

================================================================================
                                        WARNINGS
                       Please study these warnings very carefully!
================================================================================


================================================================================
                                       INPUT FILE
================================================================================
NAME = sp.inp
|  1> ! pbe def2-sv(p) def2/J RI DEFGRID1 loosescf d4 GCP(DFT/SV(P)) printgap
|  2> %output
|  3>     printlevel normal
|  4> end
|  5> * xyz 0 1
|  6> C 0.7214388586 0.5579652741 3.5837823384
|  7> C 2.0134474688 0.5431844701 2.792956608
|  8> O 1.6977009367 0.6548426575 1.3831882342
|  9> P 2.4483659243 -0.1883418278 0.2735802761
| 10> S 2.9745810415 -2.0086189729 0.7919235748
| 11> O 3.6593430633 0.7754228919 -0.0903715818
| 12> C 4.811041558 0.3229375381 -0.8236985489
| 13> C 4.4700754344 -0.02826906 -2.2574009377
| 14> S 1.0836163928 0.0031211691 -1.3236559163
| 15> C 0.0044496711 -1.3624752704 -0.8049212948
| 16> S -1.1208038628 -0.9019539496 0.529035085
| 17> P -2.38908542 0.3311711406 -0.6675254986
| 18> S -2.6468645549 -0.2550949077 -2.5165746771
| 19> O -1.777061985 1.7825002344 -0.620117671
| 20> C -1.1938191166 2.4618651491 0.5168882069
| 21> C -2.1275666175 2.5242199577 1.7063174045
| 22> O -3.7245393943 0.4725594039 0.1815555455
| 23> C -4.818426469 -0.4530524133 0.0583916423
| 24> C -4.466624771 -1.8330033491 0.5756515032
| 25> H 0.9530916468 0.4548771741 4.6388880969
| 26> H 0.1920609281 1.4917070541 3.4212744546
| 27> H 0.0858529636 -0.2680253825 3.2737920184
| 28> H 2.5644739013 -0.3892494203 2.9550820225
| 29> H 2.6528995377 1.3910164442 3.0460108817
| 30> H 5.5045542038 1.1628612742 -0.7672364613
| 31> H 5.2311503369 -0.544620548 -0.304861628
| 32> H 3.9569765348 0.8007577225 -2.7387728303
| 33> H 5.3823947505 -0.2525390235 -2.8007135804
| 34> H 3.8205875947 -0.9027303708 -2.2827503803
| 35> H 0.6168265804 -2.189517204 -0.4439319256
| 36> H -0.5778137624 -1.6483520725 -1.6817545172
| 37> H -0.2583301696 1.9575524742 0.77534344
| 38> H -0.97419357 3.4553312722 0.1222460419
| 39> H -2.2904533887 1.5278117688 2.1118154479
| 40> H -1.685613968 3.1549264357 2.4720057842
| 41> H -3.0852652797 2.9431004184 1.4084080529
| 42> H -5.6140194568 0.00664068 0.6463306222
| 43> H -5.1135540771 -0.5014981383 -0.9944292917
| 44> H -5.3590134013 -2.4505822252 0.5822851239
| 45> H -3.7243498441 -2.2962752294 -0.0724148011
| 46> H -4.0635735286 -1.7699867926 1.5831129558
| 47> *
| 48> 
| 49>                          ****END OF INPUT****
================================================================================

                       ****************************
                       * Single Point Calculation *
                       ****************************

---------------------------------
CARTESIAN COORDINATES (ANGSTROEM)
---------------------------------
  C      0.721439    0.557965    3.583782
  C      2.013447    0.543184    2.792957
  O      1.697701    0.654843    1.383188
  P      2.448366   -0.188342    0.273580
  S      2.974581   -2.008619    0.791924
  O      3.659343    0.775423   -0.090372
  C      4.811042    0.322938   -0.823699
  C      4.470075   -0.028269   -2.257401
  S      1.083616    0.003121   -1.323656
  C      0.004450   -1.362475   -0.804921
  S     -1.120804   -0.901954    0.529035
  P     -2.389085    0.331171   -0.667525
  S     -2.646865   -0.255095   -2.516575
  O     -1.777062    1.782500   -0.620118
  C     -1.193819    2.461865    0.516888
  C     -2.127567    2.524220    1.706317
  O     -3.724539    0.472559    0.181556
  C     -4.818426   -0.453052    0.058392
  C     -4.466625   -1.833003    0.575652
  H      0.953092    0.454877    4.638888
  H      0.192061    1.491707    3.421274
  H      0.085853   -0.268025    3.273792
  H      2.564474   -0.389249    2.955082
  H      2.652900    1.391016    3.046011
  H      5.504554    1.162861   -0.767236
  H      5.231150   -0.544621   -0.304862
  H      3.956977    0.800758   -2.738773
  H      5.382395   -0.252539   -2.800714
  H      3.820588   -0.902730   -2.282750
  H      0.616827   -2.189517   -0.443932
  H     -0.577814   -1.648352   -1.681755
  H     -0.258330    1.957552    0.775343
  H     -0.974194    3.455331    0.122246
  H     -2.290453    1.527812    2.111815
  H     -1.685614    3.154926    2.472006
  H     -3.085265    2.943100    1.408408
  H     -5.614019    0.006641    0.646331
  H     -5.113554   -0.501498   -0.994429
  H     -5.359013   -2.450582    0.582285
  H     -3.724350   -2.296275   -0.072415
  H     -4.063574   -1.769987    1.583113

----------------------------
CARTESIAN COORDINATES (A.U.)
----------------------------
  NO LB      ZA    FRAG     MASS         X           Y           Z
   0 C     6.0000    0    12.011    1.363322    1.054402    6.772367
   1 C     6.0000    0    12.011    3.804864    1.026470    5.277923
   2 O     8.0000    0    15.999    3.208190    1.237473    2.613847
   3 P    15.0000    0    30.974    4.626741   -0.355914    0.516992
   4 S    16.0000    0    32.060    5.621144   -3.795740    1.496519
   5 O     8.0000    0    15.999    6.915156    1.465337   -0.170778
   6 C     6.0000    0    12.011    9.091551    0.610264   -1.556565
   7 C     6.0000    0    12.011    8.447218   -0.053421   -4.265870
   8 S    16.0000    0    32.060    2.047738    0.005898   -2.501347
   9 C     6.0000    0    12.011    0.008409   -2.574705   -1.521081
  10 S    16.0000    0    32.060   -2.118012   -1.704446    0.999731
  11 P    15.0000    0    30.974   -4.514717    0.625823   -1.261440
  12 S    16.0000    0    32.060   -5.001849   -0.482060   -4.755637
  13 O     8.0000    0    15.999   -3.358160    3.368437   -1.171853
  14 C     6.0000    0    12.011   -2.255991    4.652251    0.976777
  15 C     6.0000    0    12.011   -4.020518    4.770084    3.224473
  16 O     8.0000    0    15.999   -7.038359    0.893008    0.343090
  17 C     6.0000    0    12.011   -9.105506   -0.856145    0.110344
  18 C     6.0000    0    12.011   -8.440698   -3.463874    1.087824
  19 H     1.0000    0     1.008    1.801082    0.859593    8.766228
  20 H     1.0000    0     1.008    0.362943    2.818918    6.465272
  21 H     1.0000    0     1.008    0.162239   -0.506495    6.186570
  22 H     1.0000    0     1.008    4.846153   -0.735575    5.584296
  23 H     1.0000    0     1.008    5.013254    2.628640    5.756126
  24 H     1.0000    0     1.008   10.402100    2.197489   -1.449867
  25 H     1.0000    0     1.008    9.885442   -1.029184   -0.576105
  26 H     1.0000    0     1.008    7.477602    1.513213   -5.175531
  27 H     1.0000    0     1.008   10.171252   -0.477230   -5.292582
  28 H     1.0000    0     1.008    7.219864   -1.705913   -4.313773
  29 H     1.0000    0     1.008    1.165633   -4.137588   -0.838910
  30 H     1.0000    0     1.008   -1.091910   -3.114934   -3.178055
  31 H     1.0000    0     1.008   -0.488173    3.699238    1.465187
  32 H     1.0000    0     1.008   -1.840959    6.529630    0.231012
  33 H     1.0000    0     1.008   -4.328330    2.887146    3.990753
  34 H     1.0000    0     1.008   -3.185349    5.961947    4.671414
  35 H     1.0000    0     1.008   -5.830306    5.561654    2.661506
  36 H     1.0000    0     1.008  -10.608959    0.012549    1.221388
  37 H     1.0000    0     1.008   -9.663217   -0.947694   -1.879199
  38 H     1.0000    0     1.008  -10.127068   -4.630929    1.100359
  39 H     1.0000    0     1.008   -7.038001   -4.339331   -0.136844
  40 H     1.0000    0     1.008   -7.679041   -3.344790    2.991650

--------------------------------
INTERNAL COORDINATES (ANGSTROEM)
--------------------------------
 C      0   0   0     0.000000000000     0.00000000     0.00000000
 C      1   0   0     1.514896054804     0.00000000     0.00000000
 O      2   1   0     1.449003206040   108.74159730     0.00000000
 P      3   2   1     1.582936454991   122.52158026   220.97540020
 S      4   3   2     1.964431472424   115.82663313    35.13184413
 O      4   3   2     1.589895915143   101.46516346   270.23624613
 C      6   4   3     1.438374380603   122.40364995   164.70512922
 C      7   6   4     1.514960894427   112.03687676    67.74631951
 S      4   3   2     2.109588305150   100.11373007   162.16316723
 C      9   4   3     1.816188331738    95.73388630   275.80185157
 S     10   9   4     1.804914132494   112.93503126    79.17934491
 P     11  10   9     2.135624692365    95.93934708    72.09398269
 S     12  11  10     1.956819058138   115.76425265    34.56290472
 O     12  11  10     1.575809736490   106.51630580   270.86069455
 C     14  12  11     1.447235743493   127.77034151   320.24070149
 C     15  14  12     1.513444526138   112.83883604   304.80030353
 O     12  11  10     1.588825534136   104.54414819   162.01256986
 C     17  12  11     1.438233470403   122.42881454   270.46343213
 C     18  17  12     1.515119395833   112.35368320    67.58068701
 H      1   2   3     1.085144383141   108.94060241   178.90056526
 H      1   2   3     1.085598230155   110.25125076   298.90198518
 H      1   2   3     1.087347227525   110.01642014    59.15651319
 H      2   1   3     1.095147359631   111.10936479   240.50184390
 H      2   1   3     1.091675075361   111.77632777   117.97520400
 H      7   6   4     1.090696859666   103.91437431   188.55671755
 H      7   6   4     1.094687247279   108.35810285   305.50395900
 H      8   7   6     1.087324600043   110.39060822    53.01496146
 H      8   7   6     1.085270555564   109.41934342   173.49891148
 H      8   7   6     1.089568553256   110.01317499   293.07493205
 H     10   9   4     1.090558189026   109.33586755   319.67612110
 H     10   9   4     1.090684533618   106.53937670   199.00898221
 H     15  14  12     1.093741263527   108.29431662    68.28968873
 H     15  14  12     1.091307819482   102.96379396   184.14403486
 H     16  15  14     1.088021158958   110.33675290    67.38344997
 H     16  15  14     1.085997928451   109.08424668   187.42687212
 H     16  15  14     1.086921133159   110.12624061   307.19153087
 H     18  17  12     1.090852046040   103.73019798   188.33554049
 H     18  17  12     1.094476684266   108.41843270   305.12728122
 H     19  18  17     1.085267312977   109.23533101   172.53149892
 H     19  18  17     1.088844725822   110.03572701   291.89423785
 H     19  18  17     1.086922246009   110.47126303    52.14260908

---------------------------
INTERNAL COORDINATES (A.U.)
---------------------------
 C      0   0   0     0.000000000000     0.00000000     0.00000000
 C      1   0   0     2.862738664937     0.00000000     0.00000000
 O      2   1   0     2.738219226589   108.74159730     0.00000000
 P      3   2   1     2.991316387332   122.52158026   220.97540020
 S      4   3   2     3.712237491737   115.82663313    35.13184413
 O      4   3   2     3.004467861060   101.46516346   270.23624613
 C      6   4   3     2.718133657387   122.40364995   164.70512922
 C      7   6   4     2.862861194067   112.03687676    67.74631951
 S      4   3   2     3.986544152056   100.11373007   162.16316723
 C      9   4   3     3.432098554609    95.73388630   275.80185157
 S     10   9   4     3.410793405657   112.93503126    79.17934491
 P     11  10   9     4.035745793410    95.93934708    72.09398269
 S     12  11  10     3.697852113518   115.76425265    34.56290472
 O     12  11  10     2.977848841133   106.51630580   270.86069455
 C     14  12  11     2.734879206424   127.77034151   320.24070149
 C     15  14  12     2.859995673282   112.83883604   304.80030353
 O     12  11  10     3.002445134098   104.54414819   162.01256986
 C     17  12  11     2.717867375701   122.42881454   270.46343213
 C     18  17  12     2.863160718317   112.35368320    67.58068701
 H      1   2   3     2.050625699899   108.94060241   178.90056526
 H      1   2   3     2.051483346462   110.25125076   298.90198518
 H      1   2   3     2.054788472502   110.01642014    59.15651319
 H      2   1   3     2.069528585990   111.10936479   240.50184390
 H      2   1   3     2.062966919660   111.77632777   117.97520400
 H      7   6   4     2.061118359896   103.91437431   188.55671755
 H      7   6   4     2.068659099653   108.35810285   305.50395900
 H      8   7   6     2.054745712756   110.39060822    53.01496146
 H      8   7   6     2.050864131225   109.41934342   173.49891148
 H      8   7   6     2.058986169787   110.01317499   293.07493205
 H     10   9   4     2.060856310365   109.33586755   319.67612110
 H     10   9   4     2.061095067042   106.53937670   199.00898221
 H     15  14  12     2.066871449434   108.29431662    68.28968873
 H     15  14  12     2.062272906628   102.96379396   184.14403486
 H     16  15  14     2.056062018342   110.33675290    67.38344997
 H     16  15  14     2.052238666777   109.08424668   187.42687212
 H     16  15  14     2.053983270841   110.12624061   307.19153087
 H     18  17  12     2.061411619644   103.73019798   188.33554049
 H     18  17  12     2.068261193225   108.41843270   305.12728122
 H     19  18  17     2.050858003624   109.23533101   172.53149892
 H     19  18  17     2.057618334168   110.03572701   291.89423785
 H     19  18  17     2.053985373823   110.47126303    52.14260908

---------------------
BASIS SET INFORMATION
---------------------
There are 5 groups of distinct atoms

 Group   1 Type C   : 7s4p1d contracted to 3s2p1d pattern {511/31/1}
 Group   2 Type O   : 7s4p1d contracted to 3s2p1d pattern {511/31/1}
 Group   3 Type P   : 10s7p1d contracted to 4s3p1d pattern {5311/511/1}
 Group   4 Type S   : 10s7p1d contracted to 4s3p1d pattern {5311/511/1}
 Group   5 Type H   : 4s contracted to 2s pattern {31}

Atom   0C    basis set group =>   1
Atom   1C    basis set group =>   1
Atom   2O    basis set group =>   2
Atom   3P    basis set group =>   3
Atom   4S    basis set group =>   4
Atom   5O    basis set group =>   2
Atom   6C    basis set group =>   1
Atom   7C    basis set group =>   1
Atom   8S    basis set group =>   4
Atom   9C    basis set group =>   1
Atom  10S    basis set group =>   4
Atom  11P    basis set group =>   3
Atom  12S    basis set group =>   4
Atom  13O    basis set group =>   2
Atom  14C    basis set group =>   1
Atom  15C    basis set group =>   1
Atom  16O    basis set group =>   2
Atom  17C    basis set group =>   1
Atom  18C    basis set group =>   1
Atom  19H    basis set group =>   5
Atom  20H    basis set group =>   5
Atom  21H    basis set group =>   5
Atom  22H    basis set group =>   5
Atom  23H    basis set group =>   5
Atom  24H    basis set group =>   5
Atom  25H    basis set group =>   5
Atom  26H    basis set group =>   5
Atom  27H    basis set group =>   5
Atom  28H    basis set group =>   5
Atom  29H    basis set group =>   5
Atom  30H    basis set group =>   5
Atom  31H    basis set group =>   5
Atom  32H    basis set group =>   5
Atom  33H    basis set group =>   5
Atom  34H    basis set group =>   5
Atom  35H    basis set group =>   5
Atom  36H    basis set group =>   5
Atom  37H    basis set group =>   5
Atom  38H    basis set group =>   5
Atom  39H    basis set group =>   5
Atom  40H    basis set group =>   5
---------------------------------
AUXILIARY/J BASIS SET INFORMATION
---------------------------------
There are 5 groups of distinct atoms

 Group   1 Type C   : 12s5p4d2f1g contracted to 6s4p3d1f1g pattern {711111/2111/211/2/1}
 Group   2 Type O   : 12s5p4d2f1g contracted to 6s4p3d1f1g pattern {711111/2111/211/2/1}
 Group   3 Type P   : 14s5p5d2f1g contracted to 8s4p3d1f1g pattern {71111111/2111/311/2/1}
 Group   4 Type S   : 14s5p5d2f1g contracted to 8s4p3d1f1g pattern {71111111/2111/311/2/1}
 Group   5 Type H   : 5s2p1d contracted to 3s1p1d pattern {311/2/1}

Atom   0C    basis set group =>   1
Atom   1C    basis set group =>   1
Atom   2O    basis set group =>   2
Atom   3P    basis set group =>   3
Atom   4S    basis set group =>   4
Atom   5O    basis set group =>   2
Atom   6C    basis set group =>   1
Atom   7C    basis set group =>   1
Atom   8S    basis set group =>   4
Atom   9C    basis set group =>   1
Atom  10S    basis set group =>   4
Atom  11P    basis set group =>   3
Atom  12S    basis set group =>   4
Atom  13O    basis set group =>   2
Atom  14C    basis set group =>   1
Atom  15C    basis set group =>   1
Atom  16O    basis set group =>   2
Atom  17C    basis set group =>   1
Atom  18C    basis set group =>   1
Atom  19H    basis set group =>   5
Atom  20H    basis set group =>   5
Atom  21H    basis set group =>   5
Atom  22H    basis set group =>   5
Atom  23H    basis set group =>   5
Atom  24H    basis set group =>   5
Atom  25H    basis set group =>   5
Atom  26H    basis set group =>   5
Atom  27H    basis set group =>   5
Atom  28H    basis set group =>   5
Atom  29H    basis set group =>   5
Atom  30H    basis set group =>   5
Atom  31H    basis set group =>   5
Atom  32H    basis set group =>   5
Atom  33H    basis set group =>   5
Atom  34H    basis set group =>   5
Atom  35H    basis set group =>   5
Atom  36H    basis set group =>   5
Atom  37H    basis set group =>   5
Atom  38H    basis set group =>   5
Atom  39H    basis set group =>   5
Atom  40H    basis set group =>   5
------------------------------------------------------------------------------
                             ORCA STARTUP CALCULATIONS
                           -- RI-GTO INTEGRALS CHOSEN --
------------------------------------------------------------------------------
------------------------------------------------------------------------------
                   ___                                                        
                  /   \      - P O W E R E D   B Y -                         
                 /     \                                                     
                 |  |  |   _    _      __       _____    __    __             
                 |  |  |  | |  | |    /  \     |  _  \  |  |  /  |          
                  \  \/   | |  | |   /    \    | | | |  |  | /  /          
                 / \  \   | |__| |  /  /\  \   | |_| |  |  |/  /          
                |  |  |   |  __  | /  /__\  \  |    /   |      \           
                |  |  |   | |  | | |   __   |  |    \   |  |\   \          
                \     /   | |  | | |  |  |  |  | |\  \  |  | \   \       
                 \___/    |_|  |_| |__|  |__|  |_| \__\ |__|  \__/        
                                                                              
                      - O R C A' S   B I G   F R I E N D -                    
                                      &                                       
                       - I N T E G R A L  F E E D E R -                       
                                                                              
 v1 FN, 2020, v2 2021, v3 2022-2024                                           
------------------------------------------------------------------------------


----------------------
SHARK INTEGRAL PACKAGE
----------------------

Number of atoms                             ...     41
Number of basis functions                   ...    334
Number of shells                            ...    170
Maximum angular momentum                    ...      2
Integral batch strategy                     ... SHARK/LIBINT Hybrid
RI-J (if used) integral strategy            ... SPLIT-RIJ (Revised 2003 algorithm where possible)
Printlevel                                  ...      1
Contraction scheme used                     ... SEGMENTED contraction
Prescreening option                         ... SCHWARTZ
   Thresh                                   ... 1.000e-09
   Tcut                                     ... 1.000e-10
   Tpresel                                  ... 1.000e-10 
Coulomb Range Separation                    ... NOT USED
Exchange Range Separation                   ... NOT USED
Multipole approximations                    ... NOT USED
Finite Nucleus Model                        ... NOT USED
CABS basis                                  ... NOT available
Auxiliary Coulomb fitting basis             ... AVAILABLE
   # of basis functions in Aux-J            ...   1185
   # of shells in Aux-J                     ...    407
   Maximum angular momentum in Aux-J        ...      4
Auxiliary J/K fitting basis                 ... NOT available
Auxiliary Correlation fitting basis         ... NOT available
Auxiliary 'external' fitting basis          ... NOT available

Checking pre-screening integrals            ... done (  0.0 sec) Dimension = 170
Check shell pair data                       ... done (  0.0 sec)
Shell pair information
Shell pair cut-off parameter TPreSel        ...   1.0e-10
Total number of shell pairs                 ...     14535
Shell pairs after pre-screening             ...     10360
Total number of primitive shell pairs       ...     62501
Primitive shell pairs kept                  ...     25648
          la=0 lb=0:   4022 shell pairs
          la=1 lb=0:   3506 shell pairs
          la=1 lb=1:    808 shell pairs
          la=2 lb=0:   1320 shell pairs
          la=2 lb=1:    596 shell pairs
          la=2 lb=2:    108 shell pairs

Calculating one electron integrals          ... done (  0.0 sec)
Calculating RI/J V-Matrix + Cholesky decomp.... done (  0.2 sec)
Calculating Nuclear repulsion               ... done (  0.0 sec) ENN=   2765.567443051037 Eh

Diagonalization of the overlap matrix:
Smallest eigenvalue                        ... 3.226e-03
Time for diagonalization                   ...    0.009 sec
Threshold for overlap eigenvalues          ... 1.000e-07
Number of eigenvalues below threshold      ... 0
Time for construction of square roots      ...    0.023 sec
Total time needed                          ...    0.043 sec

-------------------
DFT GRID GENERATION
-------------------

General Integration Accuracy     IntAcc      ... 4.159
Radial Grid Type                 RadialGrid  ... OptM3 with GC (2021)
Angular Grid (max. ang.)         AngularGrid ... 3 (Lebedev-194)
Angular grid pruning method      GridPruning ... 4 (adaptive)
Weight generation scheme         WeightScheme... mBecke (2022)
Basis function cutoff            BFCut       ... 1.0000e-10
Integration weight cutoff        WCut        ... 1.0000e-14
Partially contracted basis set               ... off
Rotationally invariant grid construction     ... off
Angular grids for H and He will be reduced by one unit

Total number of grid points                  ...    97378
Total number of batches                      ...     1540
Average number of points per batch           ...       63
Average number of grid points per atom       ...     2375
Initializing property integral containers    ... done (  0.0 sec)

SHARK setup successfully completed in   1.6 seconds

Maximum memory used throughout the entire STARTUP-calculation: 51.8 MB
-------------------------------------------------------------------------------
                                 ORCA GUESS
                   Start orbitals & Density for SCF / CASSCF
-------------------------------------------------------------------------------

------------
SCF SETTINGS
------------
Hamiltonian:
 Density Functional     Method          .... DFT(GTOs)
 Exchange Functional    Exchange        .... PBE
   PBE kappa parameter   XKappa         ....  0.804000
   PBE mue parameter    XMuePBE         ....  0.219520
 Correlation Functional Correlation     .... PBE
   PBE beta parameter  CBetaPBE         ....  0.066725
 LDA part of GGA corr.  LDAOpt          .... PW91-LDA
 Gradients option       PostSCFGGA      .... off
   NL short-range parameter             ....  6.400000
 RI-approximation to the Coulomb term is turned on
   Number of AuxJ basis functions       .... 1185


General Settings:
 Integral files         IntName         .... sp
 Hartree-Fock type      HFTyp           .... RHF
 Total Charge           Charge          ....    0
 Multiplicity           Mult            ....    1
 Number of Electrons    NEL             ....  202
 Basis Dimension        Dim             ....  334
 Nuclear Repulsion      ENuc            ....   2765.5674430510 Eh

Convergence Acceleration:
 AO-DIIS                CNVDIIS         .... on
   Start iteration      DIISMaxIt       ....    12
   Startup error        DIISStart       ....  0.200000
   # of expansion vecs  DIISMaxEq       ....     5
   Bias factor          DIISBfac        ....   1.050
   Max. coefficient     DIISMaxC        ....  10.000
 MO-DIIS                CNVKDIIS        .... off
 Trust-Rad. Augm. Hess. CNVTRAH         .... auto
   Auto Start mean grad. ratio tolernc. ....  1.125000
   Auto Start start iteration           ....    50
   Auto Start num. interpolation iter.  ....    10
   Max. Number of Micro iterations      ....    24
   Max. Number of Macro iterations      .... Maxiter - #DIIS iter
   Number of Davidson start vectors     ....     2
   Converg. threshold    (grad. norm)   ....   1.000e-04
   Grad. Scal. Fac. for Micro threshold ....   0.100
   Minimum threshold for Micro iter.    ....   1.000e-02
   NR start threshold (gradient norm)   ....   1.000e-04
   Initial trust radius                 ....   0.400
   Minimum AH scaling param. (alpha)    ....   1.000
   Maximum AH scaling param. (alpha)    .... 1000.000
   Quad. conv. algorithm                .... NR
   White noise on init. David. guess    .... on
   Maximum white noise                  ....   0.010
   Pseudo random numbers                .... off
   Inactive MOs                         .... canonical
   Orbital update algorithm             .... Taylor
   Preconditioner                       .... Diag
   Full preconditioner red. dimension   ....   250
 SOSCF                  CNVSOSCF        .... on
   Start iteration      SOSCFMaxIt      ....   150
   Startup grad/error   SOSCFStart      ....  0.003300
   Hessian update       SOSCFHessUp     .... L-BFGS
 Level Shifting         CNVShift        .... on
   Level shift para.    LevelShift      ....    0.2500
   Turn off err/grad.   ShiftErr        ....    0.0010
 Zerner damping         CNVZerner       .... off
 Static damping         CNVDamp         .... on
   Fraction old density DampFac         ....    0.7000
   Max. Damping (<1)    DampMax         ....    0.9800
   Min. Damping (>=0)   DampMin         ....    0.0000
   Turn off err/grad.   DampErr         ....    0.1000

SCF Procedure:
 Maximum # iterations   MaxIter         ....   125
 SCF integral mode      SCFMode         .... Direct
   Integral package                     .... SHARK and LIBINT hybrid scheme
 Reset frequency        DirectResetFreq ....    20
 Integral Threshold     Thresh          ....  1.000e-09 Eh
 Primitive CutOff       TCut            ....  1.000e-10 Eh

Convergence Tolerance:
 Convergence Check Mode ConvCheckMode   .... Total+1el-Energy
 Convergence forced     ConvForced      .... 0
 Energy Change          TolE            ....  1.000e-05 Eh
 1-El. energy change                    ....  1.000e-02 Eh
 Orbital Gradient       TolG            ....  1.000e-04
 Orbital Rotation angle TolX            ....  1.000e-04
 DIIS Error             TolErr          ....  5.000e-04

------------------------------
INITIAL GUESS: MODEL POTENTIAL
------------------------------
Loading Hartree-Fock densities                     ... done
Calculating cut-offs                               ... done
Initializing the effective Hamiltonian             ... done
Setting up the integral package (SHARK)            ... done
Starting the Coulomb interaction                   ... done (   0.6 sec)
Making the grid                                    ... done (   0.5 sec)
Mapping shells                                     ... done
Starting the XC term evaluation                    ... done (   0.4 sec)
  promolecular density results
     # of electrons  =    201.995437866
     EX              =   -230.001112172
     EC              =     -7.289198187
     EX+EC           =   -237.290310360
Transforming the Hamiltonian                       ... done (   0.0 sec)
Diagonalizing the Hamiltonian                      ... done (   0.0 sec)
Back transforming the eigenvectors                 ... done (   0.0 sec)
Now organizing SCF variables                       ... done
                      ------------------
                      INITIAL GUESS DONE (   1.6 sec)
                      ------------------
             **** ENERGY FILE WAS UPDATED (sp.en.tmp) ****
Finished Guess after   1.9 sec
Maximum memory used throughout the entire GUESS-calculation: 39.2 MB

-------------------------------------------------------------------------------------------
                                      ORCA LEAN-SCF
                              memory conserving SCF solver
-------------------------------------------------------------------------------------------

----------------------------------------D-I-I-S--------------------------------------------
Iteration    Energy (Eh)           Delta-E    RMSDP     MaxDP     DIISErr   Damp  Time(sec)
-------------------------------------------------------------------------------------------
               ***  Starting incremental Fock matrix formation  ***
    1    -2929.1995459306049270     0.00e+00  2.66e-03  1.38e-01  1.80e-01  0.700   2.3
    2    -2929.4223976576436144    -2.23e-01  1.72e-03  7.17e-02  7.51e-02  0.700   2.1
                               ***Turning on AO-DIIS***
    3    -2929.4934141059206922    -7.10e-02  6.68e-04  1.75e-02  2.17e-02  0.700   2.0
    4    -2929.5380744224253249    -4.47e-02  1.02e-03  3.38e-02  1.08e-02  0.000   2.0
    5    -2929.6420694287985498    -1.04e-01  3.01e-04  1.07e-02  8.02e-03  0.000   2.0
                              *** Initializing SOSCF ***
---------------------------------------S-O-S-C-F--------------------------------------
Iteration    Energy (Eh)           Delta-E    RMSDP     MaxDP     MaxGrad    Time(sec)
--------------------------------------------------------------------------------------
    6    -2929.6431169671764110    -1.05e-03  1.08e-04  3.18e-03  2.42e-03     1.9
               *** Restarting incremental Fock matrix formation ***
    7    -2929.6432509484479851    -1.34e-04  6.67e-05  1.26e-03  2.16e-04     2.2
    8    -2929.6432557322955290    -4.78e-06  2.51e-05  7.15e-04  1.29e-04     1.8
                 **** Energy Check signals convergence ****

               *****************************************************
               *                     SUCCESS                       *
               *           SCF CONVERGED AFTER   8 CYCLES          *
               *****************************************************

             **** ENERGY FILE WAS UPDATED (sp.en.tmp) ****

----------------
TOTAL SCF ENERGY
----------------

Total Energy       :      -2929.64325573229553 Eh          -79719.64586 eV

Components:
Nuclear Repulsion  :       2765.56744305103666 Eh           75254.91601 eV
Electronic Energy  :      -5695.21069878333219 Eh         -154974.56187 eV
One Electron Energy:      -9549.38182515319386 Eh         -259851.89008 eV
Two Electron Energy:       3854.17112636986212 Eh          104877.32821 eV

Virial components:
Potential Energy   :      -5848.92910010858213 Eh         -159157.45222 eV
Kinetic Energy     :       2919.28584437628706 Eh           79437.80637 eV
Virial Ratio       :          2.00354792641356

DFT components:
N(Alpha)           :      100.999428353408 electrons
N(Beta)            :      100.999428353408 electrons
N(Total)           :      201.998856706817 electrons
E(X)               :     -231.808161719803 Eh       
E(C)               :       -7.295838923809 Eh       
E(XC)              :     -239.104000643612 Eh       

---------------
SCF CONVERGENCE
---------------

  Last Energy change         ...    4.7838e-06  Tolerance :   1.0000e-05
  Last MAX-Density change    ...    7.1524e-04  Tolerance :   1.0000e-03
  Last RMS-Density change    ...    2.5050e-05  Tolerance :   1.0000e-04
  Last DIIS Error            ...    2.4248e-03  Tolerance :   5.0000e-04
  Last Orbital Gradient      ...    1.2928e-04  Tolerance :   1.0000e-04
  Last Orbital Rotation      ...    3.3997e-04  Tolerance :   1.0000e-04


----------------
ORBITAL ENERGIES
----------------

  NO   OCC          E(Eh)            E(eV) 
   0   2.0000     -88.045421     -2395.8377 
   1   2.0000     -88.043591     -2395.7879 
   2   2.0000     -87.993011     -2394.4116 
   3   2.0000     -87.984120     -2394.1696 
   4   2.0000     -76.430150     -2079.7701 
   5   2.0000     -76.426555     -2079.6723 
   6   2.0000     -18.796977      -511.4918 
   7   2.0000     -18.796275      -511.4726 
   8   2.0000     -18.794979      -511.4374 
   9   2.0000     -18.788719      -511.2670 
  10   2.0000      -9.956077      -270.9186 
  11   2.0000      -9.955183      -270.8943 
  12   2.0000      -9.953517      -270.8490 
  13   2.0000      -9.952763      -270.8284 
  14   2.0000      -9.950217      -270.7592 
  15   2.0000      -9.890092      -269.1231 
  16   2.0000      -9.887001      -269.0390 
  17   2.0000      -9.885752      -269.0050 
  18   2.0000      -9.884499      -268.9709 
  19   2.0000      -7.690481      -209.2686 
  20   2.0000      -7.688268      -209.2084 
  21   2.0000      -7.637910      -207.8381 
  22   2.0000      -7.629426      -207.6072 
  23   2.0000      -6.428041      -174.9159 
  24   2.0000      -6.423841      -174.8016 
  25   2.0000      -5.718291      -155.6026 
  26   2.0000      -5.715976      -155.5396 
  27   2.0000      -5.715152      -155.5172 
  28   2.0000      -5.712873      -155.4552 
  29   2.0000      -5.707341      -155.3047 
  30   2.0000      -5.705354      -155.2506 
  31   2.0000      -5.666650      -154.1974 
  32   2.0000      -5.658592      -153.9781 
  33   2.0000      -5.658366      -153.9720 
  34   2.0000      -5.658205      -153.9676 
  35   2.0000      -5.650004      -153.7444 
  36   2.0000      -5.649550      -153.7321 
  37   2.0000      -4.650547      -126.5478 
  38   2.0000      -4.649737      -126.5258 
  39   2.0000      -4.648534      -126.4930 
  40   2.0000      -4.646621      -126.4410 
  41   2.0000      -4.645647      -126.4145 
  42   2.0000      -4.644126      -126.3731 
  43   2.0000      -0.991189       -26.9716 
  44   2.0000      -0.986406       -26.8415 
  45   2.0000      -0.950089       -25.8532 
  46   2.0000      -0.944779       -25.7087 
  47   2.0000      -0.766503       -20.8576 
  48   2.0000      -0.724152       -19.7052 
  49   2.0000      -0.711609       -19.3639 
  50   2.0000      -0.690496       -18.7894 
  51   2.0000      -0.689982       -18.7754 
  52   2.0000      -0.679011       -18.4768 
  53   2.0000      -0.652495       -17.7553 
  54   2.0000      -0.639059       -17.3897 
  55   2.0000      -0.604037       -16.4367 
  56   2.0000      -0.595304       -16.1991 
  57   2.0000      -0.576506       -15.6875 
  58   2.0000      -0.575501       -15.6602 
  59   2.0000      -0.558605       -15.2004 
  60   2.0000      -0.508014       -13.8238 
  61   2.0000      -0.491870       -13.3845 
  62   2.0000      -0.476982       -12.9793 
  63   2.0000      -0.471148       -12.8206 
  64   2.0000      -0.460042       -12.5184 
  65   2.0000      -0.445747       -12.1294 
  66   2.0000      -0.443826       -12.0771 
  67   2.0000      -0.438270       -11.9259 
  68   2.0000      -0.432711       -11.7747 
  69   2.0000      -0.423729       -11.5303 
  70   2.0000      -0.411304       -11.1921 
  71   2.0000      -0.397380       -10.8133 
  72   2.0000      -0.395912       -10.7733 
  73   2.0000      -0.389958       -10.6113 
  74   2.0000      -0.381142       -10.3714 
  75   2.0000      -0.377744       -10.2789 
  76   2.0000      -0.367337        -9.9958 
  77   2.0000      -0.362369        -9.8605 
  78   2.0000      -0.358111        -9.7447 
  79   2.0000      -0.354316        -9.6414 
  80   2.0000      -0.351919        -9.5762 
  81   2.0000      -0.346169        -9.4197 
  82   2.0000      -0.344363        -9.3706 
  83   2.0000      -0.340778        -9.2730 
  84   2.0000      -0.337533        -9.1848 
  85   2.0000      -0.321394        -8.7456 
  86   2.0000      -0.312220        -8.4959 
  87   2.0000      -0.299410        -8.1474 
  88   2.0000      -0.293797        -7.9946 
  89   2.0000      -0.291232        -7.9248 
  90   2.0000      -0.290621        -7.9082 
  91   2.0000      -0.281848        -7.6695 
  92   2.0000      -0.269042        -7.3210 
  93   2.0000      -0.264802        -7.2056 
  94   2.0000      -0.261958        -7.1282 
  95   2.0000      -0.237416        -6.4604 
  96   2.0000      -0.220611        -6.0031 
  97   2.0000      -0.214272        -5.8306 
  98   2.0000      -0.207066        -5.6346 
  99   2.0000      -0.203179        -5.5288 
 100   2.0000      -0.200515        -5.4563 
 101   0.0000      -0.045363        -1.2344 
 102   0.0000      -0.028095        -0.7645 
 103   0.0000      -0.007318        -0.1991 
 104   0.0000      -0.000444        -0.0121 
 105   0.0000       0.013906         0.3784 
 106   0.0000       0.027055         0.7362 
 107   0.0000       0.031443         0.8556 
 108   0.0000       0.037396         1.0176 
 109   0.0000       0.039761         1.0820 
 110   0.0000       0.042974         1.1694 
 111   0.0000       0.047421         1.2904 
*Only the first 10 virtual orbitals were printed.

                    ********************************
                    * MULLIKEN POPULATION ANALYSIS *
                    ********************************

-----------------------
MULLIKEN ATOMIC CHARGES
-----------------------
   0 C :   -0.300588
   1 C :   -0.009605
   2 O :   -0.361636
   3 P :    0.610260
   4 S :   -0.335985
   5 O :   -0.373394
   6 C :   -0.003684
   7 C :   -0.320369
   8 S :   -0.056727
   9 C :   -0.375493
  10 S :   -0.100258
  11 P :    0.606395
  12 S :   -0.318410
  13 O :   -0.353567
  14 C :   -0.036077
  15 C :   -0.312262
  16 O :   -0.375965
  17 C :   -0.002074
  18 C :   -0.315380
  19 H :    0.111815
  20 H :    0.120218
  21 H :    0.129717
  22 H :    0.109085
  23 H :    0.105373
  24 H :    0.106466
  25 H :    0.112352
  26 H :    0.121181
  27 H :    0.115229
  28 H :    0.129645
  29 H :    0.191882
  30 H :    0.197707
  31 H :    0.144238
  32 H :    0.106820
  33 H :    0.118258
  34 H :    0.116658
  35 H :    0.121686
  36 H :    0.104713
  37 H :    0.115162
  38 H :    0.113873
  39 H :    0.127818
  40 H :    0.114924
Sum of atomic charges:    0.0000000

--------------------------------
MULLIKEN REDUCED ORBITAL CHARGES
--------------------------------
  0 C s       :     3.101932  s :     3.101932
      pz      :     1.039165  p :     3.170823
      px      :     1.033678
      py      :     1.097980
      dz2     :     0.008182  d :     0.027833
      dxz     :     0.004485
      dyz     :     0.001653
      dx2y2   :     0.003659
      dxy     :     0.009855

  1 C s       :     3.075394  s :     3.075394
      pz      :     0.709399  p :     2.875093
      px      :     1.075074
      py      :     1.090620
      dz2     :     0.021224  d :     0.059118
      dxz     :     0.012775
      dyz     :     0.009167
      dx2y2   :     0.003711
      dxy     :     0.012241

  2 O s       :     3.759750  s :     3.759750
      pz      :     1.246327  p :     4.588969
      px      :     1.676022
      py      :     1.666620
      dz2     :     0.002587  d :     0.012917
      dxz     :     0.003527
      dyz     :     0.003001
      dx2y2   :     0.001753
      dxy     :     0.002049

  3 P s       :     5.211866  s :     5.211866
      pz      :     2.889372  p :     8.591316
      px      :     2.855102
      py      :     2.846843
      dz2     :     0.089645  d :     0.586557
      dxz     :     0.130457
      dyz     :     0.120302
      dx2y2   :     0.113772
      dxy     :     0.132381

  4 S s       :     5.922215  s :     5.922215
      pz      :     3.615378  p :    10.370739
      px      :     3.618260
      py      :     3.137101
      dz2     :     0.005922  d :     0.043031
      dxz     :     0.001810
      dyz     :     0.010577
      dx2y2   :     0.014062
      dxy     :     0.010659

  5 O s       :     3.756396  s :     3.756396
      pz      :     1.665282  p :     4.603908
      px      :     1.321825
      py      :     1.616802
      dz2     :     0.001917  d :     0.013091
      dxz     :     0.002079
      dyz     :     0.002268
      dx2y2   :     0.002279
      dxy     :     0.004547

  6 C s       :     3.075146  s :     3.075146
      pz      :     0.964731  p :     2.868145
      px      :     0.846412
      py      :     1.057003
      dz2     :     0.012294  d :     0.060393
      dxz     :     0.015070
      dyz     :     0.009897
      dx2y2   :     0.007806
      dxy     :     0.015325

  7 C s       :     3.111342  s :     3.111342
      pz      :     1.010840  p :     3.181060
      px      :     1.077211
      py      :     1.093010
      dz2     :     0.006028  d :     0.027967
      dxz     :     0.005845
      dyz     :     0.005436
      dx2y2   :     0.003198
      dxy     :     0.007460

  8 S s       :     5.884822  s :     5.884822
      pz      :     3.431646  p :    10.095769
      px      :     3.242435
      py      :     3.421688
      dz2     :     0.011679  d :     0.076136
      dxz     :     0.022944
      dyz     :     0.011846
      dx2y2   :     0.012222
      dxy     :     0.017445

  9 C s       :     3.227082  s :     3.227082
      pz      :     1.049979  p :     3.108289
      px      :     1.011144
      py      :     1.047166
      dz2     :     0.006323  d :     0.040121
      dxz     :     0.011736
      dyz     :     0.006614
      dx2y2   :     0.005713
      dxy     :     0.009734

 10 S s       :     5.881911  s :     5.881911
      pz      :     3.296389  p :    10.143292
      px      :     3.276199
      py      :     3.570704
      dz2     :     0.013834  d :     0.075055
      dxz     :     0.026769
      dyz     :     0.014869
      dx2y2   :     0.007180
      dxy     :     0.012403

 11 P s       :     5.209816  s :     5.209816
      pz      :     2.899099  p :     8.594222
      px      :     2.845028
      py      :     2.850094
      dz2     :     0.110379  d :     0.589567
      dxz     :     0.133617
      dyz     :     0.104411
      dx2y2   :     0.121881
      dxy     :     0.119278

 12 S s       :     5.917379  s :     5.917379
      pz      :     3.068104  p :    10.358548
      px      :     3.654888
      py      :     3.635556
      dz2     :     0.019048  d :     0.042483
      dxz     :     0.009153
      dyz     :     0.011931
      dx2y2   :     0.001117
      dxy     :     0.001234

 13 O s       :     3.747484  s :     3.747484
      pz      :     1.542998  p :     4.593222
      px      :     1.662701
      py      :     1.387523
      dz2     :     0.003248  d :     0.012861
      dxz     :     0.001920
      dyz     :     0.002565
      dx2y2   :     0.002785
      dxy     :     0.002343

 14 C s       :     3.094131  s :     3.094131
      pz      :     0.842097  p :     2.882471
      px      :     1.036205
      py      :     1.004169
      dz2     :     0.014083  d :     0.059475
      dxz     :     0.013333
      dyz     :     0.014124
      dx2y2   :     0.009352
      dxy     :     0.008583

 15 C s       :     3.104491  s :     3.104491
      pz      :     1.040448  p :     3.179598
      px      :     1.058730
      py      :     1.080420
      dz2     :     0.004043  d :     0.028172
      dxz     :     0.006226
      dyz     :     0.007042
      dx2y2   :     0.005994
      dxy     :     0.004867

 16 O s       :     3.757721  s :     3.757721
      pz      :     1.682262  p :     4.605243
      px      :     1.300297
      py      :     1.622684
      dz2     :     0.002051  d :     0.013000
      dxz     :     0.003377
      dyz     :     0.001802
      dx2y2   :     0.002640
      dxy     :     0.003130

 17 C s       :     3.075880  s :     3.075880
      pz      :     1.087423  p :     2.865736
      px      :     0.865194
      py      :     0.913119
      dz2     :     0.011851  d :     0.060458
      dxz     :     0.010325
      dyz     :     0.007839
      dx2y2   :     0.011773
      dxy     :     0.018669

 18 C s       :     3.106688  s :     3.106688
      pz      :     1.077676  p :     3.180655
      px      :     1.078823
      py      :     1.024156
      dz2     :     0.006989  d :     0.028036
      dxz     :     0.005407
      dyz     :     0.004377
      dx2y2   :     0.003686
      dxy     :     0.007577

 19 H s       :     0.888185  s :     0.888185

 20 H s       :     0.879782  s :     0.879782

 21 H s       :     0.870283  s :     0.870283

 22 H s       :     0.890915  s :     0.890915

 23 H s       :     0.894627  s :     0.894627

 24 H s       :     0.893534  s :     0.893534

 25 H s       :     0.887648  s :     0.887648

 26 H s       :     0.878819  s :     0.878819

 27 H s       :     0.884771  s :     0.884771

 28 H s       :     0.870355  s :     0.870355

 29 H s       :     0.808118  s :     0.808118

 30 H s       :     0.802293  s :     0.802293

 31 H s       :     0.855762  s :     0.855762

 32 H s       :     0.893180  s :     0.893180

 33 H s       :     0.881742  s :     0.881742

 34 H s       :     0.883342  s :     0.883342

 35 H s       :     0.878314  s :     0.878314

 36 H s       :     0.895287  s :     0.895287

 37 H s       :     0.884838  s :     0.884838

 38 H s       :     0.886127  s :     0.886127

 39 H s       :     0.872182  s :     0.872182

 40 H s       :     0.885076  s :     0.885076


------------------------
MULLIKEN OVERLAP CHARGES
------------------------
B(  0-C ,  1-C ) :   0.8764 B(  0-C ,  2-O ) :  -0.1084 B(  0-C , 19-H ) :   0.7001 
B(  0-C , 20-H ) :   0.7490 B(  0-C , 21-H ) :   0.7401 B(  0-C , 22-H ) :  -0.0514 
B(  0-C , 23-H ) :  -0.0605 B(  1-C ,  2-O ) :   0.5344 B(  1-C ,  3-P ) :  -0.0793 
B(  1-C , 22-H ) :   0.6936 B(  1-C , 23-H ) :   0.7338 B(  2-O ,  3-P ) :   0.6118 
B(  2-O ,  4-S ) :  -0.0647 B(  2-O ,  5-O ) :  -0.0635 B(  2-O ,  8-S ) :  -0.0793 
B(  2-O , 22-H ) :  -0.0645 B(  2-O , 23-H ) :  -0.0603 B(  2-O , 31-H ) :   0.0653 
B(  3-P ,  4-S ) :   0.9235 B(  3-P ,  5-O ) :   0.6540 B(  3-P ,  6-C ) :  -0.0772 
B(  3-P ,  8-S ) :   0.5293 B(  3-P ,  9-C ) :  -0.0792 B(  4-S ,  5-O ) :  -0.0732 
B(  4-S ,  8-S ) :  -0.0892 B(  4-S , 22-H ) :   0.0844 B(  4-S , 25-H ) :   0.0607 
B(  4-S , 29-H ) :   0.1003 B(  5-O ,  6-C ) :   0.5584 B(  5-O ,  7-C ) :  -0.0944 
B(  5-O ,  8-S ) :  -0.0621 B(  5-O , 24-H ) :  -0.0569 B(  5-O , 25-H ) :  -0.0667 
B(  6-C ,  7-C ) :   0.9294 B(  6-C , 24-H ) :   0.7272 B(  6-C , 25-H ) :   0.7214 
B(  7-C , 25-H ) :  -0.0667 B(  7-C , 26-H ) :   0.7319 B(  7-C , 27-H ) :   0.6920 
B(  7-C , 28-H ) :   0.7295 B(  8-S ,  9-C ) :   0.4983 B(  8-S , 10-S ) :  -0.1795 
B(  8-S , 29-H ) :  -0.0679 B(  8-S , 30-H ) :  -0.0586 B(  9-C , 10-S ) :   0.4928 
B(  9-C , 11-P ) :  -0.0850 B(  9-C , 29-H ) :   0.6420 B(  9-C , 30-H ) :   0.6502 
B( 10-S , 11-P ) :   0.5242 B( 10-S , 12-S ) :  -0.0908 B( 10-S , 13-O ) :  -0.0736 
B( 10-S , 16-O ) :  -0.0681 B( 10-S , 29-H ) :  -0.0535 B( 10-S , 30-H ) :  -0.0675 
B( 11-P , 12-S ) :   0.9189 B( 11-P , 13-O ) :   0.6520 B( 11-P , 14-C ) :  -0.0761 
B( 11-P , 16-O ) :   0.6293 B( 11-P , 17-C ) :  -0.0853 B( 12-S , 13-O ) :  -0.0691 
B( 12-S , 16-O ) :  -0.0660 B( 12-S , 30-H ) :   0.1025 B( 12-S , 37-H ) :   0.0601 
B( 13-O , 14-C ) :   0.5402 B( 13-O , 15-C ) :  -0.0952 B( 13-O , 16-O ) :  -0.0582 
B( 13-O , 31-H ) :  -0.0533 B( 13-O , 32-H ) :  -0.0567 B( 14-C , 15-C ) :   0.9090 
B( 14-C , 31-H ) :   0.6859 B( 14-C , 32-H ) :   0.7273 B( 15-C , 31-H ) :  -0.0650 
B( 15-C , 33-H ) :   0.7385 B( 15-C , 34-H ) :   0.6859 B( 15-C , 35-H ) :   0.7291 
B( 16-O , 17-C ) :   0.5582 B( 16-O , 18-C ) :  -0.0906 B( 16-O , 36-H ) :  -0.0592 
B( 16-O , 37-H ) :  -0.0654 B( 17-C , 18-C ) :   0.9303 B( 17-C , 36-H ) :   0.7272 
B( 17-C , 37-H ) :   0.7236 B( 18-C , 36-H ) :  -0.0513 B( 18-C , 37-H ) :  -0.0656 
B( 18-C , 38-H ) :   0.6901 B( 18-C , 39-H ) :   0.7222 B( 18-C , 40-H ) :   0.7305 
B( 20-H , 21-H ) :  -0.0525 B( 22-H , 23-H ) :  -0.0664 B( 24-H , 25-H ) :  -0.0650 
B( 26-H , 28-H ) :  -0.0535 B( 31-H , 32-H ) :  -0.0598 B( 33-H , 35-H ) :  -0.0585 
B( 36-H , 37-H ) :  -0.0646 B( 39-H , 40-H ) :  -0.0534 


                     *******************************
                     * LOEWDIN POPULATION ANALYSIS *
                     *******************************

----------------------
LOEWDIN ATOMIC CHARGES
----------------------
   0 C :   -0.355083
   1 C :   -0.116236
   2 O :   -0.240409
   3 P :    0.572956
   4 S :   -0.322591
   5 O :   -0.245708
   6 C :   -0.118791
   7 C :   -0.369630
   8 S :    0.106486
   9 C :   -0.489987
  10 S :    0.080099
  11 P :    0.573947
  12 S :   -0.312416
  13 O :   -0.231737
  14 C :   -0.120642
  15 C :   -0.366526
  16 O :   -0.242157
  17 C :   -0.117480
  18 C :   -0.370320
  19 H :    0.130858
  20 H :    0.123813
  21 H :    0.125477
  22 H :    0.107712
  23 H :    0.115256
  24 H :    0.119337
  25 H :    0.111162
  26 H :    0.125912
  27 H :    0.132282
  28 H :    0.122344
  29 H :    0.128031
  30 H :    0.129343
  31 H :    0.110118
  32 H :    0.122147
  33 H :    0.117959
  34 H :    0.128501
  35 H :    0.128260
  36 H :    0.118578
  37 H :    0.113342
  38 H :    0.131507
  39 H :    0.121625
  40 H :    0.122660

-------------------------------
LOEWDIN REDUCED ORBITAL CHARGES
-------------------------------
  0 C s       :     2.950685  s :     2.950685
      pz      :     1.105782  p :     3.335274
      px      :     1.091638
      py      :     1.137854
      dz2     :     0.020015  d :     0.069123
      dxz     :     0.012819
      dyz     :     0.003556
      dx2y2   :     0.009996
      dxy     :     0.022737

  1 C s       :     2.931798  s :     2.931798
      pz      :     0.803840  p :     3.053132
      px      :     1.106523
      py      :     1.142768
      dz2     :     0.045720  d :     0.131306
      dxz     :     0.030904
      dyz     :     0.018120
      dx2y2   :     0.009129
      dxy     :     0.027433

  2 O s       :     3.504281  s :     3.504281
      pz      :     1.319204  p :     4.712502
      px      :     1.691609
      py      :     1.701689
      dz2     :     0.005800  d :     0.023626
      dxz     :     0.006720
      dyz     :     0.006256
      dx2y2   :     0.001936
      dxy     :     0.002914

  3 P s       :     5.057372  s :     5.057372
      pz      :     2.856130  p :     8.555223
      px      :     2.819098
      py      :     2.879996
      dz2     :     0.118134  d :     0.814449
      dxz     :     0.186783
      dyz     :     0.167768
      dx2y2   :     0.152207
      dxy     :     0.189557

  4 S s       :     5.766543  s :     5.766543
      pz      :     3.633747  p :    10.498303
      px      :     3.632878
      py      :     3.231678
      dz2     :     0.008068  d :     0.057745
      dxz     :     0.002031
      dyz     :     0.013753
      dx2y2   :     0.020072
      dxy     :     0.013821

  5 O s       :     3.500654  s :     3.500654
      pz      :     1.665706  p :     4.721137
      px      :     1.393456
      py      :     1.661974
      dz2     :     0.003394  d :     0.023918
      dxz     :     0.004328
      dyz     :     0.003130
      dx2y2   :     0.003780
      dxy     :     0.009285

  6 C s       :     2.927311  s :     2.927311
      pz      :     1.032455  p :     3.056355
      px      :     0.910010
      py      :     1.113891
      dz2     :     0.030898  d :     0.135125
      dxz     :     0.031985
      dyz     :     0.020766
      dx2y2   :     0.016058
      dxy     :     0.035417

  7 C s       :     2.954219  s :     2.954219
      pz      :     1.075671  p :     3.346292
      px      :     1.134412
      py      :     1.136209
      dz2     :     0.016897  d :     0.069118
      dxz     :     0.014554
      dyz     :     0.012354
      dx2y2   :     0.007375
      dxy     :     0.017939

  8 S s       :     5.648314  s :     5.648314
      pz      :     3.447328  p :    10.149198
      px      :     3.254708
      py      :     3.447161
      dz2     :     0.013686  d :     0.096003
      dxz     :     0.030105
      dyz     :     0.013669
      dx2y2   :     0.015012
      dxy     :     0.023529

  9 C s       :     3.066378  s :     3.066378
      pz      :     1.125070  p :     3.335102
      px      :     1.102449
      py      :     1.107583
      dz2     :     0.013835  d :     0.088508
      dxz     :     0.026918
      dyz     :     0.014403
      dx2y2   :     0.011207
      dxy     :     0.022144

 10 S s       :     5.644012  s :     5.644012
      pz      :     3.345056  p :    10.180509
      px      :     3.286970
      py      :     3.548482
      dz2     :     0.015543  d :     0.095381
      dxz     :     0.036297
      dyz     :     0.018104
      dx2y2   :     0.009539
      dxy     :     0.015897

 11 P s       :     5.054825  s :     5.054825
      pz      :     2.908345  p :     8.552402
      px      :     2.812869
      py      :     2.831188
      dz2     :     0.154387  d :     0.818826
      dxz     :     0.190733
      dyz     :     0.137745
      dx2y2   :     0.172410
      dxy     :     0.163551

 12 S s       :     5.762846  s :     5.762846
      pz      :     3.184298  p :    10.492256
      px      :     3.659825
      py      :     3.648132
      dz2     :     0.029338  d :     0.057314
      dxz     :     0.010512
      dyz     :     0.014910
      dx2y2   :     0.001193
      dxy     :     0.001362

 13 O s       :     3.492639  s :     3.492639
      pz      :     1.570136  p :     4.715483
      px      :     1.673525
      py      :     1.471822
      dz2     :     0.005980  d :     0.023615
      dxz     :     0.003282
      dyz     :     0.004551
      dx2y2   :     0.005444
      dxy     :     0.004358

 14 C s       :     2.928111  s :     2.928111
      pz      :     0.927920  p :     3.060074
      px      :     1.075480
      py      :     1.056675
      dz2     :     0.030295  d :     0.132457
      dxz     :     0.033268
      dyz     :     0.029644
      dx2y2   :     0.020951
      dxy     :     0.018300

 15 C s       :     2.951866  s :     2.951866
      pz      :     1.094457  p :     3.344894
      px      :     1.117084
      py      :     1.133353
      dz2     :     0.009965  d :     0.069766
      dxz     :     0.017141
      dyz     :     0.016631
      dx2y2   :     0.014900
      dxy     :     0.011130

 16 O s       :     3.498251  s :     3.498251
      pz      :     1.706807  p :     4.720066
      px      :     1.380311
      py      :     1.632948
      dz2     :     0.003005  d :     0.023839
      dxz     :     0.007130
      dyz     :     0.002263
      dx2y2   :     0.005295
      dxy     :     0.006148

 17 C s       :     2.926999  s :     2.926999
      pz      :     1.140102  p :     3.055297
      px      :     0.926759
      py      :     0.988436
      dz2     :     0.026797  d :     0.135185
      dxz     :     0.022797
      dyz     :     0.016903
      dx2y2   :     0.027514
      dxy     :     0.041173

 18 C s       :     2.954175  s :     2.954175
      pz      :     1.127585  p :     3.346894
      px      :     1.136317
      py      :     1.082991
      dz2     :     0.016745  d :     0.069250
      dxz     :     0.013134
      dyz     :     0.010616
      dx2y2   :     0.010244
      dxy     :     0.018512

 19 H s       :     0.869142  s :     0.869142

 20 H s       :     0.876187  s :     0.876187

 21 H s       :     0.874523  s :     0.874523

 22 H s       :     0.892288  s :     0.892288

 23 H s       :     0.884744  s :     0.884744

 24 H s       :     0.880663  s :     0.880663

 25 H s       :     0.888838  s :     0.888838

 26 H s       :     0.874088  s :     0.874088

 27 H s       :     0.867718  s :     0.867718

 28 H s       :     0.877656  s :     0.877656

 29 H s       :     0.871969  s :     0.871969

 30 H s       :     0.870657  s :     0.870657

 31 H s       :     0.889882  s :     0.889882

 32 H s       :     0.877853  s :     0.877853

 33 H s       :     0.882041  s :     0.882041

 34 H s       :     0.871499  s :     0.871499

 35 H s       :     0.871740  s :     0.871740

 36 H s       :     0.881422  s :     0.881422

 37 H s       :     0.886658  s :     0.886658

 38 H s       :     0.868493  s :     0.868493

 39 H s       :     0.878375  s :     0.878375

 40 H s       :     0.877340  s :     0.877340


---------------------------------
LOEWDIN BOND ORDERS (THRESH 0.050000)
---------------------------------
B(  0-C ,  1-C ) :   1.1569 B(  0-C ,  2-O ) :   0.0576 B(  0-C , 19-H ) :   0.9265 
B(  0-C , 20-H ) :   0.9345 B(  0-C , 21-H ) :   0.9316 B(  1-C ,  2-O ) :   1.0682 
B(  1-C ,  3-P ) :   0.0660 B(  1-C , 22-H ) :   0.9013 B(  1-C , 23-H ) :   0.9189 
B(  2-O ,  3-P ) :   1.2856 B(  2-O ,  4-S ) :   0.0919 B(  2-O ,  5-O ) :   0.0520 
B(  2-O ,  8-S ) :   0.0515 B(  3-P ,  4-S ) :   1.6929 B(  3-P ,  5-O ) :   1.2824 
B(  3-P ,  6-C ) :   0.0640 B(  3-P ,  8-S ) :   1.0757 B(  4-S ,  5-O ) :   0.0924 
B(  4-S ,  8-S ) :   0.1252 B(  4-S , 29-H ) :   0.0578 B(  5-O ,  6-C ) :   1.0920 
B(  5-O ,  7-C ) :   0.0592 B(  5-O ,  8-S ) :   0.0577 B(  6-C ,  7-C ) :   1.1580 
B(  6-C , 24-H ) :   0.9172 B(  6-C , 25-H ) :   0.9082 B(  7-C , 26-H ) :   0.9353 
B(  7-C , 27-H ) :   0.9249 B(  7-C , 28-H ) :   0.9274 B(  8-S ,  9-C ) :   1.1613 
B(  8-S , 10-S ) :   0.1031 B(  9-C , 10-S ) :   1.1758 B(  9-C , 29-H ) :   0.9003 
B(  9-C , 30-H ) :   0.8998 B( 10-S , 11-P ) :   1.0202 B( 10-S , 12-S ) :   0.1286 
B( 10-S , 13-O ) :   0.0735 B( 10-S , 16-O ) :   0.0572 B( 11-P , 12-S ) :   1.7323 
B( 11-P , 13-O ) :   1.3216 B( 11-P , 14-C ) :   0.0609 B( 11-P , 16-O ) :   1.2696 
B( 11-P , 17-C ) :   0.0643 B( 12-S , 13-O ) :   0.0749 B( 12-S , 16-O ) :   0.0896 
B( 12-S , 30-H ) :   0.0603 B( 13-O , 14-C ) :   1.0745 B( 13-O , 15-C ) :   0.0568 
B( 13-O , 16-O ) :   0.0509 B( 14-C , 15-C ) :   1.1586 B( 14-C , 31-H ) :   0.9011 
B( 14-C , 32-H ) :   0.9156 B( 15-C , 33-H ) :   0.9309 B( 15-C , 34-H ) :   0.9234 
B( 15-C , 35-H ) :   0.9332 B( 16-O , 17-C ) :   1.0901 B( 16-O , 18-C ) :   0.0588 
B( 17-C , 18-C ) :   1.1577 B( 17-C , 36-H ) :   0.9171 B( 17-C , 37-H ) :   0.9074 
B( 18-C , 38-H ) :   0.9247 B( 18-C , 39-H ) :   0.9279 B( 18-C , 40-H ) :   0.9356 


------------------------------------------
LOEWDIN REDUCED ORBITAL POPULATIONS PER MO
-------------------------------------------
THRESHOLD FOR PRINTING IS 0.1%%
                      0         1         2         3         4         5   
                 -88.04542 -88.04359 -87.99301 -87.98412 -76.43015 -76.42655
                   2.00000   2.00000   2.00000   2.00000   2.00000   2.00000
                  --------  --------  --------  --------  --------  --------
 3 P  s               0.0       0.0       0.0       0.0     100.0       0.0
 4 S  s               0.0       0.0     100.0       0.0       0.0       0.0
 8 S  s             100.0       0.0       0.0       0.0       0.0       0.0
10 S  s               0.0     100.0       0.0       0.0       0.0       0.0
11 P  s               0.0       0.0       0.0       0.0       0.0     100.0
12 S  s               0.0       0.0       0.0     100.0       0.0       0.0

                      6         7         8         9        10        11   
                 -18.79698 -18.79627 -18.79498 -18.78872  -9.95608  -9.95518
                   2.00000   2.00000   2.00000   2.00000   2.00000   2.00000
                  --------  --------  --------  --------  --------  --------
 1 C  s               0.0       0.0       0.0       0.0      99.7       0.0
 2 O  s               0.1      99.8       0.0       0.0       0.0       0.0
 5 O  s              99.8       0.1       0.0       0.0       0.0       0.0
 6 C  s               0.0       0.0       0.0       0.0       0.0      99.7
 7 C  pz              0.0       0.0       0.0       0.0       0.0       0.1
13 O  s               0.0       0.0       0.0      99.9       0.0       0.0
16 O  s               0.0       0.0      99.9       0.0       0.0       0.0

                     12        13        14        15        16        17   
                  -9.95352  -9.95276  -9.95022  -9.89009  -9.88700  -9.88575
                   2.00000   2.00000   2.00000   2.00000   2.00000   2.00000
                  --------  --------  --------  --------  --------  --------
 0 C  s               0.0       0.0       0.0      99.7       0.0       0.0
 7 C  s               0.0       0.0       0.0       0.0       0.0      99.7
 9 C  s               0.0      99.8       0.0       0.0       0.0       0.0
14 C  s               0.0       0.0      99.7       0.0       0.0       0.0
15 C  s               0.0       0.0       0.0       0.0      99.7       0.0
17 C  s              99.7       0.0       0.0       0.0       0.0       0.0

                     18        19        20        21        22        23   
                  -9.88450  -7.69048  -7.68827  -7.63791  -7.62943  -6.42804
                   2.00000   2.00000   2.00000   2.00000   2.00000   2.00000
                  --------  --------  --------  --------  --------  --------
 2 O  pz              0.0       0.0       0.0       0.0       0.0       0.1
 3 P  s               0.0       0.0       0.0       0.0       0.0      99.3
 4 S  s               0.0       0.0       0.0      99.9       0.0       0.0
 5 O  px              0.0       0.0       0.0       0.0       0.0       0.1
 8 S  s               0.0      99.7       0.0       0.0       0.0       0.0
10 S  s               0.0       0.0      99.7       0.0       0.0       0.0
12 S  s               0.0       0.0       0.0       0.0      99.9       0.0
18 C  s              99.7       0.0       0.0       0.0       0.0       0.0

                     24        25        26        27        28        29   
                  -6.42384  -5.71829  -5.71598  -5.71515  -5.71287  -5.70734
                   2.00000   2.00000   2.00000   2.00000   2.00000   2.00000
                  --------  --------  --------  --------  --------  --------
 8 S  pz              0.0      14.3       0.0      55.0       0.0      30.7
 8 S  px              0.0      71.0       0.0       0.1       0.0      28.9
 8 S  py              0.0      14.7       0.0      44.9       0.0      40.4
10 S  pz              0.0       0.0       1.0       0.0      94.2       0.0
10 S  px              0.0       0.0      66.5       0.0       0.2       0.0
10 S  py              0.0       0.0      32.5       0.0       5.5       0.0
11 P  s              99.3       0.0       0.0       0.0       0.0       0.0
13 O  py              0.2       0.0       0.0       0.0       0.0       0.0
16 O  px              0.2       0.0       0.0       0.0       0.0       0.0

                     30        31        32        33        34        35   
                  -5.70535  -5.66665  -5.65859  -5.65837  -5.65821  -5.65000
                   2.00000   2.00000   2.00000   2.00000   2.00000   2.00000
                  --------  --------  --------  --------  --------  --------
 4 S  pz              0.0       8.5      49.3       0.0      42.1       0.0
 4 S  px              0.0       9.3      33.1       0.0      57.6       0.0
 4 S  py              0.0      82.2      17.6       0.0       0.2       0.0
10 S  pz              4.8       0.0       0.0       0.0       0.0       0.0
10 S  px             33.2       0.0       0.0       0.0       0.0       0.0
10 S  py             62.0       0.0       0.0       0.0       0.0       0.0
12 S  pz              0.0       0.0       0.0      90.8       0.0       0.0
12 S  px              0.0       0.0       0.0       3.4       0.0      60.2
12 S  py              0.0       0.0       0.0       5.7       0.0      39.8

                     36        37        38        39        40        41   
                  -5.64955  -4.65055  -4.64974  -4.64853  -4.64662  -4.64565
                   2.00000   2.00000   2.00000   2.00000   2.00000   2.00000
                  --------  --------  --------  --------  --------  --------
 3 P  pz              0.0      37.0      20.4      42.5       0.0       0.0
 3 P  px              0.0      62.9      13.1      23.9       0.0       0.0
 3 P  py              0.0       0.0      66.3      33.6       0.0       0.0
11 P  pz              0.0       0.0       0.0       0.0      22.1       1.7
11 P  px              0.0       0.0       0.0       0.0      39.9      40.9
11 P  py              0.0       0.0       0.0       0.0      37.9      57.3
12 S  pz              9.1       0.0       0.0       0.0       0.0       0.0
12 S  px             36.4       0.0       0.0       0.0       0.0       0.0
12 S  py             54.4       0.0       0.0       0.0       0.0       0.0

                     42        43        44        45        46        47   
                  -4.64413  -0.99119  -0.98641  -0.95009  -0.94478  -0.76650
                   2.00000   2.00000   2.00000   2.00000   2.00000   2.00000
                  --------  --------  --------  --------  --------  --------
 0 C  s               0.0       0.2       0.0       0.3       0.0       0.3
 0 C  pz              0.0       0.2       0.0       0.3       0.0       0.0
 0 C  px              0.0       0.2       0.0       0.2       0.0       0.1
 1 C  s               0.0       3.2       0.0       4.4       0.0       0.9
 1 C  pz              0.0       3.5       0.0       3.7       0.0       0.1
 1 C  px              0.0       0.1       0.0       0.2       0.0       0.0
 1 C  dz2             0.0       0.3       0.0       0.3       0.0       0.0
 2 O  s               0.0      28.4       0.0      30.7       0.0       0.3
 2 O  pz              0.0       0.1       0.0       0.3       0.0       1.0
 2 O  px              0.0       1.0       0.0       0.4       0.0       0.0
 2 O  py              0.0       0.6       0.0       0.4       0.0       0.1
 3 P  s               0.0      14.2       0.0       0.0       0.0       3.2
 3 P  pz              0.0       0.7       0.0       4.2       0.0       1.1
 3 P  px              0.0       0.3       0.0       6.6       0.0       1.2
 3 P  py              0.0       3.9       0.0       0.0       0.0       0.2
 3 P  dz2             0.0       0.0       0.0       0.6       0.0       0.0
 3 P  dxz             0.0       0.7       0.0       0.1       0.0       0.2
 3 P  dyz             0.0       0.1       0.0       1.0       0.0       0.0
 3 P  dxy             0.0       0.1       0.0       1.7       0.0       0.0
 4 S  s               0.0       0.3       0.0       0.0       0.0       0.6
 4 S  py              0.0       0.4       0.0       0.0       0.0       0.2
 5 O  s               0.0      28.8       0.0      30.2       0.0       0.2
 5 O  pz              0.0       0.0       0.0       0.3       0.0       0.0
 5 O  px              0.0       0.2       0.0       0.2       0.0       0.5
 5 O  py              0.0       1.3       0.0       0.9       0.0       0.0
 6 C  s               0.0       3.3       0.0       4.7       0.0       0.4
 6 C  pz              0.0       0.9       0.0       1.0       0.0       0.0
 6 C  px              0.0       2.6       0.0       2.9       0.0       0.0
 6 C  py              0.0       0.2       0.0       0.3       0.0       0.0
 6 C  dxz             0.0       0.2       0.0       0.2       0.0       0.0
 6 C  dx2y2           0.0       0.1       0.0       0.1       0.0       0.0
 7 C  s               0.0       0.2       0.0       0.3       0.0       0.1
 7 C  pz              0.0       0.4       0.0       0.5       0.0       0.0
 8 S  s               0.0       0.3       0.0       0.0       0.0      19.5
 8 S  pz              0.0       0.3       0.0       0.0       0.0       1.1
 8 S  px              0.0       0.1       0.0       0.0       0.0       0.4
 8 S  py              0.0       0.0       0.0       0.0       0.0       1.5
 8 S  dxy             0.0       0.0       0.0       0.0       0.0       0.2
 9 C  s               0.0       0.0       0.0       0.0       0.0      25.6
 9 C  pz              0.0       0.0       0.0       0.0       0.0       0.4
 9 C  py              0.0       0.0       0.0       0.0       0.0       2.3
10 S  s               0.0       0.0       0.3       0.0       0.0      17.2
10 S  pz              0.0       0.0       0.1       0.0       0.0       2.3
10 S  px              0.0       0.0       0.1       0.0       0.0       0.6
10 S  py              0.0       0.0       0.1       0.0       0.0       0.0
10 S  dxz             0.0       0.0       0.0       0.0       0.0       0.1
11 P  s               0.0       0.0      14.1       0.0       0.2       2.2
11 P  pz             76.1       0.0       1.4       0.0       0.7       0.0
11 P  px             19.2       0.0       1.0       0.0       6.4       0.9
11 P  py              4.7       0.0       2.5       0.0       3.8       1.1
11 P  dz2             0.0       0.0       0.2       0.0       0.2       0.0
11 P  dxz             0.0       0.0       0.6       0.0       0.7       0.1
11 P  dx2y2           0.0       0.0       0.0       0.0       1.7       0.0
11 P  dxy             0.0       0.0       0.2       0.0       0.7       0.1
12 S  s               0.0       0.0       0.3       0.0       0.0       0.5
[...]
 1 C  dxz             1.4       0.1       0.0       0.1
 1 C  dyz             0.1       0.0       0.0       0.0
 2 O  s               1.8       0.1       0.0       0.4
 2 O  pz              3.8       0.2       0.1       2.7
 2 O  px              0.0       0.0       0.0       0.2
 2 O  py              0.1       0.0       0.0       0.3
 2 O  dz2            37.7       2.3       0.1       2.2
 2 O  dxz             9.9       0.4       0.3      13.1
 2 O  dyz             3.3       0.1       0.2       8.2
 2 O  dx2y2           0.2       0.0       0.0       0.0
 2 O  dxy             0.2       0.0       0.1       2.6
 3 P  s               0.6       0.0       0.0       0.0
 3 P  pz              0.1       0.0       0.0       1.4
 3 P  px              0.0       0.0       0.0       1.7
 3 P  py              0.3       0.0       0.0       0.0
 3 P  dz2             0.2       0.0       0.0       0.3
 3 P  dxz             0.2       0.0       0.0       0.0
 3 P  dyz             0.0       0.0       0.0       0.7
 3 P  dx2y2           0.1       0.0       0.0       0.3
 3 P  dxy             0.2       0.0       0.0       0.5
 5 O  s               0.2       0.0       0.0       0.2
 5 O  pz              0.3       0.0       0.0       1.0
 5 O  px              1.0       0.1       0.1       3.7
 5 O  dz2             0.0       0.0       0.0       1.1
 5 O  dxz             4.6       0.2       0.3       9.3
 5 O  dyz             1.9       0.1       0.2       5.4
 5 O  dx2y2           1.8       0.1       0.1       3.8
 5 O  dxy             7.9       0.5       0.7      25.7
 6 C  s               0.4       0.0       0.0       1.1
 6 C  pz              0.2       0.0       0.0       0.6
 6 C  px              0.4       0.0       0.0       1.2
 6 C  py              0.1       0.0       0.0       0.2
 6 C  dz2             0.0       0.0       0.0       0.1
 6 C  dxz             1.4       0.1       0.1       2.9
 6 C  dyz             0.1       0.0       0.0       0.2
 6 C  dx2y2           0.7       0.0       0.1       1.9
 6 C  dxy             0.4       0.0       0.0       0.9
 7 C  dz2             0.0       0.0       0.0       0.1
11 P  s               0.0       0.2       0.1       0.0
11 P  pz              0.0       0.2       0.3       0.0
11 P  px              0.0       0.2       1.8       0.1
11 P  py              0.0       0.1       0.9       0.0
11 P  dxz             0.0       0.0       0.3       0.0
11 P  dyz             0.0       0.6       0.1       0.0
11 P  dx2y2           0.0       0.1       1.3       0.0
13 O  s               0.2       4.2       1.3       0.0
13 O  pz              0.1       1.4       0.0       0.0
13 O  px              0.0       0.5       0.3       0.0
13 O  py              0.0       0.7       1.0       0.0
13 O  dz2             0.5       9.3       4.4       0.2
13 O  dxz             1.1      19.6       0.0       0.0
13 O  dyz             1.5      26.6       0.0       0.0
13 O  dx2y2           0.1       0.9       4.3       0.2
13 O  dxy             0.4       6.9       6.5       0.2
14 C  s               0.1       1.6       0.0       0.0
14 C  pz              0.1       2.1       0.0       0.0
14 C  px              0.0       0.4       0.0       0.0
14 C  py              0.0       0.7       0.0       0.0
14 C  dz2             0.1       2.2       0.2       0.0
14 C  dxz             0.2       4.1       0.0       0.0
14 C  dyz             0.2       4.4       0.1       0.0
14 C  dxy             0.1       1.0       0.0       0.0
15 C  pz              0.0       0.1       0.0       0.0
15 C  dz2             0.0       0.2       0.0       0.0
16 O  s               0.0       0.6       0.2       0.0
16 O  pz              0.0       0.0       0.3       0.0
16 O  px              0.0       0.0       4.8       0.1
16 O  py              0.0       0.0       0.8       0.0
16 O  dz2             0.0       0.3       7.2       0.2
16 O  dxz             0.1       1.6      12.5       0.3
16 O  dx2y2           0.1       2.0       2.8       0.1
16 O  dxy             0.1       1.0      33.8       0.8
17 C  s               0.0       0.0       1.4       0.0
17 C  px              0.0       0.0       1.4       0.0
17 C  py              0.0       0.0       1.0       0.0
17 C  dz2             0.0       0.0       1.6       0.0
17 C  dx2y2           0.0       0.0       0.6       0.0
17 C  dxy             0.0       0.2       5.1       0.1
18 C  dx2y2           0.0       0.0       0.1       0.0
32 H  s               0.0       0.1       0.0       0.0


                      *****************************
                      * MAYER POPULATION ANALYSIS *
                      *****************************

  NA   - Mulliken gross atomic population
  ZA   - Total nuclear charge
  QA   - Mulliken gross atomic charge
  VA   - Mayer's total valence
  BVA  - Mayer's bonded valence
  FA   - Mayer's free valence

  ATOM       NA         ZA         QA         VA         BVA        FA
  0 C      6.3006     6.0000    -0.3006     4.0004     4.0004    -0.0000
  1 C      6.0096     6.0000    -0.0096     3.9688     3.9688     0.0000
  2 O      8.3616     8.0000    -0.3616     2.1864     2.1864    -0.0000
  3 P     14.3897    15.0000     0.6103     4.9567     4.9567     0.0000
  4 S     16.3360    16.0000    -0.3360     2.0595     2.0595    -0.0000
  5 O      8.3734     8.0000    -0.3734     2.1821     2.1821     0.0000
  6 C      6.0037     6.0000    -0.0037     3.9989     3.9989    -0.0000
  7 C      6.3204     6.0000    -0.3204     3.9886     3.9886    -0.0000
  8 S     16.0567    16.0000    -0.0567     2.2789     2.2789     0.0000
  9 C      6.3755     6.0000    -0.3755     3.7895     3.7895    -0.0000
 10 S     16.1003    16.0000    -0.1003     2.2869     2.2869    -0.0000
 11 P     14.3936    15.0000     0.6064     4.9485     4.9485     0.0000
 12 S     16.3184    16.0000    -0.3184     2.0376     2.0376     0.0000
 13 O      8.3536     8.0000    -0.3536     2.1893     2.1893     0.0000
 14 C      6.0361     6.0000    -0.0361     3.9911     3.9911    -0.0000
 15 C      6.3123     6.0000    -0.3123     4.0067     4.0067     0.0000
 16 O      8.3760     8.0000    -0.3760     2.1790     2.1790    -0.0000
 17 C      6.0021     6.0000    -0.0021     4.0015     4.0015     0.0000
 18 C      6.3154     6.0000    -0.3154     3.9892     3.9892    -0.0000
 19 H      0.8882     1.0000     0.1118     0.9532     0.9532    -0.0000
 20 H      0.8798     1.0000     0.1202     0.9678     0.9678     0.0000
 21 H      0.8703     1.0000     0.1297     0.9701     0.9701    -0.0000
 22 H      0.8909     1.0000     0.1091     0.9983     0.9983     0.0000
 23 H      0.8946     1.0000     0.1054     0.9478     0.9478     0.0000
 24 H      0.8935     1.0000     0.1065     0.9490     0.9490     0.0000
 25 H      0.8876     1.0000     0.1124     0.9801     0.9801     0.0000
 26 H      0.8788     1.0000     0.1212     0.9598     0.9598    -0.0000
 27 H      0.8848     1.0000     0.1152     0.9550     0.9550    -0.0000
 28 H      0.8704     1.0000     0.1296     0.9809     0.9809     0.0000
 29 H      0.8081     1.0000     0.1919     0.9835     0.9835    -0.0000
 30 H      0.8023     1.0000     0.1977     0.9798     0.9798     0.0000
 31 H      0.8558     1.0000     0.1442     0.9909     0.9909     0.0000
 32 H      0.8932     1.0000     0.1068     0.9498     0.9498     0.0000
 33 H      0.8817     1.0000     0.1183     0.9719     0.9719    -0.0000
 34 H      0.8833     1.0000     0.1167     0.9522     0.9522     0.0000
 35 H      0.8783     1.0000     0.1217     0.9607     0.9607    -0.0000
 36 H      0.8953     1.0000     0.1047     0.9489     0.9489    -0.0000
 37 H      0.8848     1.0000     0.1152     0.9805     0.9805     0.0000
 38 H      0.8861     1.0000     0.1139     0.9547     0.9547    -0.0000
 39 H      0.8722     1.0000     0.1278     0.9831     0.9831    -0.0000
 40 H      0.8851     1.0000     0.1149     0.9626     0.9626    -0.0000

  Mayer bond orders larger than 0.100000
B(  0-C ,  1-C ) :   1.1653 B(  0-C , 19-H ) :   0.9392 B(  0-C , 20-H ) :   0.9433 
B(  0-C , 21-H ) :   0.9432 B(  1-C ,  2-O ) :   0.8930 B(  1-C , 22-H ) :   0.9025 
B(  1-C , 23-H ) :   0.9330 B(  2-O ,  3-P ) :   1.1186 B(  3-P ,  4-S ) :   1.5920 
B(  3-P ,  5-O ) :   1.1178 B(  3-P ,  8-S ) :   0.9746 B(  4-S ,  8-S ) :   0.1077 
B(  5-O ,  6-C ) :   0.9068 B(  6-C ,  7-C ) :   1.1644 B(  6-C , 24-H ) :   0.9336 
B(  6-C , 25-H ) :   0.9164 B(  7-C , 26-H ) :   0.9447 B(  7-C , 27-H ) :   0.9377 
B(  7-C , 28-H ) :   0.9349 B(  8-S ,  9-C ) :   1.0016 B(  9-C , 10-S ) :   1.0076 
B(  9-C , 29-H ) :   0.8671 B(  9-C , 30-H ) :   0.8670 B( 10-S , 11-P ) :   0.9353 
B( 10-S , 12-S ) :   0.1082 B( 11-P , 12-S ) :   1.6200 B( 11-P , 13-O ) :   1.1561 
B( 11-P , 16-O ) :   1.0929 B( 13-O , 14-C ) :   0.8942 B( 14-C , 15-C ) :   1.1729 
B( 14-C , 31-H ) :   0.8988 B( 14-C , 32-H ) :   0.9332 B( 15-C , 33-H ) :   0.9369 
B( 15-C , 34-H ) :   0.9302 B( 15-C , 35-H ) :   0.9409 B( 16-O , 17-C ) :   0.9053 
B( 17-C , 18-C ) :   1.1656 B( 17-C , 36-H ) :   0.9340 B( 17-C , 37-H ) :   0.9161 
B( 18-C , 38-H ) :   0.9373 B( 18-C , 39-H ) :   0.9347 B( 18-C , 40-H ) :   0.9450 


-------
TIMINGS
-------

Total SCF time: 0 days 0 hours 0 min 16 sec 

Total time                  ....      16.882 sec
Sum of individual times     ....      16.419 sec  ( 97.3%)

SCF preparation             ....       0.237 sec  (  1.4%)
Fock matrix formation       ....      15.082 sec  ( 89.3%)
  Startup                   ....       0.062 sec  (  0.4% of F)
  Split-RI-J                ....       9.022 sec  ( 59.8% of F)
  XC integration            ....       5.510 sec  ( 36.5% of F)
    XC Preparation          ....       0.000 sec  (  0.0% of XC)
    Basis function eval.    ....       2.129 sec  ( 38.6% of XC)
    Density eval.           ....       1.053 sec  ( 19.1% of XC)
    XC-Functional eval.     ....       0.407 sec  (  7.4% of XC)
    XC-Potential eval.      ....       1.263 sec  ( 22.9% of XC)
Diagonalization             ....       0.000 sec  (  0.0%)
Density matrix formation    ....       0.219 sec  (  1.3%)
Total Energy calculation    ....       0.028 sec  (  0.2%)
Population analysis         ....       0.214 sec  (  1.3%)
Orbital Transformation      ....       0.077 sec  (  0.5%)
Orbital Orthonormalization  ....       0.000 sec  (  0.0%)
DIIS solution               ....       0.431 sec  (  2.6%)
  MO trafo                  ....       0.000 sec  (  0.0 % of DIIS)
  Orb grad                  ....       0.000 sec  (  0.0 % of DIIS)
  Energy W gradient         ....       0.000 sec  (  0.0 % of DIIS)
  DIIS error                ....       0.021 sec  (  4.8 % of DIIS)
  DIIS work                 ....       0.355 sec  ( 82.4 % of DIIS)
  Form Q                    ....       0.000 sec  (  0.0 % of DIIS)
  Form QpQm                 ....       0.000 sec  (  0.0 % of DIIS)
  Exp/Cayley                ....       0.000 sec  (  0.0 % of DIIS)
  Orb update                ....       0.000 sec  (  0.0 % of DIIS)
  Wake-sleep                ....       0.013 sec  (  3.1 % of DIIS)
SOSCF solution              ....       0.131 sec  (  0.8%)
  MO trafo                  ....       0.068 sec  ( 51.9 % of SOSCF)
  Orb grad                  ....       0.001 sec  (  0.9 % of SOSCF)
  Rot update                ....       0.028 sec  ( 21.4 % of SOSCF)
  Step                      ....       0.033 sec  ( 25.6 % of SOSCF)
Finished LeanSCF after  17.0 sec

Maximum memory used throughout the entire LEANSCF-calculation: 34.6 MB


-------------------------------------------------------------------------------
                          DFT DISPERSION CORRECTION                            
                                                                               
                                DFTD4 V3.4.0                                   
-------------------------------------------------------------------------------
The PBE functional is recognized
Active option DFTDOPT                   ...         5   

-------------------------   ----------------
Dispersion correction           -0.066080332
-------------------------   ----------------

------------------   -----------------
gCP correction             0.185954617
------------------   -----------------

-------------------------   --------------------
FINAL SINGLE POINT ENERGY     -2929.523381447470
-------------------------   --------------------


------------------------------------------------------------------------------
                              ORCA PROPERTY CALCULATIONS
------------------------------------------------------------------------------

GBWName                                 ... sp.gbw
Number of atoms                         ...     41
Number of basis functions               ...    334
Max core memory                         ...   1024 MB

Electric properties:
Dipole moment                           ... YES
Quadrupole moment                       ...  NO
Static polarizability (Dipole/Dipole)   ...  NO
Static polarizability (Dipole/Quad.)    ...  NO
Static polarizability (Quad./Quad.)     ...  NO
Static polarizability (Velocity)        ...  NO

Atomic electric properties:
Dipole moment                           ...  NO
Quadrupole moment                       ...  NO
Static polarizability                   ...  NO

Choice of electric origin               ... Center of mass
Position of electric origin             ...    -0.000001    -0.000005     0.000005

General magnetic properties:
Magnetizability                         ...  NO

EPR properties:
g-Tensor (aka g-matrix)                 ...  NO
Zero-Field splitting spin-orbit         ...  NO
Zero-field splitting spin-spin          ...  NO
Hyperfine couplings                     ...  NO (   0 nuclei)
Quadrupole couplings                    ...  NO (   0 nuclei)
Contact density                         ...  NO (   0 nuclei)

NMR properties:
Chemical shifts                         ...  NO (   0 nuclei)
Spin-rotation constants                 ...  NO (   0 nuclei)
Spin-spin couplings                     ...  NO (   0 nuclei,    0 pairs)

Choice of magnetic origin               ... GIAO
Position of magnetic origin             ...     0.000000     0.000000     0.000000

Properties with geometric perturbations:
SCF Hessian                             ...  NO
IR spectrum                             ...  NO
VCD spectrum                            ...  NO
X-ray spectroscopy properties:
SCF XES/XAS/RIXS spectra                ...  NO


-------------
DIPOLE MOMENT
-------------

Method             : SCF
Type of density    : Electron Density
Multiplicity       :   1
Irrep              :   0
Energy             : -2929.6432557322955290 Eh
Relativity type    : 
Basis              : AO
                                X                 Y                 Z
Electronic contribution:      1.973352493      -4.138617332     -13.135412782
Nuclear contribution   :     -1.738447179       4.834338056      14.462984440
                        -----------------------------------------
Total Dipole Moment    :      0.234905314       0.695720724       1.327571658
                        -----------------------------------------
Magnitude (a.u.)       :      1.517120411
Magnitude (Debye)      :      3.856213625



--------------------
Rotational spectrum 
--------------------
 
Rotational constants in cm-1:             0.012747             0.004924             0.004489 
Rotational constants in MHz :           382.137929           147.626351           134.563673 

Dipole components along the rotational axes: 
x,y,z [a.u.] :    -0.285380    -1.450163    -0.342401 
x,y,z [Debye]:    -0.725379    -3.686022    -0.870315 

 

Dipole moment calculation done in   0.0 sec 

Maximum memory used throughout the entire PROP-calculation: 23.9 MB

--------------------------------
SUGGESTED CITATIONS FOR THIS RUN
--------------------------------

Below you find a list of papers that are relevant to this ORCA run
We neither can nor want to force you to cite these papers, but we appreciate if you do
You receive ORCA, which is the product of decades of hard work by many enthusiastic individuals, for free
The only thing we kindly ask in return is that you cite our papers,
We deeply appreciate it, if you show your appreciation for ORCA by not just citing the generic ORCA reference.

Please note that relegating all ORCA citations to the supporting information does *not* help us.
SI sections are not indexed - citations you put there will not count into any citation statistics
But we need these citations in order to attract the funding resources that allow us to do what we are doing

Therefore, if you are a happy ORCA user, please consider citing a few of the papers listed below in the main body of your paper

In addition to the list printed below, the program has created the file sp.bibtex that contains the list in bibtex format
You can import this file easily into all common literature databanks and citation aid programs


List of essential papers. We consider these as the minimum necessary citations

  1. Neese,F.
     Software update: the ORCA program system, version 5.0
     WIRES Comput. Molec. Sci., 2022 12(1)e1606
     doi.org/10.1002/wcms.1606

List of papers to cite with high priority. The work reported in these papers was absolutely
necessary for this run to complete.
Our perspective: the developers of density functionals and basis sets usually get cited in chemistry papers
Good! But without the algorithms to do something with them, the functionals or basis sets would not do anything.
Hence, in our opinion, the algorithm design and method developments papers are equally worthy of getting cited

  1. Neese,F.
     An improvement of the resolution of the identity approximation for the formation of the Coulomb matrix
     J. Comp. Chem., 2003 24(14)1740-1747
     doi.org/10.1002/jcc.10318
  2. Neese,F.
     The SHARK Integral Generation and Digestion System
     J. Comp. Chem., 2022  1-16
     doi.org/10.1002/jcc.26942
  3. Caldeweyher,E.; Bannwarth,C.; Grimme,S.
     Extension of the D3 dispersion coefficient model
     J. Chem. Phys., 2017 147 034112-XXXX
     doi.org/10.1063/1.4993215
  4. Caldeweyher,E.; Ehlert,S.; Hansen,A.; Neugebauer,H.; Spicher,S.; Bannwarth,C.; Grimme,S.
     A generally applicable atomic-charge dependent London dispersion correction
     J. Chem. Phys., 2019 150 154122-XXXX
     doi.org/10.1063/1.5090222
  5. Caldeweyher,E.; Mewes,J.; Ehlert,S.; Grimme,S.
     Extension and evaluation of the D4 London-dispersion model for periodic systems
     Phys. Chem. Chem. Phys., 2020 22(16)8499-8512
     doi.org/10.1039/D0CP00502A

List of suggested additional citations. These are papers that are important in the 'surrounding' of 
of this run, or papers that preceded the highly important papers. If you like your results we are grateful for a citation.

  1. Neese,F.
     The ORCA program system
     WIRES Comput. Molec. Sci., 2012 2(1)73-78
     doi.org/10.1002/wcms.81
  2. Neese,F.
     Software update: the ORCA program system, version 4.0
     WIRES Comput. Molec. Sci., 2018 8(1)1-6
     doi.org/10.1002/wcms.1327
  3. Neese,F.; Wennmohs,F.; Becker,U.; Riplinger,C.
     The ORCA quantum chemistry program package
     J. Chem. Phys., 2020 152 Art. No. L224108
     doi.org/10.1063/5.0004608

List of optional additional citations

  1. Neese,F.
     Approximate second-order SCF convergence for spin unrestricted wavefunctions
     Chem. Phys. Lett., 2000 325(1-3)93-98
     doi.org/10.1016/s0009-2614(00)00662-x

Timings for individual modules:

Sum of individual times          ...       20.618 sec (=   0.344 min)
Startup calculation              ...        1.616 sec (=   0.027 min)   7.8 %
SCF iterations                   ...       18.888 sec (=   0.315 min)  91.6 %
Property calculations            ...        0.115 sec (=   0.002 min)   0.6 %
                             ****ORCA TERMINATED NORMALLY****
TOTAL RUN TIME: 0 days 0 hours 0 minutes 21 seconds 304 msec
