      -----------------------------------------------------------      
     |                   =====================                   |     
     |                           x T B                           |     
     |                   =====================                   |     
     |                         S. Grimme                         |     
     |          Mulliken Center for Theoretical Chemistry        |     
     |                    University of Bonn                     |     
      -----------------------------------------------------------      

   * xtb version 6.7.1 (edcfbbe) compiled by 'albert@albert-system' on 2024-07-22

   xtb is free software: you can redistribute it and/or modify it under
   the terms of the GNU Lesser General Public License as published by
   the Free Software Foundation, either version 3 of the License, or
   (at your option) any later version.
   
   xtb is distributed in the hope that it will be useful,
   but WITHOUT ANY WARRANTY; without even the implied warranty of
   MERCHANTABILITY or FITNESS FOR A PARTICULAR PURPOSE.  See the
   GNU Lesser General Public License for more details.
   
   Cite this work as:
   * C. Bannwarth, E. Caldeweyher, S. Ehlert, A. Hansen, P. Pracht,
     J. Seibert, S. Spicher, S. Grimme, WIREs Comput. Mol. Sci., 2020, 11,
     e01493. DOI: 10.1002/wcms.1493
   
   for GFN2-xTB:
   * C. Bannwarth, S. Ehlert and S. Grimme., J. Chem. Theory Comput., 2019,
     15, 1652-1671. DOI: 10.1021/acs.jctc.8b01176
   for GFN1-xTB:
   * S. Grimme, C. Bannwarth, P. Shushkov, J. Chem. Theory Comput., 2017,
     13, 1989-2009. DOI: 10.1021/acs.jctc.7b00118
   for GFN0-xTB:
   * P. Pracht, E. Caldeweyher, S. Ehlert, S. Grimme, ChemRxiv, 2019, preprint.
     DOI: 10.26434/chemrxiv.8326202.v1
   for GFN-FF:
   * S. Spicher and S. Grimme, Angew. Chem. Int. Ed., 2020, 59, 15665-15673.
     DOI: 10.1002/anie.202004239
   
   for ALPB and GBSA implicit solvation:
   * S. Ehlert, M. Stahn, S. Spicher, S. Grimme, J. Chem. Theory Comput.,
     2021, 17, 4250-4261. DOI: 10.1021/acs.jctc.1c00471
   
   for ddCOSMO and CPCM-X implicit solvation:
   * M. Stahn, S. Ehlert, S. Grimme, J. Phys. Chem. A,
     2023, XX, XXXX-XXXX. DOI: 10.1021/acs.jpca.3c04382
   
   for DFT-D4:
   * E. Caldeweyher, C. Bannwarth and S. Grimme, J. Chem. Phys., 2017,
     147, 034112. DOI: 10.1063/1.4993215
   * E. Caldeweyher, S. Ehlert, A. Hansen, H. Neugebauer, S. Spicher,
     C. Bannwarth and S. Grimme, J. Chem. Phys., 2019, 150, 154122.
     DOI: 10.1063/1.5090222
   * E. Caldeweyher, J.-M. Mewes, S. Ehlert and S. Grimme, Phys. Chem. Chem. Phys.
     2020, 22, 8499-8512. DOI: 10.1039/D0CP00502A
   
   for sTDA-xTB:
   * S. Grimme and C. Bannwarth, J. Chem. Phys., 2016, 145, 054103.
     DOI: 10.1063/1.4959605
   
   in the mass-spec context:
   * V. Asgeirsson, C. Bauer and S. Grimme, Chem. Sci., 2017, 8, 4879.
     DOI: 10.1039/c7sc00601b
   * J. Koopman and S. Grimme, ACS Omega 2019, 4, 12, 15120-15133.
     DOI: 10.1021/acsomega.9b02011
   
   for metadynamics refer to:
   * S. Grimme, J. Chem. Theory Comput., 2019, 155, 2847-2862
     DOI: 10.1021/acs.jctc.9b00143
   
   for SPH calculations refer to:
   * S. Spicher and S. Grimme, J. Chem. Theory Comput., 2021, 17, 1701-1714
     DOI: 10.1021/acs.jctc.0c01306
   
   for ONIOM refer to:
   * C. Plett, A. Katbashev, S. Ehlert, S. Grimme, M. Bursch,
     Phys. Chem. Chem. Phys., 2023, 25, 17860-17868. DOI: 10.1039/D3CP02178E
   
   for DIPRO refer to:
   * J. Kohn, N. Gildemeister, S. Grimme, D. Fazzi, A. Hansen,
     J. Chem. Phys., 2023, just accepted.
   
   for PTB refer to:
   * S. Grimme, M. Mueller, A. Hansen, J. Chem. Phys., 2023, 158, 124111.
     DOI: 10.1063/5.0137838
   
   with help from (in alphabetical order)
   P. Atkinson, C. Bannwarth, F. Bohle, G. Brandenburg, E. Caldeweyher
   M. Checinski, S. Dohm, S. Ehlert, S. Ehrlich, I. Gerasimov, C. Hölzer
   A. Katbashev, J. Kohn, J. Koopman, C. Lavigne, S. Lehtola, F. März, M. Müller,
   F. Musil, H. Neugebauer, J. Pisarek, C. Plett, P. Pracht, F. Pultar,
   J. Seibert, P. Shushkov, S. Spicher, M. Stahn, M. Steiner, T. Strunk,
   J. Stückrath, T. Rose, and J. Unsleber
   
 * started run on 2025/04/03 at 20:52:25.889     
   ID    Z sym.   atoms
    1    6 C      1-6
    2   17 Cl     7, 8
    3    1 H      9-12

           -------------------------------------------------
          |                Calculation Setup                |
           -------------------------------------------------

          program call               : /srv/scratch/z5358697/.xtb/bin/xtb xtb_opt.coord --opt normal --orca -I xtb_opt-xcontrol-inp
          hostname                   : k148
          coordinate file            : xtb_opt.coord
          omp threads                :                     1

           -------------------------------------------------
          |                   Orca driver                   |
           -------------------------------------------------
orca executable           : /apps/z_install_tree/linux-rocky8-ivybridge/gcc-12.2.0/orca-6.0.0-srtngmq3qlimg2qxbl6avaaiffipurdx/bin/orca
orca input file           : xtb_opt.inp
orca input line           : 
orca parallel             : false
orca number of threads    : 1
                         * ORCA takes the control...
  ------------------------------------------------------------------------

                                 *****************
                                 * O   R   C   A *
                                 *****************

                                            #,                                       
                                            ###                                      
                                            ####                                     
                                            #####                                    
                                            ######                                   
                                           ########,                                 
                                     ,,################,,,,,                         
                               ,,#################################,,                 
                          ,,##########################################,,             
                       ,#########################################, ''#####,          
                    ,#############################################,,   '####,        
                  ,##################################################,,,,####,       
                ,###########''''           ''''###############################       
              ,#####''   ,,,,##########,,,,          '''####'''          '####       
            ,##' ,,,,###########################,,,                        '##       
           ' ,,###''''                  '''############,,,                           
         ,,##''                                '''############,,,,        ,,,,,,###''
      ,#''                                            '''#######################'''  
     '                                                          ''''####''''         
             ,#######,   #######,   ,#######,      ##                                
            ,#'     '#,  ##    ##  ,#'     '#,    #''#        ,####,   ,####,        
            ##       ##  ##   ,#'  ##            #'  '#       #'       #'  '#        
            ##       ##  #######   ##           ,######,      #####,   #    #        
            '#,     ,#'  ##    ##  '#,     ,#' ,#      #,     #,   #   #,  ,#        
             '#######'   ##     ##  '#######'  #'      '#     '####' # '####'        



                #########################################################
                #                        -***-                          #
                #          Department of theory and spectroscopy        #
                #                                                       #
                #                      Frank Neese                      #
                #                                                       #
                #     Directorship, Architecture, Infrastructure        #
                #                    SHARK, DRIVERS                     #
                #        Core code/Algorithms in most modules           #
                #                                                       #
                #        Max Planck Institute fuer Kohlenforschung      #
                #                Kaiser Wilhelm Platz 1                 #
                #                 D-45470 Muelheim/Ruhr                 #
                #                      Germany                          #
                #                                                       #
                #                  All rights reserved                  #
                #                        -***-                          #
                #########################################################


                         Program Version 6.0.0  -   RELEASE  -


 With contributions from (in alphabetic order):
   Daniel Aravena         : Magnetic Suceptibility
   Michael Atanasov       : Ab Initio Ligand Field Theory (pilot matlab implementation)
   Alexander A. Auer      : GIAO ZORA, VPT2 properties, NMR spectrum
   Ute Becker             : All parallelization in ORCA, NUMFREQ, NUMCALC
   Giovanni Bistoni       : ED, misc. LED, open-shell LED, HFLD
   Martin Brehm           : Molecular dynamics
   Dmytro Bykov           : pre 5.0 version of the SCF Hessian
   Marcos Casanova-Páez   : Triplet and SCS-CIS(D). UHF-(DLPNO)-IP/EA/STEOM-CCSD. UHF-CVS-IP/STEOM-CCSD
   Vijay G. Chilkuri      : MRCI spin determinant printing, contributions to CSF-ICE
   Pauline Colinet        : FMM embedding
   Dipayan Datta          : RHF DLPNO-CCSD density
   Achintya Kumar Dutta   : EOM-CC, STEOM-CC
   Nicolas Foglia         : Exact transition moments, OPA infrastructure, MCD improvements
   Dmitry Ganyushin       : Spin-Orbit,Spin-Spin,Magnetic field MRCI
   Miquel Garcia          : C-PCM and meta-GGA Hessian, CCSD/C-PCM, Gaussian charge scheme
   Tiago L. C. Gouveia    : GS-ROHF, GS-ROCIS
   Yang Guo               : DLPNO-NEVPT2, F12-NEVPT2, CIM, IAO-localization
   Andreas Hansen         : Spin unrestricted coupled pair/coupled cluster methods
   Ingolf Harden          : AUTO-CI MPn and infrastructure 
   Benjamin Helmich-Paris : MC-RPA, TRAH-(SCF,CASSCF), AVAS, COSX integrals, SCF dyn. polar.
   Lee Huntington         : MR-EOM, pCC
   Robert Izsak           : Overlap fitted RIJCOSX, COSX-SCS-MP3, EOM
   Riya Kayal             : Wick's Theorem for AUTO-CI, AUTO-CI UHF-CCSDT
   Emily Kempfer          : AUTO-CI, RHF CISDT and CCSDT
   Christian Kollmar      : KDIIS, OOCD, Brueckner-CCSD(T), CCSD density, CASPT2, CASPT2-K, improved NEVPT2
   Axel Koslowski         : Symmetry handling
   Simone Kossmann        : Meta GGA functionals, TD-DFT gradient, OOMP2, (MP2 Hessian; deprecated post 5.0)
   Lucas Lang             : DCDCAS
   Marvin Lechner         : AUTO-CI (C++ implementation), FIC-MRCC
   Spencer Leger          : CASSCF response
   Dagmar Lenk            : GEPOL surface, SMD, ORCA-2-JSON
   Dimitrios Liakos       : Extrapolation schemes; Compound Job, initial MDCI parallelization
   Dimitrios Manganas     : Further ROCIS development; embedding schemes. LFT, Crystal Embedding
   Dimitrios Pantazis     : SARC Basis sets
   Anastasios Papadopoulos: AUTO-CI, single reference methods and gradients
   Taras Petrenko         : pre 6.0 DFT Hessian and TD-DFT gradient, (ASA, deprecated), ECA, 1-Electron XAS/XES, NRVS
   Peter Pinski           : DLPNO-MP2, DLPNO-MP2 Gradient
   Christoph Reimann      : Effective Core Potentials
   Marius Retegan         : Local ZFS, SOC
   Christoph Riplinger    : Optimizer, TS searches, QM/MM, DLPNO-CCSD(T), (RO)-DLPNO pert. Triples
   Michael Roemelt        : Original ROCIS implementation
   Masaaki Saitow         : Open-shell DLPNO-CCSD energy and density
   Barbara Sandhoefer     : DKH picture change effects
   Kantharuban Sivalingam : CASSCF convergence/infrastructure, NEVPT2 and variants, FIC-MRCI
   Bernardo de Souza      : ESD, SOC TD-DFT
   Georgi Stoychev        : AutoAux, RI-MP2 NMR, DLPNO-MP2 response, X2C
   Van Anh Tran           : RI-MP2 g-tensors
   Willem Van den Heuvel  : Paramagnetic NMR
   Zikuan Wang            : NOTCH, Electric field optimization 
   Frank Wennmohs         : Technical directorship and infrastructure
   Hang Xu                : AUTO-CI-Response properties 


 We gratefully acknowledge several colleagues who have allowed us to
 interface, adapt or use parts of their codes:
   Stefan Grimme, W. Hujo, H. Kruse, P. Pracht,  : VdW corrections, initial TS optimization,
                  C. Bannwarth, S. Ehlert,         DFT functionals, gCP, sTDA/sTD-DF
                  L. Wittmann, M. Mueller
   Ed Valeev, F. Pavosevic, A. Kumar             : LibInt (2-el integral package), F12 methods
   Garnet Chan, S. Sharma, J. Yang, R. Olivares  : DMRG
   Ulf Ekstrom                                   : XCFun DFT Library
   Mihaly Kallay                                 : mrcc  (arbitrary order and MRCC methods)
   Frank Weinhold                                : gennbo (NPA and NBO analysis)
   Simon Mueller                                 : openCOSMO-RS
   Christopher J. Cramer and Donald G. Truhlar   : smd solvation model
   Lars Goerigk                                  : TD-DFT with DH, B97 family of functionals
   V. Asgeirsson, H. Jonsson                     : NEB implementation
   FAccTs GmbH                                   : IRC, NEB, NEB-TS, DLPNO-Multilevel, CI-OPT
                                                   MM, QMMM, 2- and 3-layer-ONIOM, Crystal-QMMM,
                                                   LR-CPCM, SF, NACMEs, symmetry and pop. for TD-DFT,
                                                   nearIR, NL-DFT gradient (VV10), updates on ESD,
                                                   ML-optimized integration grids, MBIS, APM,
                                                   GOAT, DOCKER, SOLVATOR, interface openCOSMO-RS
   S Lehtola, MJT Oliveira, MAL Marques          : LibXC Library
   Liviu Ungur et al                             : ANISO software


 Your calculation uses the libint2 library for the computation of 2-el integrals
 For citations please refer to: http://libint.valeyev.net

 Your ORCA version has been built with support for libXC version: 6.2.2
 For citations please refer to: https://libxc.gitlab.io

 This ORCA versions uses:
   CBLAS   interface :  Fast vector & matrix operations
   LAPACKE interface :  Fast linear algebra routines
   SCALAPACK package :  Parallel linear algebra routines
   Shared memory     :  Shared parallel matrices
   BLAS/LAPACK       :  OpenBLAS 0.3.27  USE64BITINT DYNAMIC_ARCH NO_AFFINITY SkylakeX SINGLE_THREADED
        Core in use  :  SkylakeX
   Copyright (c) 2011-2014, The OpenBLAS Project




***************************************
The coordinates will be read from file: xtb_opt.xyz
***************************************


Your calculation utilizes the geometrical counterpoise correction gCP
Please cite in your paper:
H.Kruse, S. Grimme J.Chem.Phys., 136, (2012), 154101 
   

Your calculation utilizes the atom-pairwise dispersion correction
based on EEQ partial charges (D4)


Your calculation utilizes the SMD solvation module
Please cite in your paper:
A.V. Marenich, C.J. Cramer, D.G. Truhlar J. Phys. Chem. B, 113, (2009), 6378 

================================================================================

----- Orbital basis set information -----
Your calculation utilizes the basis: def2-mTZVPP
   Stefan Grimme, Andreas Hansen, Sebastian Ehlert, and Jan-Michael Mewes 
   J. Chem. Phys. 154, 064103 (2021). DOI: 10.1063/5.0040021

----- AuxJ basis set information -----
Your calculation utilizes the auxiliary basis: def2/J
   F. Weigend, Phys. Chem. Chem. Phys. 8, 1057 (2006).

================================================================================
                                        WARNINGS
                       Please study these warnings very carefully!
================================================================================

Using LibXC functional ID 497 : Re-regularized SCAN exchange by Furness et al
[ 1]  J. W. Furness, A. D. Kaplan, J. Ning, J. P. Perdew, and J. Sun.,  J. Phys. Chem. Lett. 11, 8208-8215 (2020)
[ 2]  J. W. Furness, A. D. Kaplan, J. Ning, J. P. Perdew, and J. Sun.,  J. Phys. Chem. Lett. 11, 9248-9248 (2020)
Using LibXC functional ID 498 : Re-regularized SCAN correlation by Furness et al
[ 1]  J. W. Furness, A. D. Kaplan, J. Ning, J. P. Perdew, and J. Sun.,  J. Phys. Chem. Lett. 11, 8208-8215 (2020)
[ 2]  J. W. Furness, A. D. Kaplan, J. Ning, J. P. Perdew, and J. Sun.,  J. Phys. Chem. Lett. 11, 9248-9248 (2020)
Using LibXC functional ID 497 : Re-regularized SCAN exchange by Furness et al
[ 1]  J. W. Furness, A. D. Kaplan, J. Ning, J. P. Perdew, and J. Sun.,  J. Phys. Chem. Lett. 11, 8208-8215 (2020)
[ 2]  J. W. Furness, A. D. Kaplan, J. Ning, J. P. Perdew, and J. Sun.,  J. Phys. Chem. Lett. 11, 9248-9248 (2020)
Using LibXC functional ID 498 : Re-regularized SCAN correlation by Furness et al
[ 1]  J. W. Furness, A. D. Kaplan, J. Ning, J. P. Perdew, and J. Sun.,  J. Phys. Chem. Lett. 11, 8208-8215 (2020)
[ 2]  J. W. Furness, A. D. Kaplan, J. Ning, J. P. Perdew, and J. Sun.,  J. Phys. Chem. Lett. 11, 9248-9248 (2020)

================================================================================
                                       INPUT FILE
================================================================================
NAME = xtb_opt.inp
|  1> ! r2scan-3c def2/J RI DEFGRID2 scfconv7 ENGRAD tightSCF miniprint
|  2> %cpcm
|  3>     smd true
|  4>     smdsolvent "water"
|  5> end
|  6> * xyzfile 0 1 xtb_opt.xyz
|  7> 
|  8>                          ****END OF INPUT****
================================================================================

                     *******************************
                     * Energy+Gradient Calculation *
                     *******************************

---------------------------------
CARTESIAN COORDINATES (ANGSTROEM)
---------------------------------
  C     -0.691990   -1.206878    0.000001
  C      0.691994   -1.206878    0.000017
  C      1.372495   -0.000001    0.000005
  C      0.692001    1.206883   -0.000002
  C     -0.691986    1.206879    0.000017
  C     -1.372492    0.000001    0.000048
  Cl    -3.109606   -0.000000   -0.000016
  Cl     3.109598   -0.000002   -0.000010
  H     -1.235577   -2.137165   -0.000058
  H      1.235574   -2.137163   -0.000003
  H      1.235595    2.137183    0.000003
  H     -1.235568    2.137160   -0.000041

----------------------------
CARTESIAN COORDINATES (A.U.)
----------------------------
  NO LB      ZA    FRAG     MASS         X           Y           Z
   0 C     6.0000    0    12.011   -1.307672   -2.280668    0.000001
   1 C     6.0000    0    12.011    1.307680   -2.280669    0.000033
   2 C     6.0000    0    12.011    2.593640   -0.000001    0.000009
   3 C     6.0000    0    12.011    1.307693    2.280678   -0.000004
   4 C     6.0000    0    12.011   -1.307664    2.280670    0.000032
   5 C     6.0000    0    12.011   -2.593634    0.000003    0.000090
   6 Cl   17.0000    0    35.453   -5.876304   -0.000000   -0.000030
   7 Cl   17.0000    0    35.453    5.876288   -0.000005   -0.000019
   8 H     1.0000    0     1.008   -2.334903   -4.038657   -0.000110
   9 H     1.0000    0     1.008    2.334897   -4.038652   -0.000006
  10 H     1.0000    0     1.008    2.334935    4.038691    0.000006
  11 H     1.0000    0     1.008   -2.334885    4.038647   -0.000077

------------------------------------------------------------------------------
                   ___                                                        
                  /   \      - P O W E R E D   B Y -                         
                 /     \                                                     
                 |  |  |   _    _      __       _____    __    __             
                 |  |  |  | |  | |    /  \     |  _  \  |  |  /  |          
                  \  \/   | |  | |   /    \    | | | |  |  | /  /          
                 / \  \   | |__| |  /  /\  \   | |_| |  |  |/  /          
                |  |  |   |  __  | /  /__\  \  |    /   |      \           
                |  |  |   | |  | | |   __   |  |    \   |  |\   \          
                \     /   | |  | | |  |  |  |  | |\  \  |  | \   \       
                 \___/    |_|  |_| |__|  |__|  |_| \__\ |__|  \__/        
                                                                              
                      - O R C A' S   B I G   F R I E N D -                    
                                      &                                       
                       - I N T E G R A L  F E E D E R -                       
                                                                              
 v1 FN, 2020, v2 2021, v3 2022-2024                                           
------------------------------------------------------------------------------


----------------------
SHARK INTEGRAL PACKAGE
----------------------

Number of atoms                             ...     12
Number of basis functions                   ...    188
Number of shells                            ...     88
Maximum angular momentum                    ...      2
Integral batch strategy                     ... SHARK/LIBINT Hybrid
RI-J (if used) integral strategy            ... SPLIT-RIJ (Revised 2003 algorithm where possible)
Printlevel                                  ...      1
Contraction scheme used                     ... SEGMENTED contraction
Prescreening option                         ... SCHWARTZ
   Thresh                                   ... 3.000e-11
   Tcut                                     ... 1.000e-12
   Tpresel                                  ... 1.000e-12 
Coulomb Range Separation                    ... NOT USED
Exchange Range Separation                   ... NOT USED
Multipole approximations                    ... NOT USED
Finite Nucleus Model                        ... NOT USED
CABS basis                                  ... NOT available
Auxiliary Coulomb fitting basis             ... AVAILABLE
   # of basis functions in Aux-J            ...    440
   # of shells in Aux-J                     ...    144
   Maximum angular momentum in Aux-J        ...      4
Auxiliary J/K fitting basis                 ... NOT available
Auxiliary Correlation fitting basis         ... NOT available
Auxiliary 'external' fitting basis          ... NOT available

Checking pre-screening integrals            ... done (  0.0 sec) Dimension = 88
Check shell pair data                       ... done (  0.0 sec)
Shell pair information
Shell pair cut-off parameter TPreSel        ...   1.0e-12
Total number of shell pairs                 ...      3916
Shell pairs after pre-screening             ...      3535
Total number of primitive shell pairs       ...     16155
Primitive shell pairs kept                  ...     10165
          la=0 lb=0:   1010 shell pairs
          la=1 lb=0:   1316 shell pairs
          la=1 lb=1:    437 shell pairs
          la=2 lb=0:    436 shell pairs
          la=2 lb=1:    282 shell pairs
          la=2 lb=2:     54 shell pairs

Calculating one electron integrals          ... done (  0.0 sec)
Calculating RI/J V-Matrix + Cholesky decomp.... done (  0.1 sec)
Calculating Nuclear repulsion               ... done (  0.0 sec) ENN=    451.103432539493 Eh

Diagonalization of the overlap matrix:
Smallest eigenvalue                        ... 3.135e-05
Time for diagonalization                   ...    0.004 sec
Threshold for overlap eigenvalues          ... 1.000e-07
Number of eigenvalues below threshold      ... 0
Time for construction of square roots      ...    0.014 sec
Total time needed                          ...    0.025 sec

-------------------
DFT GRID GENERATION
-------------------

General Integration Accuracy     IntAcc      ... 4.388
Radial Grid Type                 RadialGrid  ... OptM3 with GC (2021)
Angular Grid (max. ang.)         AngularGrid ... 4 (Lebedev-302)
Angular grid pruning method      GridPruning ... 4 (adaptive)
Weight generation scheme         WeightScheme... mBecke (2022)
Basis function cutoff            BFCut       ... 1.0000e-11
Integration weight cutoff        WCut        ... 1.0000e-14
Partially contracted basis set               ... off
Rotationally invariant grid construction     ... off
Angular grids for H and He will be reduced by one unit

Total number of grid points                  ...    63576
Total number of batches                      ...     1002
Average number of points per batch           ...       63
Average number of grid points per atom       ...     5298
Initializing property integral containers    ... done (  0.0 sec)

SHARK setup successfully completed in   1.0 seconds

Maximum memory used throughout the entire STARTUP-calculation: 29.7 MB
Occupation numbers will be reassigned to an Aufbau configuration
             **** ENERGY FILE WAS UPDATED (xtb_opt.en.tmp) ****
Finished Guess after   0.2 sec
Maximum memory used throughout the entire GUESS-calculation: 13.0 MB
--------------------
CPCM SOLVATION MODEL
--------------------
CPCM parameters:
  Epsilon                                         ...      78.3550
  Refrac                                          ...       1.3328
  Rsolv                                           ...       1.3000
  Surface type                                    ... GAUSSIAN VDW
  Discretization scheme                           ... Constant charge density
    Threshold for H atoms                         ...       5.0000 (charges/Ang^2)
    Threshold for non-H atoms                     ...       5.0000 (charges/Ang^2)
  Epsilon function type                           ...         CPCM
Solvent:                                          ... WATER
SMD-CDS solvent descriptors:
  Soln                                            ...       1.3328
  Soln25                                          ...       1.3323
  Sola                                            ...       0.0000
  Solb                                            ...       0.0000
  Solg                                            ...       0.0000
  Solc                                            ...       0.0000
  Solh                                            ...       0.0000
Radii:
  Scheme                                          ... Element-dependent radii
  Radius for C  used is    3.4960 Bohr (=   1.8500 Ang.)
  Radius for Cl used is    4.4975 Bohr (=   2.3800 Ang.)
  Radius for H  used is    2.2677 Bohr (=   1.2000 Ang.)
Calculating surface                               ...        done! (  0.0s)
Cavity surface points                             ...         1162
Cavity Volume                                     ...    1142.9839
Cavity Surface-area                               ...     636.2186
Calculating surface distance matrix               ...        done! (  0.0s)
Performing Cholesky decomposition & store         ...        done! (  0.1s)
Overall time for CPCM initialization              ...                 0.1s

----------------------------------------D-I-I-S--------------------------------------------
Iteration    Energy (Eh)           Delta-E    RMSDP     MaxDP     DIISErr   Damp  Time(sec)
-------------------------------------------------------------------------------------------
               ***  Starting incremental Fock matrix formation  ***
                              *** Initializing SOSCF ***
---------------------------------------S-O-S-C-F--------------------------------------
Iteration    Energy (Eh)           Delta-E    RMSDP     MaxDP     MaxGrad    Time(sec)
--------------------------------------------------------------------------------------
    1    -1151.3482795207289655     0.00e+00  8.89e-06  2.16e-04  3.78e-05     2.4
               *** Restarting incremental Fock matrix formation ***
    2    -1151.3482796057817268    -8.51e-08  1.01e-05  2.45e-04  7.56e-05     2.3
    3    -1151.3482794261378785     1.80e-07  6.21e-06  1.32e-04  1.30e-04     1.9
    4    -1151.3482797294559532    -3.03e-07  6.15e-07  1.11e-05  6.18e-06     1.9
                  *** Gradient check signals convergence ***

               *****************************************************
               *                     SUCCESS                       *
               *           SCF CONVERGED AFTER   4 CYCLES          *
               *****************************************************


SMD CDS free energy correction energy :                 2.81703     Kcal/mol
Total Energy after SMD CDS correction =             -1151.343790507 Eh
             **** ENERGY FILE WAS UPDATED (xtb_opt.en.tmp) ****

----------------
TOTAL SCF ENERGY
----------------

Total Energy       :      -1151.34379050676762 Eh          -31329.65731 eV

Components:
Nuclear Repulsion  :        451.10343253949344 Eh           12275.14846 eV
Electronic Energy  :      -1602.44423246112365 Eh          -43604.72439 eV
One Electron Energy:      -2477.61906203547096 Eh          -67419.44222 eV
Two Electron Energy:        875.17482957434720 Eh           23814.71783 eV
CPCM Dielectric    :         -0.00747980782555 Eh              -0.20354 eV
SMD CDS (Gcds)     :          0.00448922268835 Eh               0.12216 eV

Virial components:
Potential Energy   :      -2299.68776137700024 Eh          -62577.68538 eV
Kinetic Energy     :       1148.34397087023285 Eh           31248.02807 eV
Virial Ratio       :          2.00261230059340

DFT components:
N(Alpha)           :       37.000009322361 electrons
N(Beta)            :       37.000009322361 electrons
N(Total)           :       74.000018644722 electrons
E(X)               :      -87.789476938070 Eh       
E(C)               :       -2.626085580071 Eh       
E(XC)              :      -90.415562518141 Eh       

CPCM Solvation Model Properties:
Surface-charge          :         -0.01877262423154
Corrected charge        :          0.00000000000000
Outlying charge corr.   :          0.00002482413939 Eh               0.00068 eV
Free-energy (cav+disp)  :          0.00448922268835 Eh               0.12216 eV

---------------
SCF CONVERGENCE
---------------

  Last Energy change         ...    3.0332e-07  Tolerance :   1.0000e-07
  Last MAX-Density change    ...    1.1138e-05  Tolerance :   1.0000e-07
  Last RMS-Density change    ...    6.1498e-07  Tolerance :   5.0000e-09
  Last DIIS Error            ...    1.8717e-04  Tolerance :   1.0000e-07
  Last Orbital Gradient      ...    6.1808e-06  Tolerance :   1.0000e-04
  Last Orbital Rotation      ...    1.7591e-05  Tolerance :   1.0000e-04


----------------
ORBITAL ENERGIES
----------------

  NO   OCC          E(Eh)            E(eV) 
   0   2.0000    -101.226312     -2754.5080 
   1   2.0000    -101.226310     -2754.5079 
   2   2.0000     -10.106243      -275.0049 
   3   2.0000     -10.106238      -275.0047 
   4   2.0000     -10.054952      -273.6092 
   5   2.0000     -10.054937      -273.6087 
   6   2.0000     -10.054477      -273.5962 
   7   2.0000     -10.054475      -273.5962 
   8   2.0000      -9.382359      -255.3070 
   9   2.0000      -9.382357      -255.3069 
  10   2.0000      -7.128446      -193.9749 
  11   2.0000      -7.128446      -193.9749 
  12   2.0000      -7.118694      -193.7095 
  13   2.0000      -7.118694      -193.7095 
  14   2.0000      -7.118188      -193.6957 
  15   2.0000      -7.118188      -193.6957 
  16   2.0000      -0.878868       -23.9152 
  17   2.0000      -0.847967       -23.0743 
  18   2.0000      -0.792731       -21.5713 
  19   2.0000      -0.739818       -20.1315 
  20   2.0000      -0.691880       -18.8270 
  21   2.0000      -0.603390       -16.4191 
  22   2.0000      -0.571355       -15.5474 
  23   2.0000      -0.497044       -13.5253 
  24   2.0000      -0.459857       -12.5134 
  25   2.0000      -0.444354       -12.0915 
  26   2.0000      -0.414502       -11.2792 
  27   2.0000      -0.409272       -11.1369 
  28   2.0000      -0.392168       -10.6714 
  29   2.0000      -0.355344        -9.6694 
  30   2.0000      -0.349061        -9.4984 
  31   2.0000      -0.343737        -9.3536 
  32   2.0000      -0.296514        -8.0686 
  33   2.0000      -0.294549        -8.0151 
  34   2.0000      -0.290689        -7.9100 
  35   2.0000      -0.258195        -7.0258 
  36   2.0000      -0.226647        -6.1674 
  37   0.0000      -0.052044        -1.4162 
  38   0.0000      -0.049337        -1.3425 
  39   0.0000       0.001750         0.0476 
  40   0.0000       0.015810         0.4302 
  41   0.0000       0.098667         2.6849 
  42   0.0000       0.107924         2.9368 
  43   0.0000       0.127813         3.4780 
  44   0.0000       0.129376         3.5205 
  45   0.0000       0.130186         3.5425 
  46   0.0000       0.170311         4.6344 
  47   0.0000       0.183849         5.0028 
*Only the first 10 virtual orbitals were printed.
Total SCF time: 0 days 0 hours 0 min 8 sec 
Finished LeanSCF after   9.0 sec

Maximum memory used throughout the entire LEANSCF-calculation: 21.5 MB


-------------------------------------------------------------------------------
                          DFT DISPERSION CORRECTION                            
                                                                               
                                DFTD4 V3.4.0                                   
-------------------------------------------------------------------------------
-------------------------   ----------------
Dispersion correction           -0.004693003
-------------------------   ----------------

------------------   -----------------
gCP correction             0.005021018
------------------   -----------------

-------------------------   --------------------
FINAL SINGLE POINT ENERGY     -1151.343462492163
-------------------------   --------------------

------------------------------------------------------------------------------
                         ORCA SCF GRADIENT CALCULATION
------------------------------------------------------------------------------

Nuc. rep. gradient        (SHARK) ... done (  0.0 sec)
HCore & Overlap gradient  (SHARK) ... done (  0.2 sec)
Split-RIJ-J gradient      (SHARK) ... done (  1.3 sec)
XC gradient                       ... done (  4.0 sec)
CPCM gradient                     ... done (  0.6 sec)
SMD gradient                      ... done (  0.0 sec)
Dispersion correction             ... done (  0.0 sec)

-------------------
DISPERSION GRADIENT
-------------------

   1   C   :   -0.000036003   -0.000056072    0.000000000
   2   C   :    0.000036003   -0.000056072    0.000000001
   3   C   :    0.000063229   -0.000000000    0.000000000
   4   C   :    0.000036003    0.000056072    0.000000000
   5   C   :   -0.000036003    0.000056071    0.000000001
   6   C   :   -0.000063229   -0.000000000    0.000000001
   7   Cl  :   -0.000163488    0.000000000   -0.000000001
   8   Cl  :    0.000163488   -0.000000000   -0.000000001
   9   H   :   -0.000019733   -0.000036997   -0.000000001
  10   H   :    0.000019733   -0.000036997    0.000000000
  11   H   :    0.000019733    0.000036997   -0.000000000
  12   H   :   -0.000019733    0.000036997   -0.000000000

Difference to translation invariance:
           :   -0.0000000000   -0.0000000000    0.0000000000

Difference to rotation invariance:
           :    0.0000000000    0.0000000000    0.0000000000

Norm of the Dispersion gradient    ...    0.0002936769
RMS gradient                       ...    0.0000489462
MAX gradient                       ...    0.0001634878
gCP correction                   ... done

------------------
CARTESIAN GRADIENT
------------------

   1   C   :    0.002678332    0.000818483   -0.000003496
   2   C   :   -0.002673628    0.000815757    0.000003294
   3   C   :    0.005573744   -0.000002189   -0.000001921
   4   C   :   -0.002677994   -0.000824301   -0.000002848
   5   C   :    0.002674391   -0.000815348    0.000000671
   6   C   :   -0.005573909    0.000000057    0.000008283
   7   Cl  :    0.008824703   -0.000000417   -0.000001328
   8   Cl  :   -0.008831075    0.000000357   -0.000000152
   9   H   :    0.001557466    0.004570737   -0.000001831
  10   H   :   -0.001560082    0.004574148    0.000000047
  11   H   :   -0.001552472   -0.004561582    0.000001780
  12   H   :    0.001560524   -0.004575702   -0.000002498

Difference to translation invariance:
           :    0.0000000000    0.0000000000    0.0000000000

Difference to rotation invariance:
           :    0.0000000035    0.0000000800    0.0000000475

Norm of the Cartesian gradient     ...    0.0185091436
RMS gradient                       ...    0.0030848573
MAX gradient                       ...    0.0088310751

-------
TIMINGS
-------

Total SCF gradient time     ....        6.664 sec

Densities                   ....       0.001 sec  (  0.0%)
One electron gradient       ....       0.162 sec  (  2.4%)
RI-J Coulomb gradient       ....       1.262 sec  ( 18.9%)
XC gradient                 ....       4.033 sec  ( 60.5%)
CPCM gradient               ....       0.640 sec  (  9.6%)
   A-Matrix (El+Nuc)        ....       0.046 sec  (  0.7%)
   Potential                ....       0.594 sec  (  8.9%)
SMD gradient                ....       0.011 sec  (  0.2%)

Maximum memory used throughout the entire SCFGRAD-calculation: 33.1 MB

------------------------------------------------------------------------------
                              ORCA PROPERTY CALCULATIONS
------------------------------------------------------------------------------

GBWName                                 ... xtb_opt.gbw
Number of atoms                         ...     12
Number of basis functions               ...    188
Max core memory                         ...   1024 MB

Electric properties:
Dipole moment                           ... YES
Quadrupole moment                       ...  NO
Static polarizability (Dipole/Dipole)   ...  NO
Static polarizability (Dipole/Quad.)    ...  NO
Static polarizability (Quad./Quad.)     ...  NO
Static polarizability (Velocity)        ...  NO

Atomic electric properties:
Dipole moment                           ...  NO
Quadrupole moment                       ...  NO
Static polarizability                   ...  NO

Choice of electric origin               ... Center of mass
Position of electric origin             ...     0.000000     0.000000     0.000000

General magnetic properties:
Magnetizability                         ...  NO

EPR properties:
g-Tensor (aka g-matrix)                 ...  NO
Zero-Field splitting spin-orbit         ...  NO
Zero-field splitting spin-spin          ...  NO
Hyperfine couplings                     ...  NO (   0 nuclei)
Quadrupole couplings                    ...  NO (   0 nuclei)
Contact density                         ...  NO (   0 nuclei)

NMR properties:
Chemical shifts                         ...  NO (   0 nuclei)
Spin-rotation constants                 ...  NO (   0 nuclei)
Spin-spin couplings                     ...  NO (   0 nuclei,    0 pairs)

Choice of magnetic origin               ... GIAO
Position of magnetic origin             ...     0.000000     0.000000     0.000000

Properties with geometric perturbations:
SCF Hessian                             ...  NO
IR spectrum                             ...  NO
VCD spectrum                            ...  NO
X-ray spectroscopy properties:
SCF XES/XAS/RIXS spectra                ...  NO


-------------
DIPOLE MOMENT
-------------

Method             : SCF
Type of density    : Electron Density
Multiplicity       :   1
Irrep              :   0
Energy             : -1151.3437905067676184 Eh
Relativity type    : 
Basis              : AO
                                X                 Y                 Z
Electronic contribution:     -0.000012454      -0.000017078       0.000011270
Nuclear contribution   :      0.000033154       0.000017749      -0.000057405
                        -----------------------------------------
Total Dipole Moment    :      0.000020700       0.000000670      -0.000046135
                        -----------------------------------------
Magnitude (a.u.)       :      0.000050571
Magnitude (Debye)      :      0.000128540



--------------------
Rotational spectrum 
--------------------
 
Rotational constants in cm-1:             0.190708             0.022180             0.019869 
Rotational constants in MHz :          5717.288245           664.931860           595.655907 

Dipole components along the rotational axes: 
x,y,z [a.u.] :    -0.000021     0.000001    -0.000046 
x,y,z [Debye]:    -0.000053     0.000002    -0.000117 

 

Dipole moment calculation done in   0.0 sec 

Maximum memory used throughout the entire PROP-calculation: 11.5 MB

--------------------------------
SUGGESTED CITATIONS FOR THIS RUN
--------------------------------

Below you find a list of papers that are relevant to this ORCA run
We neither can nor want to force you to cite these papers, but we appreciate if you do
You receive ORCA, which is the product of decades of hard work by many enthusiastic individuals, for free
The only thing we kindly ask in return is that you cite our papers,
We deeply appreciate it, if you show your appreciation for ORCA by not just citing the generic ORCA reference.

Please note that relegating all ORCA citations to the supporting information does *not* help us.
SI sections are not indexed - citations you put there will not count into any citation statistics
But we need these citations in order to attract the funding resources that allow us to do what we are doing

Therefore, if you are a happy ORCA user, please consider citing a few of the papers listed below in the main body of your paper

In addition to the list printed below, the program has created the file xtb_opt.bibtex that contains the list in bibtex format
You can import this file easily into all common literature databanks and citation aid programs


List of essential papers. We consider these as the minimum necessary citations

  1. Neese,F.
     Software update: the ORCA program system, version 5.0
     WIRES Comput. Molec. Sci., 2022 12(1)e1606
     doi.org/10.1002/wcms.1606
  2. Grimme,S.; Hansen,A.; Ehlert,S.; Mewes,J.
     r2SCAN-3c: A 'Swiss army knife' composite electronic-structure method
     J. Chem. Phys., 2021 154 064103
     doi.org/10.1063/5.0040021

List of papers to cite with high priority. The work reported in these papers was absolutely
necessary for this run to complete.
Our perspective: the developers of density functionals and basis sets usually get cited in chemistry papers
Good! But without the algorithms to do something with them, the functionals or basis sets would not do anything.
Hence, in our opinion, the algorithm design and method developments papers are equally worthy of getting cited

  1. Neese,F.
     An improvement of the resolution of the identity approximation for the formation of the Coulomb matrix
     J. Comp. Chem., 2003 24(14)1740-1747
     doi.org/10.1002/jcc.10318
  2. Garcia-Rates,M.; Neese,F.
     Effect of the Solute Cavity on the Solvation Energy and its Derivatives within the Framework of the Gaussian Charge Scheme
     J. Comput. Chem., 2020 41 922-939
     doi.org/10.1002/jcc.26139
  3. Neese,F.
     The SHARK Integral Generation and Digestion System
     J. Comp. Chem., 2022  1-16
     doi.org/10.1002/jcc.26942
  4. Lehtola,S.; Steigemann,C.; Oliveira,M.; Marques,M.
     Recent developments in Libxc - A comprehensive library of functionals for density functional theory
     Software X, 2018 7 
     doi.org/10.1016/j.softx.2017.11.002
  5. Caldeweyher,E.; Bannwarth,C.; Grimme,S.
     Extension of the D3 dispersion coefficient model
     J. Chem. Phys., 2017 147 034112-XXXX
     doi.org/10.1063/1.4993215
  6. Caldeweyher,E.; Ehlert,S.; Hansen,A.; Neugebauer,H.; Spicher,S.; Bannwarth,C.; Grimme,S.
     A generally applicable atomic-charge dependent London dispersion correction
     J. Chem. Phys., 2019 150 154122-XXXX
     doi.org/10.1063/1.5090222
  7. Caldeweyher,E.; Mewes,J.; Ehlert,S.; Grimme,S.
     Extension and evaluation of the D4 London-dispersion model for periodic systems
     Phys. Chem. Chem. Phys., 2020 22(16)8499-8512
     doi.org/10.1039/D0CP00502A

List of suggested additional citations. These are papers that are important in the 'surrounding' of 
of this run, or papers that preceded the highly important papers. If you like your results we are grateful for a citation.

  1. Neese,F.
     The ORCA program system
     WIRES Comput. Molec. Sci., 2012 2(1)73-78
     doi.org/10.1002/wcms.81
  2. Neese,F.
     Software update: the ORCA program system, version 4.0
     WIRES Comput. Molec. Sci., 2018 8(1)1-6
     doi.org/10.1002/wcms.1327
  3. Neese,F.; Wennmohs,F.; Becker,U.; Riplinger,C.
     The ORCA quantum chemistry program package
     J. Chem. Phys., 2020 152 Art. No. L224108
     doi.org/10.1063/5.0004608

List of optional additional citations

  1. Neese,F.
     Approximate second-order SCF convergence for spin unrestricted wavefunctions
     Chem. Phys. Lett., 2000 325(1-3)93-98
     doi.org/10.1016/s0009-2614(00)00662-x

Timings for individual modules:

Sum of individual times          ...       17.134 sec (=   0.286 min)
Startup calculation              ...        0.991 sec (=   0.017 min)   5.8 %
SCF iterations                   ...        9.282 sec (=   0.155 min)  54.2 %
Property calculations            ...        0.102 sec (=   0.002 min)   0.6 %
SCF Gradient evaluation          ...        6.758 sec (=   0.113 min)  39.4 %
                             ****ORCA TERMINATED NORMALLY****
TOTAL RUN TIME: 0 days 0 hours 0 minutes 17 seconds 789 msec
  ------------------------------------------------------------------------
          * successful ORCA run, taking over control again...

         :::::::::::::::::::::::::::::::::::::::::::::::::::::
         ::                  ORCA SUMMARY                   ::
         :::::::::::::::::::::::::::::::::::::::::::::::::::::
         :: total energy           -1151.343462492163 Eh    ::
         :: gradient norm              0.018509143561 Eh/a0 ::
         :: HOMO-LUMO gap              0.000000000000 eV    ::
         :::::::::::::::::::::::::::::::::::::::::::::::::::::

      ----------------------------------------------------------- 
     |                       L-ANC optimizer                     |
      ----------------------------------------------------------- 
          low memory version by Sebastian Ehlert

          ...................................................
          :                      SETUP                      :
          :.................................................:
          :   energy convergence        0.5000000E-05 Eh    :
          :   grad. convergence         0.1000000E-02 Eh/a0 :
          :   optimization log               true           :
          :   writing optlog all                1     steps :
          :   Hessian reset                    20     steps :
          :   maximium step len.        1.0000000     a0    :
          :   LBFGS images                     20           :
          ...................................................
 * calculating model hessian...
Using Lindh-Hessian (1995)
 Shifting diagonal of input Hessian by   1.000000000000000E-002
 Lowest  eigenvalues of input Hessian
    0.000000    0.000000    0.000000    0.000000    0.000000    0.000000
    0.018568    0.025510    0.029809    0.033099    0.061663    0.065357
    0.070010    0.082092    0.109734    0.113114    0.114931    0.139440
 Highest eigenvalues
    1.439053    1.586182    1.651197    1.889812    1.991027    2.050282
 

........................................................................
.............................. CYCLE    1 ..............................
........................................................................
                         * ORCA takes the control...
  ------------------------------------------------------------------------

                                 *****************
                                 * O   R   C   A *
                                 *****************

                                            #,                                       
                                            ###                                      
                                            ####                                     
                                            #####                                    
                                            ######                                   
                                           ########,                                 
                                     ,,################,,,,,                         
                               ,,#################################,,                 
                          ,,##########################################,,             
                       ,#########################################, ''#####,          
                    ,#############################################,,   '####,        
                  ,##################################################,,,,####,       
                ,###########''''           ''''###############################       
              ,#####''   ,,,,##########,,,,          '''####'''          '####       
            ,##' ,,,,###########################,,,                        '##       
           ' ,,###''''                  '''############,,,                           
         ,,##''                                '''############,,,,        ,,,,,,###''
      ,#''                                            '''#######################'''  
     '                                                          ''''####''''         
             ,#######,   #######,   ,#######,      ##                                
            ,#'     '#,  ##    ##  ,#'     '#,    #''#        ,####,   ,####,        
            ##       ##  ##   ,#'  ##            #'  '#       #'       #'  '#        
            ##       ##  #######   ##           ,######,      #####,   #    #        
            '#,     ,#'  ##    ##  '#,     ,#' ,#      #,     #,   #   #,  ,#        
             '#######'   ##     ##  '#######'  #'      '#     '####' # '####'        



                #########################################################
                #                        -***-                          #
                #          Department of theory and spectroscopy        #
                #                                                       #
                #                      Frank Neese                      #
                #                                                       #
                #     Directorship, Architecture, Infrastructure        #
                #                    SHARK, DRIVERS                     #
                #        Core code/Algorithms in most modules           #
                #                                                       #
                #        Max Planck Institute fuer Kohlenforschung      #
                #                Kaiser Wilhelm Platz 1                 #
                #                 D-45470 Muelheim/Ruhr                 #
                #                      Germany                          #
                #                                                       #
                #                  All rights reserved                  #
                #                        -***-                          #
                #########################################################


                         Program Version 6.0.0  -   RELEASE  -


 With contributions from (in alphabetic order):
   Daniel Aravena         : Magnetic Suceptibility
   Michael Atanasov       : Ab Initio Ligand Field Theory (pilot matlab implementation)
   Alexander A. Auer      : GIAO ZORA, VPT2 properties, NMR spectrum
   Ute Becker             : All parallelization in ORCA, NUMFREQ, NUMCALC
   Giovanni Bistoni       : ED, misc. LED, open-shell LED, HFLD
   Martin Brehm           : Molecular dynamics
   Dmytro Bykov           : pre 5.0 version of the SCF Hessian
   Marcos Casanova-Páez   : Triplet and SCS-CIS(D). UHF-(DLPNO)-IP/EA/STEOM-CCSD. UHF-CVS-IP/STEOM-CCSD
   Vijay G. Chilkuri      : MRCI spin determinant printing, contributions to CSF-ICE
   Pauline Colinet        : FMM embedding
   Dipayan Datta          : RHF DLPNO-CCSD density
   Achintya Kumar Dutta   : EOM-CC, STEOM-CC
   Nicolas Foglia         : Exact transition moments, OPA infrastructure, MCD improvements
   Dmitry Ganyushin       : Spin-Orbit,Spin-Spin,Magnetic field MRCI
   Miquel Garcia          : C-PCM and meta-GGA Hessian, CCSD/C-PCM, Gaussian charge scheme
   Tiago L. C. Gouveia    : GS-ROHF, GS-ROCIS
   Yang Guo               : DLPNO-NEVPT2, F12-NEVPT2, CIM, IAO-localization
   Andreas Hansen         : Spin unrestricted coupled pair/coupled cluster methods
   Ingolf Harden          : AUTO-CI MPn and infrastructure 
   Benjamin Helmich-Paris : MC-RPA, TRAH-(SCF,CASSCF), AVAS, COSX integrals, SCF dyn. polar.
   Lee Huntington         : MR-EOM, pCC
   Robert Izsak           : Overlap fitted RIJCOSX, COSX-SCS-MP3, EOM
   Riya Kayal             : Wick's Theorem for AUTO-CI, AUTO-CI UHF-CCSDT
   Emily Kempfer          : AUTO-CI, RHF CISDT and CCSDT
   Christian Kollmar      : KDIIS, OOCD, Brueckner-CCSD(T), CCSD density, CASPT2, CASPT2-K, improved NEVPT2
   Axel Koslowski         : Symmetry handling
   Simone Kossmann        : Meta GGA functionals, TD-DFT gradient, OOMP2, (MP2 Hessian; deprecated post 5.0)
   Lucas Lang             : DCDCAS
   Marvin Lechner         : AUTO-CI (C++ implementation), FIC-MRCC
   Spencer Leger          : CASSCF response
   Dagmar Lenk            : GEPOL surface, SMD, ORCA-2-JSON
   Dimitrios Liakos       : Extrapolation schemes; Compound Job, initial MDCI parallelization
   Dimitrios Manganas     : Further ROCIS development; embedding schemes. LFT, Crystal Embedding
   Dimitrios Pantazis     : SARC Basis sets
   Anastasios Papadopoulos: AUTO-CI, single reference methods and gradients
   Taras Petrenko         : pre 6.0 DFT Hessian and TD-DFT gradient, (ASA, deprecated), ECA, 1-Electron XAS/XES, NRVS
   Peter Pinski           : DLPNO-MP2, DLPNO-MP2 Gradient
   Christoph Reimann      : Effective Core Potentials
   Marius Retegan         : Local ZFS, SOC
   Christoph Riplinger    : Optimizer, TS searches, QM/MM, DLPNO-CCSD(T), (RO)-DLPNO pert. Triples
   Michael Roemelt        : Original ROCIS implementation
   Masaaki Saitow         : Open-shell DLPNO-CCSD energy and density
   Barbara Sandhoefer     : DKH picture change effects
   Kantharuban Sivalingam : CASSCF convergence/infrastructure, NEVPT2 and variants, FIC-MRCI
   Bernardo de Souza      : ESD, SOC TD-DFT
   Georgi Stoychev        : AutoAux, RI-MP2 NMR, DLPNO-MP2 response, X2C
   Van Anh Tran           : RI-MP2 g-tensors
   Willem Van den Heuvel  : Paramagnetic NMR
   Zikuan Wang            : NOTCH, Electric field optimization 
   Frank Wennmohs         : Technical directorship and infrastructure
   Hang Xu                : AUTO-CI-Response properties 


 We gratefully acknowledge several colleagues who have allowed us to
 interface, adapt or use parts of their codes:
   Stefan Grimme, W. Hujo, H. Kruse, P. Pracht,  : VdW corrections, initial TS optimization,
                  C. Bannwarth, S. Ehlert,         DFT functionals, gCP, sTDA/sTD-DF
                  L. Wittmann, M. Mueller
   Ed Valeev, F. Pavosevic, A. Kumar             : LibInt (2-el integral package), F12 methods
   Garnet Chan, S. Sharma, J. Yang, R. Olivares  : DMRG
   Ulf Ekstrom                                   : XCFun DFT Library
   Mihaly Kallay                                 : mrcc  (arbitrary order and MRCC methods)
   Frank Weinhold                                : gennbo (NPA and NBO analysis)
   Simon Mueller                                 : openCOSMO-RS
   Christopher J. Cramer and Donald G. Truhlar   : smd solvation model
   Lars Goerigk                                  : TD-DFT with DH, B97 family of functionals
   V. Asgeirsson, H. Jonsson                     : NEB implementation
   FAccTs GmbH                                   : IRC, NEB, NEB-TS, DLPNO-Multilevel, CI-OPT
                                                   MM, QMMM, 2- and 3-layer-ONIOM, Crystal-QMMM,
                                                   LR-CPCM, SF, NACMEs, symmetry and pop. for TD-DFT,
                                                   nearIR, NL-DFT gradient (VV10), updates on ESD,
                                                   ML-optimized integration grids, MBIS, APM,
                                                   GOAT, DOCKER, SOLVATOR, interface openCOSMO-RS
   S Lehtola, MJT Oliveira, MAL Marques          : LibXC Library
   Liviu Ungur et al                             : ANISO software


 Your calculation uses the libint2 library for the computation of 2-el integrals
 For citations please refer to: http://libint.valeyev.net

 Your ORCA version has been built with support for libXC version: 6.2.2
 For citations please refer to: https://libxc.gitlab.io

 This ORCA versions uses:
   CBLAS   interface :  Fast vector & matrix operations
   LAPACKE interface :  Fast linear algebra routines
   SCALAPACK package :  Parallel linear algebra routines
   Shared memory     :  Shared parallel matrices
   BLAS/LAPACK       :  OpenBLAS 0.3.27  USE64BITINT DYNAMIC_ARCH NO_AFFINITY SkylakeX SINGLE_THREADED
        Core in use  :  SkylakeX
   Copyright (c) 2011-2014, The OpenBLAS Project




***************************************
The coordinates will be read from file: xtb_opt.xyz
***************************************


Your calculation utilizes the geometrical counterpoise correction gCP
Please cite in your paper:
H.Kruse, S. Grimme J.Chem.Phys., 136, (2012), 154101 
   

Your calculation utilizes the atom-pairwise dispersion correction
based on EEQ partial charges (D4)


Your calculation utilizes the SMD solvation module
Please cite in your paper:
A.V. Marenich, C.J. Cramer, D.G. Truhlar J. Phys. Chem. B, 113, (2009), 6378 

================================================================================

----- Orbital basis set information -----
Your calculation utilizes the basis: def2-mTZVPP
   Stefan Grimme, Andreas Hansen, Sebastian Ehlert, and Jan-Michael Mewes 
   J. Chem. Phys. 154, 064103 (2021). DOI: 10.1063/5.0040021

----- AuxJ basis set information -----
Your calculation utilizes the auxiliary basis: def2/J
   F. Weigend, Phys. Chem. Chem. Phys. 8, 1057 (2006).

================================================================================
                                        WARNINGS
                       Please study these warnings very carefully!
================================================================================

WARNING: Old DensityContainer found on disk!
         Will remove this file - 
         If you want to keep old densities, please start your calculation with a different basename. 

Using LibXC functional ID 497 : Re-regularized SCAN exchange by Furness et al
[ 1]  J. W. Furness, A. D. Kaplan, J. Ning, J. P. Perdew, and J. Sun.,  J. Phys. Chem. Lett. 11, 8208-8215 (2020)
[ 2]  J. W. Furness, A. D. Kaplan, J. Ning, J. P. Perdew, and J. Sun.,  J. Phys. Chem. Lett. 11, 9248-9248 (2020)
Using LibXC functional ID 498 : Re-regularized SCAN correlation by Furness et al
[ 1]  J. W. Furness, A. D. Kaplan, J. Ning, J. P. Perdew, and J. Sun.,  J. Phys. Chem. Lett. 11, 8208-8215 (2020)
[ 2]  J. W. Furness, A. D. Kaplan, J. Ning, J. P. Perdew, and J. Sun.,  J. Phys. Chem. Lett. 11, 9248-9248 (2020)
Using LibXC functional ID 497 : Re-regularized SCAN exchange by Furness et al
[ 1]  J. W. Furness, A. D. Kaplan, J. Ning, J. P. Perdew, and J. Sun.,  J. Phys. Chem. Lett. 11, 8208-8215 (2020)
[ 2]  J. W. Furness, A. D. Kaplan, J. Ning, J. P. Perdew, and J. Sun.,  J. Phys. Chem. Lett. 11, 9248-9248 (2020)
Using LibXC functional ID 498 : Re-regularized SCAN correlation by Furness et al
[ 1]  J. W. Furness, A. D. Kaplan, J. Ning, J. P. Perdew, and J. Sun.,  J. Phys. Chem. Lett. 11, 8208-8215 (2020)
[ 2]  J. W. Furness, A. D. Kaplan, J. Ning, J. P. Perdew, and J. Sun.,  J. Phys. Chem. Lett. 11, 9248-9248 (2020)

================================================================================
                                       INPUT FILE
================================================================================
NAME = xtb_opt.inp
|  1> ! r2scan-3c def2/J RI DEFGRID2 scfconv7 ENGRAD tightSCF miniprint
|  2> %cpcm
|  3>     smd true
|  4>     smdsolvent "water"
|  5> end
|  6> * xyzfile 0 1 xtb_opt.xyz
|  7> 
|  8>                          ****END OF INPUT****
================================================================================

                     *******************************
                     * Energy+Gradient Calculation *
                     *******************************

---------------------------------
CARTESIAN COORDINATES (ANGSTROEM)
---------------------------------
  C     -0.694351   -1.211783   -0.000007
  C      0.694356   -1.211784    0.000001
  C      1.374631    0.000000    0.000008
  C      0.694359    1.211787    0.000007
  C     -0.694349    1.211787   -0.000004
  C     -1.374624    0.000003   -0.000011
  Cl    -3.120618    0.000004    0.000001
  Cl     3.120620   -0.000003    0.000002
  H     -1.237756   -2.148282   -0.000023
  H      1.237757   -2.148283   -0.000004
  H      1.237764    2.148289    0.000000
  H     -1.237751    2.148285   -0.000010

----------------------------
CARTESIAN COORDINATES (A.U.)
----------------------------
  NO LB      ZA    FRAG     MASS         X           Y           Z
   0 C     6.0000    0    12.011   -1.312134   -2.289938   -0.000013
   1 C     6.0000    0    12.011    1.312142   -2.289939    0.000001
   2 C     6.0000    0    12.011    2.597676    0.000000    0.000014
   3 C     6.0000    0    12.011    1.312149    2.289945    0.000014
   4 C     6.0000    0    12.011   -1.312129    2.289945   -0.000007
   5 C     6.0000    0    12.011   -2.597663    0.000005   -0.000021
   6 Cl   17.0000    0    35.453   -5.897114    0.000007    0.000002
   7 Cl   17.0000    0    35.453    5.897116   -0.000005    0.000005
   8 H     1.0000    0     1.008   -2.339020   -4.059665   -0.000043
   9 H     1.0000    0     1.008    2.339022   -4.059667   -0.000007
  10 H     1.0000    0     1.008    2.339036    4.059678    0.000000
  11 H     1.0000    0     1.008   -2.339011    4.059670   -0.000019

------------------------------------------------------------------------------
                   ___                                                        
                  /   \      - P O W E R E D   B Y -                         
                 /     \                                                     
                 |  |  |   _    _      __       _____    __    __             
                 |  |  |  | |  | |    /  \     |  _  \  |  |  /  |          
                  \  \/   | |  | |   /    \    | | | |  |  | /  /          
                 / \  \   | |__| |  /  /\  \   | |_| |  |  |/  /          
                |  |  |   |  __  | /  /__\  \  |    /   |      \           
                |  |  |   | |  | | |   __   |  |    \   |  |\   \          
                \     /   | |  | | |  |  |  |  | |\  \  |  | \   \       
                 \___/    |_|  |_| |__|  |__|  |_| \__\ |__|  \__/        
                                                                              
                      - O R C A' S   B I G   F R I E N D -                    
                                      &                                       
                       - I N T E G R A L  F E E D E R -                       
                                                                              
 v1 FN, 2020, v2 2021, v3 2022-2024                                           
------------------------------------------------------------------------------


----------------------
SHARK INTEGRAL PACKAGE
----------------------

Number of atoms                             ...     12
Number of basis functions                   ...    188
Number of shells                            ...     88
Maximum angular momentum                    ...      2
Integral batch strategy                     ... SHARK/LIBINT Hybrid
RI-J (if used) integral strategy            ... SPLIT-RIJ (Revised 2003 algorithm where possible)
Printlevel                                  ...      1
Contraction scheme used                     ... SEGMENTED contraction
Prescreening option                         ... SCHWARTZ
   Thresh                                   ... 3.000e-11
   Tcut                                     ... 1.000e-12
   Tpresel                                  ... 1.000e-12 
Coulomb Range Separation                    ... NOT USED
Exchange Range Separation                   ... NOT USED
Multipole approximations                    ... NOT USED
Finite Nucleus Model                        ... NOT USED
CABS basis                                  ... NOT available
Auxiliary Coulomb fitting basis             ... AVAILABLE
   # of basis functions in Aux-J            ...    440
   # of shells in Aux-J                     ...    144
   Maximum angular momentum in Aux-J        ...      4
Auxiliary J/K fitting basis                 ... NOT available
Auxiliary Correlation fitting basis         ... NOT available
Auxiliary 'external' fitting basis          ... NOT available

Checking pre-screening integrals            ... done (  0.0 sec) Dimension = 88
Check shell pair data                       ... done (  0.0 sec)
Shell pair information
Shell pair cut-off parameter TPreSel        ...   1.0e-12
Total number of shell pairs                 ...      3916
Shell pairs after pre-screening             ...      3533
Total number of primitive shell pairs       ...     16155
Primitive shell pairs kept                  ...     10143
          la=0 lb=0:   1008 shell pairs
          la=1 lb=0:   1316 shell pairs
          la=1 lb=1:    437 shell pairs
          la=2 lb=0:    436 shell pairs
          la=2 lb=1:    282 shell pairs
          la=2 lb=2:     54 shell pairs

Calculating one electron integrals          ... done (  0.0 sec)
Calculating RI/J V-Matrix + Cholesky decomp.... done (  0.1 sec)
Calculating Nuclear repulsion               ... done (  0.0 sec) ENN=    449.433055666989 Eh

Diagonalization of the overlap matrix:
Smallest eigenvalue                        ... 3.216e-05
Time for diagonalization                   ...    0.003 sec
Threshold for overlap eigenvalues          ... 1.000e-07
Number of eigenvalues below threshold      ... 0
Time for construction of square roots      ...    0.015 sec
Total time needed                          ...    0.026 sec

-------------------
DFT GRID GENERATION
-------------------

General Integration Accuracy     IntAcc      ... 4.388
Radial Grid Type                 RadialGrid  ... OptM3 with GC (2021)
Angular Grid (max. ang.)         AngularGrid ... 4 (Lebedev-302)
Angular grid pruning method      GridPruning ... 4 (adaptive)
Weight generation scheme         WeightScheme... mBecke (2022)
Basis function cutoff            BFCut       ... 1.0000e-11
Integration weight cutoff        WCut        ... 1.0000e-14
Partially contracted basis set               ... off
Rotationally invariant grid construction     ... off
Angular grids for H and He will be reduced by one unit

Total number of grid points                  ...    63584
Total number of batches                      ...     1002
Average number of points per batch           ...       63
Average number of grid points per atom       ...     5299
Initializing property integral containers    ... done (  0.0 sec)

SHARK setup successfully completed in   0.9 seconds

Maximum memory used throughout the entire STARTUP-calculation: 29.7 MB
Occupation numbers will be reassigned to an Aufbau configuration
             **** ENERGY FILE WAS UPDATED (xtb_opt.en.tmp) ****
Finished Guess after   0.3 sec
Maximum memory used throughout the entire GUESS-calculation: 13.0 MB
--------------------
CPCM SOLVATION MODEL
--------------------
CPCM parameters:
  Epsilon                                         ...      78.3550
  Refrac                                          ...       1.3328
  Rsolv                                           ...       1.3000
  Surface type                                    ... GAUSSIAN VDW
  Discretization scheme                           ... Constant charge density
    Threshold for H atoms                         ...       5.0000 (charges/Ang^2)
    Threshold for non-H atoms                     ...       5.0000 (charges/Ang^2)
  Epsilon function type                           ...         CPCM
Solvent:                                          ... WATER
SMD-CDS solvent descriptors:
  Soln                                            ...       1.3328
  Soln25                                          ...       1.3323
  Sola                                            ...       0.0000
  Solb                                            ...       0.0000
  Solg                                            ...       0.0000
  Solc                                            ...       0.0000
  Solh                                            ...       0.0000
Radii:
  Scheme                                          ... Element-dependent radii
  Radius for C  used is    3.4960 Bohr (=   1.8500 Ang.)
  Radius for Cl used is    4.4975 Bohr (=   2.3800 Ang.)
  Radius for H  used is    2.2677 Bohr (=   1.2000 Ang.)
Calculating surface                               ...        done! (  0.0s)
Cavity surface points                             ...         1170
Cavity Volume                                     ...    1146.6129
Cavity Surface-area                               ...     638.5484
Calculating surface distance matrix               ...        done! (  0.0s)
Performing Cholesky decomposition & store         ...        done! (  0.1s)
Overall time for CPCM initialization              ...                 0.1s

----------------------------------------D-I-I-S--------------------------------------------
Iteration    Energy (Eh)           Delta-E    RMSDP     MaxDP     DIISErr   Damp  Time(sec)
-------------------------------------------------------------------------------------------
               ***  Starting incremental Fock matrix formation  ***
                              *** Initializing SOSCF ***
---------------------------------------S-O-S-C-F--------------------------------------
Iteration    Energy (Eh)           Delta-E    RMSDP     MaxDP     MaxGrad    Time(sec)
--------------------------------------------------------------------------------------
    1    -1151.3487223159074802     0.00e+00  1.68e-04  2.57e-03  3.75e-04     2.4
               *** Restarting incremental Fock matrix formation ***
    2    -1151.3487944838375370    -7.22e-05  7.61e-05  1.53e-03  6.20e-04     2.3
    3    -1151.3487876556348510     6.83e-06  4.15e-05  9.12e-04  1.03e-03     2.0
    4    -1151.3488034943320599    -1.58e-05  9.35e-06  2.10e-04  7.82e-05     1.9
    5    -1151.3488034416577648     5.27e-08  4.26e-06  5.86e-05  8.66e-05     1.7
                 **** Energy Check signals convergence ****

               *****************************************************
               *                     SUCCESS                       *
               *           SCF CONVERGED AFTER   5 CYCLES          *
               *****************************************************


SMD CDS free energy correction energy :                 2.84436     Kcal/mol
Total Energy after SMD CDS correction =             -1151.344270666 Eh
             **** ENERGY FILE WAS UPDATED (xtb_opt.en.tmp) ****

----------------
TOTAL SCF ENERGY
----------------

Total Energy       :      -1151.34427066623948 Eh          -31329.67037 eV

Components:
Nuclear Repulsion  :        449.43305566698876 Eh           12229.69519 eV
Electronic Energy  :      -1600.77414297632208 Eh          -43559.27894 eV
One Electron Energy:      -2474.30148819173655 Eh          -67329.16644 eV
Two Electron Energy:        873.52734521541447 Eh           23769.88750 eV
CPCM Dielectric    :         -0.00771613232448 Eh              -0.20997 eV
SMD CDS (Gcds)     :          0.00453277541817 Eh               0.12334 eV

Virial components:
Potential Energy   :      -2299.55925362956668 Eh          -62574.18850 eV
Kinetic Energy     :       1148.21498296332720 Eh           31244.51813 eV
Virial Ratio       :          2.00272534999921

DFT components:
N(Alpha)           :       37.000008552612 electrons
N(Beta)            :       37.000008552612 electrons
N(Total)           :       74.000017105225 electrons
E(X)               :      -87.759693567253 Eh       
E(C)               :       -2.624369594817 Eh       
E(XC)              :      -90.384063162071 Eh       

CPCM Solvation Model Properties:
Surface-charge          :         -0.01887087721749
Corrected charge        :          0.00000000000000
Outlying charge corr.   :          0.00002504854388 Eh               0.00068 eV
Free-energy (cav+disp)  :          0.00453277541817 Eh               0.12334 eV

---------------
SCF CONVERGENCE
---------------

  Last Energy change         ...   -5.2674e-08  Tolerance :   1.0000e-07
  Last MAX-Density change    ...    5.8582e-05  Tolerance :   1.0000e-07
  Last RMS-Density change    ...    4.2646e-06  Tolerance :   5.0000e-09
  Last DIIS Error            ...    2.9104e-03  Tolerance :   1.0000e-07
  Last Orbital Gradient      ...    8.6578e-05  Tolerance :   1.0000e-04
  Last Orbital Rotation      ...    1.0504e-04  Tolerance :   1.0000e-04


----------------
ORBITAL ENERGIES
----------------

  NO   OCC          E(Eh)            E(eV) 
   0   2.0000    -101.226508     -2754.5133 
   1   2.0000    -101.226506     -2754.5133 
   2   2.0000     -10.108279      -275.0602 
   3   2.0000     -10.108273      -275.0601 
   4   2.0000     -10.057523      -273.6791 
   5   2.0000     -10.057508      -273.6787 
   6   2.0000     -10.057067      -273.6667 
   7   2.0000     -10.057066      -273.6667 
   8   2.0000      -9.382331      -255.3062 
   9   2.0000      -9.382329      -255.3061 
  10   2.0000      -7.128455      -193.9751 
  11   2.0000      -7.128455      -193.9751 
  12   2.0000      -7.118671      -193.7089 
  13   2.0000      -7.118671      -193.7089 
  14   2.0000      -7.118176      -193.6954 
  15   2.0000      -7.118176      -193.6954 
  16   2.0000      -0.876619       -23.8540 
  17   2.0000      -0.845619       -23.0105 
  18   2.0000      -0.791417       -21.5355 
  19   2.0000      -0.739132       -20.1128 
  20   2.0000      -0.691688       -18.8218 
  21   2.0000      -0.602321       -16.3900 
  22   2.0000      -0.571084       -15.5400 
  23   2.0000      -0.495632       -13.4868 
  24   2.0000      -0.458791       -12.4844 
  25   2.0000      -0.443817       -12.0769 
  26   2.0000      -0.413705       -11.2575 
  27   2.0000      -0.409005       -11.1296 
  28   2.0000      -0.390778       -10.6336 
  29   2.0000      -0.354568        -9.6483 
  30   2.0000      -0.347805        -9.4643 
  31   2.0000      -0.344077        -9.3628 
  32   2.0000      -0.296272        -8.0620 
  33   2.0000      -0.294757        -8.0208 
  34   2.0000      -0.290697        -7.9103 
  35   2.0000      -0.258203        -7.0261 
  36   2.0000      -0.227197        -6.1823 
  37   0.0000      -0.053417        -1.4536 
  38   0.0000      -0.050601        -1.3769 
  39   0.0000      -0.001439        -0.0392 
  40   0.0000       0.012151         0.3306 
  41   0.0000       0.096453         2.6246 
  42   0.0000       0.108211         2.9446 
  43   0.0000       0.127259         3.4629 
  44   0.0000       0.127388         3.4664 
  45   0.0000       0.130173         3.5422 
  46   0.0000       0.168760         4.5922 
  47   0.0000       0.182408         4.9636 
*Only the first 10 virtual orbitals were printed.
Total SCF time: 0 days 0 hours 0 min 10 sec 
Finished LeanSCF after  10.8 sec

Maximum memory used throughout the entire LEANSCF-calculation: 21.7 MB


-------------------------------------------------------------------------------
                          DFT DISPERSION CORRECTION                            
                                                                               
                                DFTD4 V3.4.0                                   
-------------------------------------------------------------------------------
-------------------------   ----------------
Dispersion correction           -0.004679519
-------------------------   ----------------

------------------   -----------------
gCP correction             0.004946012
------------------   -----------------

-------------------------   --------------------
FINAL SINGLE POINT ENERGY     -1151.344004173904
-------------------------   --------------------

------------------------------------------------------------------------------
                         ORCA SCF GRADIENT CALCULATION
------------------------------------------------------------------------------

Nuc. rep. gradient        (SHARK) ... done (  0.0 sec)
HCore & Overlap gradient  (SHARK) ... done (  0.2 sec)
Split-RIJ-J gradient      (SHARK) ... done (  1.3 sec)
XC gradient                       ... done (  4.0 sec)
CPCM gradient                     ... done (  0.6 sec)
SMD gradient                      ... done (  0.0 sec)
Dispersion correction             ... done (  0.0 sec)

-------------------
DISPERSION GRADIENT
-------------------

   1   C   :   -0.000036142   -0.000056552   -0.000000000
   2   C   :    0.000036142   -0.000056552    0.000000000
   3   C   :    0.000063287   -0.000000000    0.000000000
   4   C   :    0.000036142    0.000056552    0.000000000
   5   C   :   -0.000036142    0.000056552   -0.000000000
   6   C   :   -0.000063287    0.000000000   -0.000000000
   7   Cl  :   -0.000163259    0.000000000    0.000000000
   8   Cl  :    0.000163259   -0.000000000    0.000000000
   9   H   :   -0.000019530   -0.000037145   -0.000000000
  10   H   :    0.000019530   -0.000037145   -0.000000000
  11   H   :    0.000019530    0.000037145    0.000000000
  12   H   :   -0.000019530    0.000037145   -0.000000000

Difference to translation invariance:
           :    0.0000000000    0.0000000000   -0.0000000000

Difference to rotation invariance:
           :   -0.0000000000   -0.0000000000   -0.0000000000

Norm of the Dispersion gradient    ...    0.0002939043
RMS gradient                       ...    0.0000489841
MAX gradient                       ...    0.0001632589
gCP correction                   ... done

------------------
CARTESIAN GRADIENT
------------------

   1   C   :    0.001885450    0.000028771    0.000000981
   2   C   :   -0.001884614    0.000028217    0.000000181
   3   C   :    0.005274529   -0.000000578    0.000000197
   4   C   :   -0.001885422   -0.000029371    0.000001142
   5   C   :    0.001884660   -0.000028433    0.000000087
   6   C   :   -0.005272945    0.000000189   -0.000001596
   7   Cl  :    0.004742621   -0.000000099    0.000000628
   8   Cl  :   -0.004745127    0.000000006   -0.000000265
   9   H   :    0.000065388    0.001016000   -0.000000557
  10   H   :   -0.000065952    0.001016669   -0.000000101
[...]
SMD CDS (Gcds)     :          0.00454876476136 Eh               0.12378 eV

Virial components:
Potential Energy   :      -2299.50061955185947 Eh          -62572.59299 eV
Kinetic Energy     :       1148.15625167261965 Eh           31242.91997 eV
Virial Ratio       :          2.00277672677562

DFT components:
N(Alpha)           :       37.000007909899 electrons
N(Beta)            :       37.000007909899 electrons
N(Total)           :       74.000015819798 electrons
E(X)               :      -87.746377587748 Eh       
E(C)               :       -2.623241125973 Eh       
E(XC)              :      -90.369618713721 Eh       

CPCM Solvation Model Properties:
Surface-charge          :         -0.01883651837940
Corrected charge        :         -0.00000000000000
Outlying charge corr.   :          0.00002493146406 Eh               0.00068 eV
Free-energy (cav+disp)  :          0.00454876476136 Eh               0.12378 eV

---------------
SCF CONVERGENCE
---------------

  Last Energy change         ...    5.1837e-09  Tolerance :   1.0000e-07
  Last MAX-Density change    ...    2.2421e-05  Tolerance :   1.0000e-07
  Last RMS-Density change    ...    1.0967e-06  Tolerance :   5.0000e-09
  Last DIIS Error            ...    2.4098e-05  Tolerance :   1.0000e-07
  Last Orbital Gradient      ...    1.0026e-05  Tolerance :   1.0000e-04
  Last Orbital Rotation      ...    3.4221e-05  Tolerance :   1.0000e-04


----------------
ORBITAL ENERGIES
----------------

  NO   OCC          E(Eh)            E(eV) 
   0   2.0000    -101.225980     -2754.4989 
   1   2.0000    -101.225978     -2754.4989 
   2   2.0000     -10.109703      -275.0990 
   3   2.0000     -10.109698      -275.0989 
   4   2.0000     -10.058516      -273.7061 
   5   2.0000     -10.058502      -273.7057 
   6   2.0000     -10.058071      -273.6940 
   7   2.0000     -10.058070      -273.6940 
   8   2.0000      -9.381611      -255.2866 
   9   2.0000      -9.381608      -255.2865 
  10   2.0000      -7.127765      -193.9563 
  11   2.0000      -7.127765      -193.9563 
  12   2.0000      -7.117950      -193.6893 
  13   2.0000      -7.117950      -193.6893 
  14   2.0000      -7.117478      -193.6764 
  15   2.0000      -7.117478      -193.6764 
  16   2.0000      -0.875100       -23.8127 
  17   2.0000      -0.842472       -22.9248 
  18   2.0000      -0.790107       -21.4999 
  19   2.0000      -0.739405       -20.1202 
  20   2.0000      -0.692319       -18.8390 
  21   2.0000      -0.602440       -16.3932 
  22   2.0000      -0.571226       -15.5439 
  23   2.0000      -0.495021       -13.4702 
  24   2.0000      -0.458399       -12.4737 
  25   2.0000      -0.442925       -12.0526 
  26   2.0000      -0.413048       -11.2396 
  27   2.0000      -0.409593       -11.1456 
  28   2.0000      -0.390034       -10.6134 
  29   2.0000      -0.353074        -9.6076 
  30   2.0000      -0.346066        -9.4169 
  31   2.0000      -0.344834        -9.3834 
  32   2.0000      -0.295867        -8.0510 
  33   2.0000      -0.294883        -8.0242 
  34   2.0000      -0.290413        -7.9026 
  35   2.0000      -0.258400        -7.0314 
  36   2.0000      -0.228312        -6.2127 
  37   0.0000      -0.054373        -1.4796 
  38   0.0000      -0.050846        -1.3836 
  39   0.0000      -0.005409        -0.1472 
  40   0.0000       0.007358         0.2002 
  41   0.0000       0.096003         2.6124 
  42   0.0000       0.108315         2.9474 
  43   0.0000       0.126326         3.4375 
  44   0.0000       0.127600         3.4722 
  45   0.0000       0.130439         3.5494 
  46   0.0000       0.168272         4.5789 
  47   0.0000       0.182259         4.9595 
*Only the first 10 virtual orbitals were printed.
Total SCF time: 0 days 0 hours 0 min 5 sec 
Finished LeanSCF after   5.2 sec

Maximum memory used throughout the entire LEANSCF-calculation: 21.6 MB


-------------------------------------------------------------------------------
                          DFT DISPERSION CORRECTION                            
                                                                               
                                DFTD4 V3.4.0                                   
-------------------------------------------------------------------------------
-------------------------   ----------------
Dispersion correction           -0.004671680
-------------------------   ----------------

------------------   -----------------
gCP correction             0.004890763
------------------   -----------------

-------------------------   --------------------
FINAL SINGLE POINT ENERGY     -1151.344148796093
-------------------------   --------------------

------------------------------------------------------------------------------
                         ORCA SCF GRADIENT CALCULATION
------------------------------------------------------------------------------

Nuc. rep. gradient        (SHARK) ... done (  0.0 sec)
HCore & Overlap gradient  (SHARK) ... done (  0.2 sec)
Split-RIJ-J gradient      (SHARK) ... done (  1.3 sec)
XC gradient                       ... done (  4.0 sec)
CPCM gradient                     ... done (  0.6 sec)
SMD gradient                      ... done (  0.0 sec)
Dispersion correction             ... done (  0.0 sec)

-------------------
DISPERSION GRADIENT
-------------------

   1   C   :   -0.000036206   -0.000056737   -0.000000000
   2   C   :    0.000036206   -0.000056737   -0.000000000
   3   C   :    0.000063023   -0.000000000    0.000000000
   4   C   :    0.000036206    0.000056737    0.000000000
   5   C   :   -0.000036206    0.000056737   -0.000000000
   6   C   :   -0.000063023    0.000000000   -0.000000000
   7   Cl  :   -0.000163146    0.000000000   -0.000000000
   8   Cl  :    0.000163146   -0.000000000    0.000000001
   9   H   :   -0.000019355   -0.000037225   -0.000000000
  10   H   :    0.000019355   -0.000037225   -0.000000000
  11   H   :    0.000019355    0.000037225    0.000000000
  12   H   :   -0.000019355    0.000037225    0.000000000

Difference to translation invariance:
           :    0.0000000000    0.0000000000    0.0000000000

Difference to rotation invariance:
           :    0.0000000000   -0.0000000000   -0.0000000000

Norm of the Dispersion gradient    ...    0.0002938342
RMS gradient                       ...    0.0000489724
MAX gradient                       ...    0.0001631465
gCP correction                   ... done

------------------
CARTESIAN GRADIENT
------------------

   1   C   :   -0.000003607   -0.000010354   -0.000000088
   2   C   :    0.000004061   -0.000009733   -0.000000097
   3   C   :    0.000046932    0.000000062    0.000000115
   4   C   :    0.000004136    0.000009802   -0.000000117
   5   C   :   -0.000003517    0.000010346   -0.000000055
   6   C   :   -0.000047230   -0.000000014    0.000000212
   7   Cl  :   -0.000056028    0.000000005   -0.000000038
   8   Cl  :    0.000055734    0.000000004    0.000000020
   9   H   :   -0.000003133   -0.000072714    0.000000020
  10   H   :    0.000002973   -0.000072706    0.000000007
  11   H   :    0.000002848    0.000072528    0.000000023
  12   H   :   -0.000003167    0.000072773   -0.000000001

Difference to translation invariance:
           :    0.0000000000    0.0000000000    0.0000000000

Difference to rotation invariance:
           :    0.0000000071   -0.0000000196    0.0000000113

Norm of the Cartesian gradient     ...    0.0001797478
RMS gradient                       ...    0.0000299580
MAX gradient                       ...    0.0000727731

-------
TIMINGS
-------

Total SCF gradient time     ....        6.643 sec

Densities                   ....       0.000 sec  (  0.0%)
One electron gradient       ....       0.160 sec  (  2.4%)
RI-J Coulomb gradient       ....       1.258 sec  ( 18.9%)
XC gradient                 ....       4.011 sec  ( 60.4%)
CPCM gradient               ....       0.642 sec  (  9.7%)
   A-Matrix (El+Nuc)        ....       0.046 sec  (  0.7%)
   Potential                ....       0.595 sec  (  9.0%)
SMD gradient                ....       0.013 sec  (  0.2%)

Maximum memory used throughout the entire SCFGRAD-calculation: 33.1 MB

------------------------------------------------------------------------------
                              ORCA PROPERTY CALCULATIONS
------------------------------------------------------------------------------

GBWName                                 ... xtb_opt.gbw
Number of atoms                         ...     12
Number of basis functions               ...    188
Max core memory                         ...   1024 MB

Electric properties:
Dipole moment                           ... YES
Quadrupole moment                       ...  NO
Static polarizability (Dipole/Dipole)   ...  NO
Static polarizability (Dipole/Quad.)    ...  NO
Static polarizability (Quad./Quad.)     ...  NO
Static polarizability (Velocity)        ...  NO

Atomic electric properties:
Dipole moment                           ...  NO
Quadrupole moment                       ...  NO
Static polarizability                   ...  NO

Choice of electric origin               ... Center of mass
Position of electric origin             ...     0.000006     0.000003    -0.000005

General magnetic properties:
Magnetizability                         ...  NO

EPR properties:
g-Tensor (aka g-matrix)                 ...  NO
Zero-Field splitting spin-orbit         ...  NO
Zero-field splitting spin-spin          ...  NO
Hyperfine couplings                     ...  NO (   0 nuclei)
Quadrupole couplings                    ...  NO (   0 nuclei)
Contact density                         ...  NO (   0 nuclei)

NMR properties:
Chemical shifts                         ...  NO (   0 nuclei)
Spin-rotation constants                 ...  NO (   0 nuclei)
Spin-spin couplings                     ...  NO (   0 nuclei,    0 pairs)

Choice of magnetic origin               ... GIAO
Position of magnetic origin             ...     0.000000     0.000000     0.000000

Properties with geometric perturbations:
SCF Hessian                             ...  NO
IR spectrum                             ...  NO
VCD spectrum                            ...  NO
X-ray spectroscopy properties:
SCF XES/XAS/RIXS spectra                ...  NO


-------------
DIPOLE MOMENT
-------------

Method             : SCF
Type of density    : Electron Density
Multiplicity       :   1
Irrep              :   0
Energy             : -1151.3443678792398259 Eh
Relativity type    : 
Basis              : AO
                                X                 Y                 Z
Electronic contribution:     -0.000006675       0.000000674       0.000006070
Nuclear contribution   :     -0.000000100      -0.000000433      -0.000006984
                        -----------------------------------------
Total Dipole Moment    :     -0.000006775       0.000000241      -0.000000914
                        -----------------------------------------
Magnitude (a.u.)       :      0.000006841
Magnitude (Debye)      :      0.000017388



--------------------
Rotational spectrum 
--------------------
 
Rotational constants in cm-1:             0.188332             0.021910             0.019627 
Rotational constants in MHz :          5646.059982           656.844792           588.393007 

Dipole components along the rotational axes: 
x,y,z [a.u.] :    -0.000007    -0.000000    -0.000001 
x,y,z [Debye]:    -0.000017    -0.000001    -0.000002 

 

Dipole moment calculation done in   0.0 sec 

Maximum memory used throughout the entire PROP-calculation: 11.5 MB

--------------------------------
SUGGESTED CITATIONS FOR THIS RUN
--------------------------------

Below you find a list of papers that are relevant to this ORCA run
We neither can nor want to force you to cite these papers, but we appreciate if you do
You receive ORCA, which is the product of decades of hard work by many enthusiastic individuals, for free
The only thing we kindly ask in return is that you cite our papers,
We deeply appreciate it, if you show your appreciation for ORCA by not just citing the generic ORCA reference.

Please note that relegating all ORCA citations to the supporting information does *not* help us.
SI sections are not indexed - citations you put there will not count into any citation statistics
But we need these citations in order to attract the funding resources that allow us to do what we are doing

Therefore, if you are a happy ORCA user, please consider citing a few of the papers listed below in the main body of your paper

In addition to the list printed below, the program has created the file xtb_opt.bibtex that contains the list in bibtex format
You can import this file easily into all common literature databanks and citation aid programs


List of essential papers. We consider these as the minimum necessary citations

  1. Neese,F.
     Software update: the ORCA program system, version 5.0
     WIRES Comput. Molec. Sci., 2022 12(1)e1606
     doi.org/10.1002/wcms.1606
  2. Grimme,S.; Hansen,A.; Ehlert,S.; Mewes,J.
     r2SCAN-3c: A 'Swiss army knife' composite electronic-structure method
     J. Chem. Phys., 2021 154 064103
     doi.org/10.1063/5.0040021

List of papers to cite with high priority. The work reported in these papers was absolutely
necessary for this run to complete.
Our perspective: the developers of density functionals and basis sets usually get cited in chemistry papers
Good! But without the algorithms to do something with them, the functionals or basis sets would not do anything.
Hence, in our opinion, the algorithm design and method developments papers are equally worthy of getting cited

  1. Neese,F.
     An improvement of the resolution of the identity approximation for the formation of the Coulomb matrix
     J. Comp. Chem., 2003 24(14)1740-1747
     doi.org/10.1002/jcc.10318
  2. Garcia-Rates,M.; Neese,F.
     Effect of the Solute Cavity on the Solvation Energy and its Derivatives within the Framework of the Gaussian Charge Scheme
     J. Comput. Chem., 2020 41 922-939
     doi.org/10.1002/jcc.26139
  3. Neese,F.
     The SHARK Integral Generation and Digestion System
     J. Comp. Chem., 2022  1-16
     doi.org/10.1002/jcc.26942
  4. Lehtola,S.; Steigemann,C.; Oliveira,M.; Marques,M.
     Recent developments in Libxc - A comprehensive library of functionals for density functional theory
     Software X, 2018 7 
     doi.org/10.1016/j.softx.2017.11.002
  5. Caldeweyher,E.; Bannwarth,C.; Grimme,S.
     Extension of the D3 dispersion coefficient model
     J. Chem. Phys., 2017 147 034112-XXXX
     doi.org/10.1063/1.4993215
  6. Caldeweyher,E.; Ehlert,S.; Hansen,A.; Neugebauer,H.; Spicher,S.; Bannwarth,C.; Grimme,S.
     A generally applicable atomic-charge dependent London dispersion correction
     J. Chem. Phys., 2019 150 154122-XXXX
     doi.org/10.1063/1.5090222
  7. Caldeweyher,E.; Mewes,J.; Ehlert,S.; Grimme,S.
     Extension and evaluation of the D4 London-dispersion model for periodic systems
     Phys. Chem. Chem. Phys., 2020 22(16)8499-8512
     doi.org/10.1039/D0CP00502A

List of suggested additional citations. These are papers that are important in the 'surrounding' of 
of this run, or papers that preceded the highly important papers. If you like your results we are grateful for a citation.

  1. Neese,F.
     The ORCA program system
     WIRES Comput. Molec. Sci., 2012 2(1)73-78
     doi.org/10.1002/wcms.81
  2. Neese,F.
     Software update: the ORCA program system, version 4.0
     WIRES Comput. Molec. Sci., 2018 8(1)1-6
     doi.org/10.1002/wcms.1327
  3. Neese,F.; Wennmohs,F.; Becker,U.; Riplinger,C.
     The ORCA quantum chemistry program package
     J. Chem. Phys., 2020 152 Art. No. L224108
     doi.org/10.1063/5.0004608

List of optional additional citations

  1. Neese,F.
     Approximate second-order SCF convergence for spin unrestricted wavefunctions
     Chem. Phys. Lett., 2000 325(1-3)93-98
     doi.org/10.1016/s0009-2614(00)00662-x

Timings for individual modules:

Sum of individual times          ...       13.383 sec (=   0.223 min)
Startup calculation              ...        0.959 sec (=   0.016 min)   7.2 %
SCF iterations                   ...        5.557 sec (=   0.093 min)  41.5 %
Property calculations            ...        0.110 sec (=   0.002 min)   0.8 %
SCF Gradient evaluation          ...        6.757 sec (=   0.113 min)  50.5 %
                             ****ORCA TERMINATED NORMALLY****
TOTAL RUN TIME: 0 days 0 hours 0 minutes 14 seconds 119 msec
  ------------------------------------------------------------------------
          * successful ORCA run, taking over control again...

         :::::::::::::::::::::::::::::::::::::::::::::::::::::
         ::                  ORCA SUMMARY                   ::
         :::::::::::::::::::::::::::::::::::::::::::::::::::::
         :: total energy           -1151.344148796093 Eh    ::
         :: gradient norm              0.000179747838 Eh/a0 ::
         :: HOMO-LUMO gap              0.000000000000 eV    ::
         :::::::::::::::::::::::::::::::::::::::::::::::::::::

           -------------------------------------------------
          |                Property Printout                |
           -------------------------------------------------
           -------------------------------------------------
          |                Geometry Summary                 |
           -------------------------------------------------

      molecular mass/u    :      147.0020536
   center of mass at/Å    :        0.0000032       0.0000016      -0.0000026
  moments of inertia/u·Å² :        0.8950748E+02   0.7694018E+03   0.8589092E+03
rotational constants/cm⁻¹ :        0.1883377E+00   0.2191005E-01   0.1962679E-01

 * 12 selected distances

     #   Z          #   Z                                           value/Å
     1   6 C        2   6 C                                       1.3913936
     2   6 C        3   6 C                                       1.3894591
     3   6 C        4   6 C                                       1.3894590
     4   6 C        5   6 C                                       1.3913935
     1   6 C        6   6 C                                       1.3894592
     5   6 C        6   6 C                                       1.3894592
     6   6 C        7  17 Cl                                      1.7589402 (max)
     3   6 C        8  17 Cl                                      1.7589400
     1   6 C        9   1 H                                       1.0839431
     2   6 C       10   1 H                                       1.0839431
     4   6 C       11   1 H                                       1.0839428 (min)
     5   6 C       12   1 H                                       1.0839432

 * 3 distinct bonds (by element types)

   Z      Z             #   av. dist./Å        max./Å        min./Å
   1 H    6 C           4     1.0839431     1.0839432     1.0839428
   6 C    6 C           6     1.3901039     1.3913936     1.3894590
   6 C   17 Cl          2     1.7589401     1.7589402     1.7589400


optimized geometry written to: xtbopt.coord


           -------------------------------------------------
          | TOTAL ENERGY            -1151.344148796093 Eh   |
          | GRADIENT NORM               0.000179747838 Eh/α |
           -------------------------------------------------

------------------------------------------------------------------------
 * finished run on 2025/04/03 at 20:54:11.692     
------------------------------------------------------------------------
 total:
 * wall-time:     0 d,  0 h,  1 min, 45.802 sec
 *  cpu-time:     0 d,  0 h,  0 min,  0.012 sec
 * ratio c/w:     0.000 speedup
 SCF:
 * wall-time:     0 d,  0 h,  0 min, 17.832 sec
 *  cpu-time:     0 d,  0 h,  0 min,  0.001 sec
 * ratio c/w:     0.000 speedup
 ANC optimizer:
 * wall-time:     0 d,  0 h,  1 min, 27.951 sec
 *  cpu-time:     0 d,  0 h,  0 min,  0.009 sec
 * ratio c/w:     0.000 speedup

