41
 energy: -2932.484488787075 gnorm: 0.001585221290 xtb: 6.7.1 (edcfbbe)
C            4.54070895494167       -1.33810207626745       -2.66625908590313
C            4.69291644261424       -1.63259055980130       -1.19466201852546
O            3.39484929195816       -1.76648767780856       -0.51983879182111
P            2.49469902461828       -0.50214208305229       -0.08413567196885
S            3.44632542806457        1.14315477631455        0.34439717897427
O            1.59675471610023       -1.15883981235126        1.07306435745291
C            2.15289854713098       -1.36427731423791        2.42420667761602
C            1.36933007315016       -0.52486518411286        3.40034864067886
S            1.08276913143602       -0.40845021023699       -1.65863010460644
C            0.40457535415928        1.28214106026607       -1.42979880651869
S           -0.53767304753020        1.62894317866620        0.10682064064913
P           -2.17793516313516        0.30652406298997       -0.10862338642287
S           -2.83075206721286        0.02822005420632       -1.92205193004067
O           -3.21238188243351        0.93435492332972        0.95797548831598
C           -4.04991708218377        2.08636455262084        0.59382304288714
C           -4.85893606203228        2.45107049834165        1.81108471960768
O           -1.67492658807149       -0.98605021041036        0.70149345522807
C           -2.27511979666085       -2.31341651151448        0.48836776839422
C           -3.64950092408031       -2.41243556287913        1.10203905954945
H            3.91780647495449       -2.09204693748573       -3.15619443187878
H            4.10647445324271       -0.34918773942898       -2.83765362748846
H            5.53312607111240       -1.35808759450085       -3.12835931974216
H            5.26951823159718       -0.85845175119461       -0.67979291336811
H            5.16829702947029       -2.60124366625889       -1.02700267710438
H            2.04487910744081       -2.43393593009268        2.62010341912929
H            3.21751068724920       -1.10946779781857        2.42844343149556
H            1.70965288932493       -0.74198035459482        4.41756689912460
H            1.51585360371221        0.54121258255801        3.20360239610930
H            0.30152705125666       -0.75501023308671        3.33551295971049
H           -0.24199145757790        1.44726785202699       -2.29661898275625
H            1.22134967388514        2.01003710150958       -1.43799419049995
H           -3.39716065290599        2.90812877427086        0.28027925810192
H           -4.68662788716020        1.79140284091648       -0.24552160752878
H           -5.49602403261368        1.61746635571915        2.12023789909090
H           -4.21014659239133        2.73493330781605        2.64437053145927
H           -5.50022089567911        3.30320279548188        1.56594316633617
H           -2.28816135510701       -2.51411110303148       -0.58720404879568
H           -1.56648358137796       -2.99089812943607        0.96886271266509
H           -4.36062568848195       -1.74528063382043        0.60595623372920
H           -4.01050248676383       -3.43950273448182        0.98575544201014
H           -3.62102306105576       -2.17430153870679        2.16897090859487
41
 energy: -2932.484473316872 gnorm: 0.003179457913 xtb: 6.7.1 (edcfbbe)
C            4.54021251394663       -1.33819528201597       -2.66552098592235
C            4.69537569834810       -1.63370673962638       -1.19452215093691
O            3.39862824912975       -1.77028257301566       -0.51734894735408
P            2.49640615513025       -0.50717162914813       -0.08221039644570
S            3.44008164247576        1.14380723005691        0.34021831118859
O            1.59724519472963       -1.16253936857885        1.07454168509273
C            2.15253400729572       -1.36532031802881        2.42591607186515
C            1.36761111496030       -0.52718747797011        3.40158142046831
S            1.08395234236612       -0.39959617826223       -1.65389311047828
C            0.39811245056001        1.28850172955814       -1.43422073048805
S           -0.54002760977183        1.63178076536460        0.10554891220861
P           -2.17701693505840        0.30602823493355       -0.11112304247880
S           -2.83102044922674        0.02831691443124       -1.92372448150390
O           -3.21123684343132        0.93395942134682        0.95577185537699
C           -4.04859507343130        2.08651011321583        0.59283074125851
C           -4.85640363153250        2.45073643584629        1.81098859341900
O           -1.67416518432481       -0.98651410008075        0.69837568392351
C           -2.27495050240437       -2.31374375505078        0.48766169575268
C           -3.64857576364498       -2.41189503188711        1.10313895817026
H            3.91580465922916       -2.09152424709915       -3.15471440260530
H            4.10658285202379       -0.34867851811159       -2.83600619222918
H            5.53200050041982       -1.35889918078499       -3.12917691438619
H            5.27072767592365       -0.85871656388744       -0.67964262060201
H            5.17151347393521       -2.60194049455250       -1.02729088350307
H            2.04592640304967       -2.43504405183710        2.62188145831687
H            3.21648621712444       -1.10891250622016        2.43018276369139
H            1.71135117172259       -0.74201628013428        4.41856658575200
H            1.50990923426463        0.53902708635698        3.20353579856652
H            0.30036763854465       -0.76117307239545        3.33973354343670
H           -0.24673044776371        1.45182753636089       -2.30249711683706
H            1.21595478405606        2.01506721779159       -1.44098252627284
H           -3.39522472699420        2.90780031118848        0.27950737708771
H           -4.68572039543948        1.79206447082523       -0.24632014460116
H           -5.49298776148646        1.61698470410257        2.12059910391661
H           -4.20696869008402        2.73457068941125        2.64371205212883
H           -5.49813776948529        3.30272436349647        1.56669772896488
H           -2.28932632705728       -2.51563867122735       -0.58764315396053
H           -1.56577720893008       -2.99066853419409        0.96812453459910
H           -4.36095905686691       -1.74714071679741        0.60525073122236
H           -4.00852769268972       -3.44000894545579        0.99112587192951
H           -3.61893306289726       -2.16977929470042        2.16932806715941
41
 energy: -2932.484501829400 gnorm: 0.001311614143 xtb: 6.7.1 (edcfbbe)
C            4.53953508727073       -1.33745557951305       -2.66551535024761
C            4.69412892876561       -1.63234911511675       -1.19443703901183
O            3.39676557154001       -1.76776905086728       -0.51761254697232
P            2.49478083503959       -0.50444396922255       -0.08253571134845
S            3.44148838060120        1.14405099807048        0.34317819199760
O            1.59621006779509       -1.16069419964255        1.07418474041570
C            2.15199552610617       -1.36484934282261        2.42524141469821
C            1.36688516486755       -0.52802640840276        3.40178601340034
S            1.08368530072592       -0.40322526290546       -1.65656122927237
C            0.40097271661236        1.28601445051680       -1.43374054581702
S           -0.53949828689873        1.63071595943674        0.10422320964829
P           -2.17731832127561        0.30593383315171       -0.11173344322183
S           -2.83113836364959        0.02848643991158       -1.92443438959198
O           -3.21154595899319        0.93362088963384        0.95532106264654
C           -4.04839318690564        2.08658534891417        0.59267299011819
C           -4.85569738179074        2.45079454330091        1.81112001258243
O           -1.67410774233679       -0.98650572515888        0.69742148829141
C           -2.27486114125903       -2.31380261876011        0.48744555200613
C           -3.64819128535929       -2.41169471368974        1.10362258234675
H            3.91455270278775       -2.09053998415053       -3.15438740069286
H            4.10676824804073       -0.34762501578108       -2.83633226737825
H            5.53137633268885       -1.35926230568318       -3.12906563607187
H            5.26987150272313       -0.85766308019273       -0.67958421068566
H            5.16964378254398       -2.60084516051186       -1.02681576013193
H            2.04593143972878       -2.43475373386443        2.62060422789505
H            3.21582287377276       -1.10805329043957        2.42988949481908
H            1.71210925626073       -0.74254751533891        4.41841309081183
H            1.50744676598156        0.53840746520434        3.20385388778256
H            0.29988571183920       -0.76353709764235        3.34120551130005
H           -0.24404841799470        1.44972603195642       -2.30186650715380
H            1.21832515125644        2.01317079274340       -1.44081635655619
H           -3.39465306832660        2.90761298272363        0.27942502562375
H           -4.68571791730664        1.79253508467251       -0.24645518542037
H           -5.49214141751681        1.61700999788185        2.12090098998428
H           -4.20587529696617        2.73450574321783        2.64357674585427
H           -5.49748915106640        3.30281963780265        1.56715138907648
H           -2.28975574901369       -2.51613121908292       -0.58777419552248
H           -1.56545487057857       -2.99051973345385        0.96785059029773
H           -4.36110463333250       -1.74795643460317        0.60508767077614
H           -4.00769727882092       -3.44017302383222        0.99327787136784
H           -3.61814810802454       -2.16804570095860        2.16947857774699
41
 energy: -2932.484514545277 gnorm: 0.001025487370 xtb: 6.7.1 (edcfbbe)
C            4.53762464663476       -1.33562915812811       -2.66493378358179
C            4.69231354434459       -1.62969819256213       -1.19386714500053
O            3.39447424130733       -1.76405573237448       -0.51660757967011
P            2.49248312737660       -0.50051649197838       -0.08225451443287
S            3.44125106487043        1.14618833762914        0.34733410192840
O            1.59386568630399       -1.15795538032680        1.07374210460794
C            2.15017747067686       -1.36450967239195        2.42435033254467
C            1.36352047601683       -0.53192618127527        3.40318247905563
S            1.08370365160073       -0.40771287560264       -1.65946429597434
C            0.40431652108167        1.28297866953993       -1.43445013673810
S           -0.53912017182664        1.63006595258642        0.10097100048089
P           -2.17751040556975        0.30554093026491       -0.11525225937952
S           -2.83235973141237        0.02770051897375       -1.92789330194098
O           -3.21131143801607        0.93246187607591        0.95272059800663
C           -4.04695203688026        2.08680168943625        0.59172872882831
C           -4.85238901123256        2.45099045964335        1.81133502820191
O           -1.67296334204917       -0.98638195452354        0.69304835813959
C           -2.27420857898209       -2.31386361856640        0.48643201746923
C           -3.64630844587961       -2.41066723434702        1.10563371005502
H            3.91044571469581       -2.08756387859273       -3.15271602016537
H            4.10721966453479       -0.34490121428043       -2.83612418490777
H            5.52899900598228       -1.36037840437502       -3.12934825103317
H            5.26862956668131       -0.85523560527737       -0.67934454208472
H            5.16726517238135       -2.59843716248777       -1.02601558622981
H            2.04683843706260       -2.43510287121445        2.61770393937515
H            3.21343284221379       -1.10516151811016        2.42980599466487
H            1.71380805402648       -0.74401174733230        4.41861225739436
H            1.49723510785151        0.53530444998209        3.20451769917818
H            0.29768203719402       -0.77371373523306        3.34690178306435
H           -0.24066164220434        1.44672859128932       -2.30270312979484
H            1.22098637827651        2.01094814415807       -1.44214136019909
H           -3.39261062225595        2.90735199902033        0.27844547120177
H           -4.68555615165602        1.79435387405731       -0.24699108278659
H           -5.48826789700845        1.61705103699534        2.12188676510533
H           -4.20104191946208        2.73428713696039        2.64274979389526
H           -5.49456871053164        3.30312486077055        1.56878134844787
H           -2.29138452722375       -2.51813984291689       -0.58842260819641
H           -1.56400434595549       -2.98995153072018        0.96653269167941
H           -4.36136647806371       -1.75098946834241        0.60484889310952
H           -4.00427183633517       -3.44036382888202        1.00192237128148
H           -3.61463492149594       -2.16109552044530        2.17006406635216
41
 energy: -2932.484522507740 gnorm: 0.000874578231 xtb: 6.7.1 (edcfbbe)
C            4.53637928640796       -1.33463403169295       -2.66411759551907
C            4.69211941067819       -1.62859318304572       -1.19312519813636
O            3.39474142492812       -1.76365386063466       -0.51492293710109
P            2.49157846096951       -0.50055928932728       -0.08186263240770
S            3.43913558669947        1.14671625975752        0.34756013790529
O            1.59280351275222       -1.15788075845705        1.07411368403651
C            2.14942525176928       -1.36481296531917        2.42453201250622
C            1.36067574702770       -0.53530405923419        3.40431967403272
S            1.08458721801383       -0.40657842941783       -1.66063549145823
C            0.40443987677281        1.28395452240972       -1.43753894174626
S           -0.53992448922057        1.63053835062676        0.09725250233133
P           -2.17758361942934        0.30513429315638       -0.11688820292127
S           -2.83167388350917        0.02813992843872       -1.92980655096477
O           -3.21158462155672        0.93154168964757        0.95119632940084
C           -4.04614238931352        2.08685916021224        0.59104033210005
C           -4.85001817254935        2.45125067130190        1.81161039549795
O           -1.67213545004000       -0.98661598535887        0.69075548197090
C           -2.27371993532801       -2.31413017465892        0.48594266916690
C           -3.64491938891266       -2.40998692720105        1.10731051704474
H            3.90777143345311       -2.08584697109133       -3.15115937646427
H            4.10717551759787       -0.34339547676997       -2.83528827914157
H            5.52727029817075       -1.36090062818229       -3.12946289199209
H            5.26835489809316       -0.85384735823682       -0.67894724346270
H            5.16753589078696       -2.59712260122859       -1.02550132923269
H            2.04855728613232       -2.43590335429416        2.61651102114687
H            3.21207770165140       -1.10292024251206        2.43053385422322
H            1.71411867580196       -0.74515751102241        4.41909913972298
H            1.48918841527846        0.53244157812314        3.20476426789173
H            0.29581105224335       -0.78191420925462        3.35048612895154
H           -0.24013548769473        1.44705501244786       -2.30619123425618
H            1.22114873338659        2.01186689843678       -1.44495682919883
H           -3.39114616376481        2.90685408319250        0.27759433696308
H           -4.68563680414722        1.79539190415474       -0.24736134725022
H           -5.48570654301669        1.61740469141579        2.12282842756081
H           -4.19753168130988        2.73420703437913        2.64226782669612
H           -5.49223043013867        3.30359325037648        1.56992980949675
H           -2.29241652056038       -2.51935523273097       -0.58873015552905
H           -1.56289527886442       -2.98981717352529        0.96568375289399
H           -4.36140692310800       -1.75299951576525        0.60505446823067
H           -4.00183368590211       -3.44048069795168        1.00815186463672
H           -3.61191117649808       -2.15631443435073        2.17073453131647
41
 energy: -2932.484469647830 gnorm: 0.004450926129 xtb: 6.7.1 (edcfbbe)
C            4.52148088986881       -1.32227869451504       -2.65475397130121
C            4.68934782558076       -1.61483365538351       -1.18466440404815
O            3.39735683321727       -1.75629871416282       -0.49562859469745
P            2.48271927685111       -0.49678676485256       -0.07707823803644
S            3.41592256925322        1.15784585644917        0.35204611689509
O            1.57995863296371       -1.15388064530962        1.07639554245264
C            2.13985800624362       -1.36737263332758        2.42466305969208
C            1.32486212105387       -0.57735582582549        3.41704591810729
S            1.09024787594391       -0.39988905514202       -1.66758150982232
C            0.40025377753338        1.28857486708688       -1.46468986096074
S           -0.54700147934697        1.63908296467398        0.06634949002933
P           -2.17441990994815        0.30234196864464       -0.14573550571631
S           -2.83538632758392        0.02394147119306       -1.95459393019721
O           -3.20766611815860        0.92249496077801        0.92698229005844
C           -4.03379608835712        2.08809546347329        0.58087943097961
C           -4.81870899783729        2.45398664655240        1.81370190377518
O           -1.65899205113277       -0.98645847482353        0.65677925506237
C           -2.26719307761505       -2.31476843985047        0.47864693227613
C           -3.62689400703679       -2.39992804823221        1.12754563097104
H            3.87560859758855       -2.06498448119662       -3.13263789087893
H            4.10670740236309       -0.32484481364381       -2.82549337825047
H            5.50676164836191       -1.36697421379974       -3.13089350918042
H            5.26493045291955       -0.83706385694815       -0.67428878351759
H            5.16936162232440       -2.58137644396500       -1.01946734240434
H            2.07103806691417       -2.44491718432899        2.59887121085491
H            3.19462703654280       -1.07266540951950        2.43745940608670
H            1.71600628884673       -0.76096015289404        4.42409764025361
H            1.38941044760215        0.49687035922869        3.20807558336277
H            0.27216065762933       -0.88350989964609        3.39144466400476
H           -0.23835196106854        1.44446993689208       -2.33898581331628
H            1.21734102298079        2.01605727215263       -1.47141050979180
H           -3.37307620630778        2.90246299468871        0.26442043629323
H           -4.68534251388515        1.80733309398054       -0.25215567353846
H           -5.45200364048870        1.62121672642291        2.13311129614586
H           -4.15250096100064        2.73297044442814        2.63512288190559
H           -5.46200765282734        3.30862605278051        1.58340170585251
H           -2.30547583058988       -2.53349069550151       -0.59329201976526
H           -1.54854560352023       -2.98518300415932        0.95434365890445
H           -4.36130943619521       -1.77572683241293        0.60802803707361
H           -3.97135606357728       -3.44010719964664        1.08387876307506
H           -3.57699656675632       -2.09666814734726        2.17880415750437
41
 energy: -2932.484535524279 gnorm: 0.001496659917 xtb: 6.7.1 (edcfbbe)
C            4.52736452034925       -1.32679418840335       -2.65833494033805
C            4.69028965974958       -1.62001585243245       -1.18787310842088
O            3.39635360488033       -1.75876838486183       -0.50325291590840
P            2.48682652696519       -0.49749710602395       -0.07888021853990
S            3.42491607550146        1.15520101716532        0.34945520677032
O            1.58475060198370       -1.15460801766736        1.07496187997562
C            2.14311283598844       -1.36628861457209        2.42411248642710
C            1.33758873266031       -0.56226825203977        3.41186163396295
S            1.08794395677430       -0.40372557885593       -1.66402549831913
C            0.40267131995795        1.28609396612371       -1.45433385267984
S           -0.54370740322872        1.63522151353202        0.07802331230398
P           -2.17587455448842        0.30333315341056       -0.13438578859577
S           -2.83420768466284        0.02490586821267       -1.94517576828647
O           -3.20910995889978        0.92618977753354        0.93657060166070
C           -4.03868557467762        2.08753777494117        0.58481111236661
C           -4.83059163424944        2.45340739708741        1.81288986701454
O           -1.66373391837727       -0.98627816116423        0.67060503280882
C           -2.26929370808252       -2.31428114710446        0.48196698067051
C           -3.63334816313145       -2.40363120484343        1.12021535855448
H            3.88842638216383       -2.07291212803999       -3.13975816521164
H            4.10668550331301       -0.33192236021841       -2.82917518739220
H            5.51480218864284       -1.36400916549810       -3.13016670636400
H            5.26626931009870       -0.84350390012192       -0.67603153358014
H            5.16856831268004       -2.58732789131123       -1.02186045070733
H            2.06291640308760       -2.44133760812966        2.60451098295700
H            3.20048978059930       -1.08326993916201        2.43484360763078
H            1.71244281050350       -0.75645521629323        4.42203673656992
H            1.42707925311702        0.50898751340934        3.20771688912830
H            0.28089109673814       -0.84501244965131        3.37353180869549
H           -0.23869457101415        1.44435412345307       -2.32623032687915
H            1.21933696639613        2.01405001680946       -1.46187750521176
H           -3.38059801628385        2.90411517853868        0.26880257983442
H           -4.68593923221735        1.80225796507799       -0.24983181139285
H           -5.46499312286945        1.62049959297328        2.12940038225144
H           -4.16943673152321        2.73385026428630        2.63762709131631
H           -5.47319511087076        3.30733588207187        1.57815695115656
H           -2.30018560059770       -2.52742677917089       -0.59100364004312
H           -1.55368834857727       -2.98697745794825        0.95882966369323
H           -4.36075697447400       -1.76630666356019        0.60843574453769
H           -3.98280455867131       -3.43940048545307        1.05419832869806
H           -3.59001075520267       -2.12063957117058        2.17598297444923
41
 energy: -2932.484546328305 gnorm: 0.000643166662 xtb: 6.7.1 (edcfbbe)
C            4.53150536638805       -1.32938183036638       -2.66045343520431
C            4.69061359402392       -1.62285402067500       -1.18960254608399
O            3.39524666107287       -1.75972471462647       -0.50845031632949
P            2.48837623440466       -0.49753189771223       -0.08097213806563
S            3.43140535039121        1.15257596778591        0.34738986159488
O            1.58786462045431       -1.15454816848887        1.07410623914634
C            2.14598403265780       -1.36510338473965        2.42348124908671
C            1.34367695908642       -0.55432506556247        3.40795294335468
S            1.08637269255002       -0.40699201835728       -1.66459437512545
C            0.40410101814121        1.28337424020993       -1.44785478018764
S           -0.54105625024944        1.63412489305530        0.08545735933193
P           -2.17582092017738        0.30441253485721       -0.12628452878772
S           -2.83330884065019        0.02470027151498       -1.93784738587988
O           -3.20913444336266        0.92932590822742        0.94312221135883
C           -4.04181561641603        2.08706572406437        0.58713818191480
C           -4.83785936150515        2.45380598065272        1.81218088038954
O           -1.66617573936234       -0.98575448335825        0.68087852960414
C           -2.27028514572060       -2.31335458616387        0.48472199120096
C           -3.63705821243698       -2.40591756862050        1.11621947285089
H            3.89783163896773       -2.07823624638191       -3.14450574399300
H            4.10623186204248       -0.33645301543337       -2.83138013649849
H            5.52065836950279       -1.36088729036017       -3.12901007984765
H            5.26706997843250       -0.84727368583263       -0.67687096206584
H            5.16785182267060       -2.59063911768187       -1.02302720372297
H            2.06072416831857       -2.43902113052312        2.60695952407528
H            3.20447831782806       -1.08716991794826        2.43313919924362
H            1.70727760420451       -0.75662297346765        4.42053266959341
H            1.44767699880551        0.51598197080512        3.20830846606126
H            0.28438278554128       -0.82421882646379        3.35966350616838
H           -0.23945434168850        1.44337417125971       -2.31791516836516
H            1.22054668112440        2.01158893254733       -1.45673341404176
H           -3.38614798027757        2.90520741860279        0.27029089894435
H           -4.68668150560546        1.79779429924387       -0.24791713810361
H           -5.47333420841164        1.62130089285700        2.12733201237817
H           -4.17972539136274        2.73530239964957        2.63883546842947
H           -5.47967564778198        3.30747374743061        1.57432222073743
H           -2.29642680929531       -2.52262009231189       -0.58904060864563
H           -1.55681447123793       -2.98789659472093        0.96209260559051
H           -4.35954113459145       -1.75891424121646        0.60987422778150
H           -3.99032264412904       -3.43900657957370        1.03466924108452
H           -3.59739280921564       -2.13695886297311        2.17552357213034
41
 energy: -2932.484551068645 gnorm: 0.000634656036 xtb: 6.7.1 (edcfbbe)
C            4.53100270134750       -1.32821848670570       -2.65984963388730
C            4.69086558343242       -1.62181415966157       -1.18908015690547
O            3.39588118881858       -1.75886767052215       -0.50751026578192
P            2.48870779131390       -0.49653663252741       -0.08110732920043
S            3.42994392534338        1.15478139539315        0.34712613469220
O            1.58708592044229       -1.15332464916094        1.07316315503480
C            2.14492609873572       -1.36475588684774        2.42261740822347
C            1.33879579632122       -0.55952234875312        3.40858138964369
S            1.08584437631765       -0.40785109848894       -1.66317018702136
C            0.40426959113270        1.28326105531591       -1.45059932601827
S           -0.54093799688685        1.63323419595592        0.08273256340503
P           -2.17600372169052        0.30434710758618       -0.12825052714393
S           -2.83423280085322        0.02344686202742       -1.93915609017996
O           -3.20862925007211        0.92934954102359        0.94169808921735
C           -4.04120288671721        2.08726966315241        0.58627584868347
C           -4.83526856704855        2.45492972771591        1.81234326677137
O           -1.66490020573116       -0.98507276762051        0.67918329061978
C           -2.26914133543570       -2.31291778221089        0.48497140098835
C           -3.63502818046585       -2.40486196051675        1.11860231631342
H            3.89664643477371       -2.07675957249304       -3.14349142195279
H            4.10610904723911       -0.33510320298058       -2.83059430238955
H            5.51986127619883       -1.36026689684702       -3.12894756818773
H            5.26717873141325       -0.84606408350728       -0.67641349827697
H            5.16830739554600       -2.58952497949569       -1.02265708594163
H            2.06433221053398       -2.43947116011105        2.60389586689334
H            3.20223771305810       -1.08215138793931        2.43367395921286
H            1.70356692173699       -0.76102501126521        4.42085563761087
H            1.43739303064924        0.51153804885423        3.21016045426606
H            0.28086731162750       -0.83456811626653        3.36016391004516
H           -0.23938438949335        1.44207362126802       -2.32078939013097
H            1.22056298848649        2.01163878278029       -1.45990084385250
H           -3.38550701723987        2.90485473836130        0.26800261798842
H           -4.68732043077719        1.79771741853629       -0.24772050173482
H           -5.47081738378688        1.62291911847735        2.12871277079771
H           -4.17567416819843        2.73625857903969        2.63792092392208
H           -5.47684439283262        3.30894138436337        1.57508863460509
H           -2.29691507692379       -2.52281691093269       -0.58862173713213
H           -1.55485704366834       -2.98708807187818        0.96168462934042
H           -4.35877095051659       -1.75942851855743        0.61207566835648
H           -3.98777950698962       -3.43830837254856        1.03977524109499
H           -3.59400874102262       -2.13374787934405        2.17728357714071
41
 energy: -2932.484551068645 gnorm: 0.000634656036 xtb: 6.7.1 (edcfbbe)
C            4.53100270134750       -1.32821848670570       -2.65984963388730
C            4.69086558343242       -1.62181415966157       -1.18908015690547
O            3.39588118881858       -1.75886767052215       -0.50751026578192
P            2.48870779131390       -0.49653663252741       -0.08110732920043
S            3.42994392534338        1.15478139539315        0.34712613469220
O            1.58708592044229       -1.15332464916094        1.07316315503480