      -----------------------------------------------------------      
     |                   =====================                   |     
     |                           x T B                           |     
     |                   =====================                   |     
     |                         S. Grimme                         |     
     |          Mulliken Center for Theoretical Chemistry        |     
     |                    University of Bonn                     |     
      -----------------------------------------------------------      

   * xtb version 6.7.1 (edcfbbe) compiled by 'albert@albert-system' on 2024-07-22

   xtb is free software: you can redistribute it and/or modify it under
   the terms of the GNU Lesser General Public License as published by
   the Free Software Foundation, either version 3 of the License, or
   (at your option) any later version.
   
   xtb is distributed in the hope that it will be useful,
   but WITHOUT ANY WARRANTY; without even the implied warranty of
   MERCHANTABILITY or FITNESS FOR A PARTICULAR PURPOSE.  See the
   GNU Lesser General Public License for more details.
   
   Cite this work as:
   * C. Bannwarth, E. Caldeweyher, S. Ehlert, A. Hansen, P. Pracht,
     J. Seibert, S. Spicher, S. Grimme, WIREs Comput. Mol. Sci., 2020, 11,
     e01493. DOI: 10.1002/wcms.1493
   
   for GFN2-xTB:
   * C. Bannwarth, S. Ehlert and S. Grimme., J. Chem. Theory Comput., 2019,
     15, 1652-1671. DOI: 10.1021/acs.jctc.8b01176
   for GFN1-xTB:
   * S. Grimme, C. Bannwarth, P. Shushkov, J. Chem. Theory Comput., 2017,
     13, 1989-2009. DOI: 10.1021/acs.jctc.7b00118
   for GFN0-xTB:
   * P. Pracht, E. Caldeweyher, S. Ehlert, S. Grimme, ChemRxiv, 2019, preprint.
     DOI: 10.26434/chemrxiv.8326202.v1
   for GFN-FF:
   * S. Spicher and S. Grimme, Angew. Chem. Int. Ed., 2020, 59, 15665-15673.
     DOI: 10.1002/anie.202004239
   
   for ALPB and GBSA implicit solvation:
   * S. Ehlert, M. Stahn, S. Spicher, S. Grimme, J. Chem. Theory Comput.,
     2021, 17, 4250-4261. DOI: 10.1021/acs.jctc.1c00471
   
   for ddCOSMO and CPCM-X implicit solvation:
   * M. Stahn, S. Ehlert, S. Grimme, J. Phys. Chem. A,
     2023, XX, XXXX-XXXX. DOI: 10.1021/acs.jpca.3c04382
   
   for DFT-D4:
   * E. Caldeweyher, C. Bannwarth and S. Grimme, J. Chem. Phys., 2017,
     147, 034112. DOI: 10.1063/1.4993215
   * E. Caldeweyher, S. Ehlert, A. Hansen, H. Neugebauer, S. Spicher,
     C. Bannwarth and S. Grimme, J. Chem. Phys., 2019, 150, 154122.
     DOI: 10.1063/1.5090222
   * E. Caldeweyher, J.-M. Mewes, S. Ehlert and S. Grimme, Phys. Chem. Chem. Phys.
     2020, 22, 8499-8512. DOI: 10.1039/D0CP00502A
   
   for sTDA-xTB:
   * S. Grimme and C. Bannwarth, J. Chem. Phys., 2016, 145, 054103.
     DOI: 10.1063/1.4959605
   
   in the mass-spec context:
   * V. Asgeirsson, C. Bauer and S. Grimme, Chem. Sci., 2017, 8, 4879.
     DOI: 10.1039/c7sc00601b
   * J. Koopman and S. Grimme, ACS Omega 2019, 4, 12, 15120-15133.
     DOI: 10.1021/acsomega.9b02011
   
   for metadynamics refer to:
   * S. Grimme, J. Chem. Theory Comput., 2019, 155, 2847-2862
     DOI: 10.1021/acs.jctc.9b00143
   
   for SPH calculations refer to:
   * S. Spicher and S. Grimme, J. Chem. Theory Comput., 2021, 17, 1701-1714
     DOI: 10.1021/acs.jctc.0c01306
   
   for ONIOM refer to:
   * C. Plett, A. Katbashev, S. Ehlert, S. Grimme, M. Bursch,
     Phys. Chem. Chem. Phys., 2023, 25, 17860-17868. DOI: 10.1039/D3CP02178E
   
   for DIPRO refer to:
   * J. Kohn, N. Gildemeister, S. Grimme, D. Fazzi, A. Hansen,
     J. Chem. Phys., 2023, just accepted.
   
   for PTB refer to:
   * S. Grimme, M. Mueller, A. Hansen, J. Chem. Phys., 2023, 158, 124111.
     DOI: 10.1063/5.0137838
   
   with help from (in alphabetical order)
   P. Atkinson, C. Bannwarth, F. Bohle, G. Brandenburg, E. Caldeweyher
   M. Checinski, S. Dohm, S. Ehlert, S. Ehrlich, I. Gerasimov, C. Hölzer
   A. Katbashev, J. Kohn, J. Koopman, C. Lavigne, S. Lehtola, F. März, M. Müller,
   F. Musil, H. Neugebauer, J. Pisarek, C. Plett, P. Pracht, F. Pultar,
   J. Seibert, P. Shushkov, S. Spicher, M. Stahn, M. Steiner, T. Strunk,
   J. Stückrath, T. Rose, and J. Unsleber
   
 * started run on 2025/04/09 at 05:20:41.771     
   ID    Z sym.   atoms
    1    6 C      1, 2, 7, 8, 10, 15, 16, 18, 19
    2    8 O      3, 6, 14, 17
    3   15 P      4, 12
    4   16 S      5, 9, 11, 13
    5    1 H      20-41

           -------------------------------------------------
          |                Calculation Setup                |
           -------------------------------------------------

          program call               : /srv/scratch/z5358697/.xtb/bin/xtb solv.coord --gfn2 --sp --chrg 0 --norestart --parallel 1 --alpb water reference -I xtb_sp-xcontrol-inp
          hostname                   : k163
          coordinate file            : solv.coord
          omp threads                :                     1


           -------------------------------------------------
          |                 G F N 2 - x T B                 |
           -------------------------------------------------

        Reference                      10.1021/acs.jctc.8b01176
      * Hamiltonian:
        H0-scaling (s, p, d)           1.850000    2.230000    2.230000
        zeta-weighting                 0.500000
      * Dispersion:
        s8                             2.700000
        a1                             0.520000
        a2                             5.000000
        s9                             5.000000
      * Repulsion:
        kExp                           1.500000    1.000000
        rExp                           1.000000
      * Coulomb:
        alpha                          2.000000
        third order                    shell-resolved
        anisotropic                    true
        a3                             3.000000
        a5                             4.000000
        cn-shift                       1.200000
        cn-exp                         4.000000
        max-rad                        5.000000

      * Solvation model:               ALPB
        Solvent                        water
        Parameter file                 internal GFN2-xTB/ALPB
        Dielectric constant                8.0200E+01
        Reference state                gsolv=reference [X=1]
        Free energy shift                  2.8945E-03 Eh       1.8164E+00 kcal/mol
        Temperature                        2.9815E+02 K
        Density                            1.0000E+00 kg/L
        Solvent mass                       1.8000E+01 g/mol
        Interaction kernel             P16
        Born radius scaling (c1)           1.4744E+00
        Born radii integrator          GBOBC
        Born offset                        0.0000E+00 a0       0.0000E+00 AA
        H-bond correction              true
        Ion screening                  false
        Surface tension                    1.0000E-05 Eh       1.5569E+01 dyn/cm
        Grid points                               974 per atom

          ...................................................
          :                      SETUP                      :
          :.................................................:
          :  # basis functions                 134          :
          :  # atomic orbitals                 128          :
          :  # shells                           66          :
          :  # electrons                       116          :
          :  max. iterations                   250          :
          :  Hamiltonian                  GFN2-xTB          :
          :  restarted?                      false          :
          :  GBSA solvation                   true          :
          :  PC potential                    false          :
          :  electronic temp.          300.0000000     K    :
          :  accuracy                    1.0000000          :
          :  -> integral cutoff          0.2500000E+02      :
          :  -> integral neglect         0.1000000E-07      :
          :  -> SCF convergence          0.1000000E-05 Eh   :
          :  -> wf. convergence          0.1000000E-03 e    :
          :  Broyden damping             0.4000000          :
          :  net charge                          0          :
          :  unpaired electrons                  0          :
          ...................................................

 iter      E             dE          RMSdq      gap      omega  full diag
   1    -65.4469719 -0.654470E+02  0.646E+00    4.29       0.0  T
   2    -65.5684914 -0.121519E+00  0.372E+00    3.54       1.0  T
   3    -65.5878946 -0.194032E-01  0.115E+00    3.10       1.0  T
   4    -65.5909734 -0.307880E-02  0.510E-01    3.06       1.0  T
   5    -65.5917829 -0.809530E-03  0.283E-01    3.13       1.0  T
   6    -65.5920021 -0.219193E-03  0.126E-01    3.13       1.0  T
   7    -65.5920572 -0.550897E-04  0.458E-02    3.15       1.0  T
   8    -65.5920622 -0.502405E-05  0.182E-02    3.15       1.0  T
   9    -65.5920631 -0.834717E-06  0.581E-03    3.15       2.7  T
  10    -65.5920631 -0.327883E-08  0.243E-03    3.15       6.4  T
  11    -65.5920631 -0.352836E-07  0.696E-04    3.15      22.4  T
  12    -65.5920631 -0.672173E-09  0.338E-04    3.15      46.2  T

   *** convergence criteria satisfied after 12 iterations ***

         #    Occupation            Energy/Eh            Energy/eV
      -------------------------------------------------------------
         1        2.0000           -0.7686619             -20.9164
       ...           ...                  ...                  ...
        52        2.0000           -0.4468825             -12.1603
        53        2.0000           -0.4219199             -11.4810
        54        2.0000           -0.4119099             -11.2086
        55        2.0000           -0.4000742             -10.8866
        56        2.0000           -0.3973640             -10.8128
        57        2.0000           -0.3944465             -10.7334
        58        2.0000           -0.3877800             -10.5520 (HOMO)
        59                         -0.2720953              -7.4041 (LUMO)
        60                         -0.2615563              -7.1173
        61                         -0.2214563              -6.0261
        62                         -0.1880751              -5.1178
        63                         -0.1831420              -4.9835
       ...                                ...                  ...
       128                          1.3190484              35.8931
      -------------------------------------------------------------
                  HL-Gap            0.1156848 Eh            3.1479 eV
             Fermi-level           -0.3299377 Eh           -8.9781 eV

 SCC (total)                   0 d,  0 h,  0 min,  0.060 sec
 SCC setup                      ...        0 min,  0.003 sec (  4.198%)
 Dispersion                     ...        0 min,  0.000 sec (  0.526%)
 classical contributions        ...        0 min,  0.000 sec (  0.099%)
 integral evaluation            ...        0 min,  0.013 sec ( 21.143%)
 iterations                     ...        0 min,  0.023 sec ( 39.170%)
 molecular gradient             ...        0 min,  0.021 sec ( 34.500%)
 printout                       ...        0 min,  0.000 sec (  0.336%)

         :::::::::::::::::::::::::::::::::::::::::::::::::::::
         ::                     SUMMARY                     ::
         :::::::::::::::::::::::::::::::::::::::::::::::::::::
         :: total energy             -65.030284764852 Eh    ::
         :: total w/o Gsasa/hb       -65.032514456574 Eh    ::
         :: gradient norm              0.000079489261 Eh/a0 ::
         :: HOMO-LUMO gap              3.147943153942 eV    ::
         ::.................................................::
         :: SCC energy               -65.590974016793 Eh    ::
         :: -> isotropic ES            0.130094462822 Eh    ::
         :: -> anisotropic ES         -0.020382189968 Eh    ::
         :: -> anisotropic XC          0.029720103767 Eh    ::
         :: -> dispersion             -0.055861428957 Eh    ::
         :: -> Gsolv                  -0.024508206632 Eh    ::
         ::    -> Gelec               -0.026737898354 Eh    ::
         ::    -> Gsasa                0.003421252422 Eh    ::
         ::    -> Ghb                 -0.004086109861 Eh    ::
         ::    -> Gshift               0.002894549160 Eh    ::
         :: repulsion energy           0.560689251941 Eh    ::
         :: add. restraining           0.000000000000 Eh    ::
         :: total charge               0.000000000000 e     ::
         :::::::::::::::::::::::::::::::::::::::::::::::::::::

           -------------------------------------------------
          |                Property Printout                |
           -------------------------------------------------

    * Orbital Energies and Occupations

         #    Occupation            Energy/Eh            Energy/eV
      -------------------------------------------------------------
         1        2.0000           -0.7686619             -20.9164
       ...           ...                  ...                  ...
        46        2.0000           -0.4673609             -12.7175
        47        2.0000           -0.4621360             -12.5754
        48        2.0000           -0.4576221             -12.4525
        49        2.0000           -0.4556076             -12.3977
        50        2.0000           -0.4512768             -12.2799
        51        2.0000           -0.4478652             -12.1870
        52        2.0000           -0.4468825             -12.1603
        53        2.0000           -0.4219199             -11.4810
        54        2.0000           -0.4119099             -11.2086
        55        2.0000           -0.4000742             -10.8866
        56        2.0000           -0.3973640             -10.8128
        57        2.0000           -0.3944465             -10.7334
        58        2.0000           -0.3877800             -10.5520 (HOMO)
        59                         -0.2720953              -7.4041 (LUMO)
        60                         -0.2615563              -7.1173
        61                         -0.2214563              -6.0261
        62                         -0.1880751              -5.1178
        63                         -0.1831420              -4.9835
        64                         -0.1762944              -4.7972
        65                         -0.1673562              -4.5540
        66                         -0.1506666              -4.0998
        67                         -0.1334062              -3.6302
        68                         -0.1284876              -3.4963
        69                         -0.0544551              -1.4818
       ...                                ...                  ...
       128                          1.3190484              35.8931
      -------------------------------------------------------------
                  HL-Gap            0.1156848 Eh            3.1479 eV
             Fermi-level           -0.3299377 Eh           -8.9781 eV

     #   Z          covCN         q      C6AA      α(0)
     1   6 C        3.751    -0.130    23.051     6.847
     2   6 C        3.861     0.076    19.277     6.244
     3   8 O        1.655    -0.267    18.451     5.799
     4  15 P        3.875     0.360   145.237    21.649
     5  16 S        0.926    -0.472   160.038    21.397
     6   8 O        1.655    -0.264    18.395     5.790
     7   6 C        3.885     0.099    18.898     6.180
     8   6 C        3.752    -0.122    22.903     6.825
     9  16 S        2.007    -0.116   145.921    20.331
    10   6 C        3.807     0.031    20.048     6.374
    11  16 S        2.006    -0.108   145.557    20.306
    12  15 P        3.804     0.375   144.627    21.603
    13  16 S        0.927    -0.484   160.624    21.436
    14   8 O        1.653    -0.261    18.348     5.782
    15   6 C        3.810     0.076    19.308     6.255
    16   6 C        3.751    -0.133    23.116     6.857
    17   8 O        1.655    -0.256    18.255     5.768
    18   6 C        3.862     0.074    19.302     6.248
    19   6 C        3.751    -0.131    23.078     6.851
    20   1 H        0.925     0.055     2.258     2.350
    21   1 H        0.925     0.087     1.909     2.160
    22   1 H        0.925     0.073     2.050     2.239
    23   1 H        0.924     0.063     2.168     2.302
    24   1 H        0.924     0.091     1.872     2.140
    25   1 H        0.924     0.055     2.257     2.349
    26   1 H        0.924     0.050     2.323     2.383
    27   1 H        0.925     0.083     1.947     2.182
    28   1 H        0.925     0.061     2.188     2.313
    29   1 H        0.925     0.075     2.031     2.229
    30   1 H        0.925     0.130     1.537     1.939
    31   1 H        0.924     0.076     2.019     2.222
    32   1 H        0.924     0.071     2.070     2.250
    33   1 H        0.924     0.090     1.875     2.141
    34   1 H        0.925     0.068     2.109     2.271
    35   1 H        0.925     0.088     1.896     2.153
    36   1 H        0.925     0.070     2.089     2.260
    37   1 H        0.924     0.093     1.849     2.126
    38   1 H        0.924     0.058     2.221     2.331
    39   1 H        0.925     0.084     1.934     2.175
    40   1 H        0.925     0.054     2.269     2.356
    41   1 H        0.925     0.076     2.026     2.226

 Mol. C6AA /au·bohr⁶  :      26411.003599
 Mol. C8AA /au·bohr⁸  :     862672.438174
 Mol. α(0) /au        :        257.639884


Wiberg/Mayer (AO) data.
largest (>0.10) Wiberg bond orders for each atom

 ---------------------------------------------------------------------------
     #   Z sym  total        # sym  WBO       # sym  WBO       # sym  WBO
 ---------------------------------------------------------------------------
     1   6 C    3.986 --     2 C    1.022    22 H    0.981    21 H    0.976
                            20 H    0.976
     2   6 C    3.888 --     1 C    1.022    23 H    0.968    24 H    0.965
                             3 O    0.887
     3   8 O    2.400 --     4 P    1.320     2 C    0.887
     4  15 P    5.318 --     5 S    1.514     3 O    1.320     6 O    1.311
                             9 S    1.020
     5  16 S    1.848 --     4 P    1.514     9 S    0.136
     6   8 O    2.386 --     4 P    1.311     7 C    0.878
     7   6 C    3.898 --     8 C    1.019    25 H    0.971    26 H    0.969
                             6 O    0.878
     8   6 C    3.983 --     7 C    1.019    29 H    0.983    28 H    0.982
                            27 H    0.975
     9  16 S    2.302 --     4 P    1.020    10 C    0.972     5 S    0.136
    10   6 C    3.950 --    11 S    0.996     9 S    0.972    30 H    0.956
                            31 H    0.948
    11  16 S    2.282 --    10 C    0.996    12 P    0.964    13 S    0.132
    12  15 P    5.311 --    13 S    1.525    14 O    1.353    17 O    1.322
                            11 S    0.964
    13  16 S    1.843 --    12 P    1.525    11 S    0.132
    14   8 O    2.408 --    12 P    1.353    15 C    0.860
    15   6 C    3.879 --    16 C    1.024    32 H    0.966    33 H    0.965
                            14 O    0.860
    16   6 C    3.985 --    15 C    1.024    36 H    0.982    34 H    0.975
                            35 H    0.974
    17   8 O    2.408 --    12 P    1.322    18 C    0.890
    18   6 C    3.891 --    19 C    1.022    38 H    0.969    37 H    0.964
                            17 O    0.890
    19   6 C    3.986 --    18 C    1.022    41 H    0.981    40 H    0.977
                            39 H    0.976
    20   1 H    0.997 --     1 C    0.976
    21   1 H    0.992 --     1 C    0.976
    22   1 H    0.995 --     1 C    0.981
    23   1 H    0.996 --     2 C    0.968
    24   1 H    0.991 --     2 C    0.965
    25   1 H    0.997 --     7 C    0.971
    26   1 H    0.997 --     7 C    0.969
    27   1 H    0.991 --     8 C    0.975
    28   1 H    0.996 --     8 C    0.982
    29   1 H    0.994 --     8 C    0.983
    30   1 H    0.983 --    10 C    0.956
    31   1 H    0.994 --    10 C    0.948
    32   1 H    0.995 --    15 C    0.966
    33   1 H    0.991 --    15 C    0.965
    34   1 H    0.995 --    16 C    0.975
    35   1 H    0.991 --    16 C    0.974
    36   1 H    0.995 --    16 C    0.982
    37   1 H    0.991 --    18 C    0.964
    38   1 H    0.997 --    18 C    0.969
    39   1 H    0.992 --    19 C    0.976
    40   1 H    0.997 --    19 C    0.977
    41   1 H    0.994 --    19 C    0.981
 ---------------------------------------------------------------------------

Topologies differ in total number of bonds
Writing topology from bond orders to xtbtopo.mol

molecular dipole:
                 x           y           z       tot (Debye)
 q only:       -0.594      -2.356       2.060
   full:       -0.296      -1.554       2.326       7.150
molecular quadrupole (traceless):
                xx          xy          yy          xz          yz          zz
 q only:       26.492       1.145     -12.438       0.658      12.139     -14.054
  q+dip:       27.087       1.300     -15.139       1.438      12.879     -11.948
   full:       27.947       1.150     -14.501       1.181      13.109     -13.446


           -------------------------------------------------
          | TOTAL ENERGY              -65.030284764852 Eh   |
          | GRADIENT NORM               0.000079489261 Eh/α |
          | HOMO-LUMO GAP               3.147943153942 eV   |
           -------------------------------------------------

------------------------------------------------------------------------
 * finished run on 2025/04/09 at 05:20:41.894     
------------------------------------------------------------------------
 total:
 * wall-time:     0 d,  0 h,  0 min,  0.123 sec
 *  cpu-time:     0 d,  0 h,  0 min,  0.068 sec
 * ratio c/w:     0.557 speedup
 SCF:
 * wall-time:     0 d,  0 h,  0 min,  0.060 sec
 *  cpu-time:     0 d,  0 h,  0 min,  0.055 sec
 * ratio c/w:     0.927 speedup

