      -----------------------------------------------------------      
     |                   =====================                   |     
     |                           x T B                           |     
     |                   =====================                   |     
     |                         S. Grimme                         |     
     |          Mulliken Center for Theoretical Chemistry        |     
     |                    University of Bonn                     |     
      -----------------------------------------------------------      

   * xtb version 6.7.1 (edcfbbe) compiled by 'albert@albert-system' on 2024-07-22

   xtb is free software: you can redistribute it and/or modify it under
   the terms of the GNU Lesser General Public License as published by
   the Free Software Foundation, either version 3 of the License, or
   (at your option) any later version.
   
   xtb is distributed in the hope that it will be useful,
   but WITHOUT ANY WARRANTY; without even the implied warranty of
   MERCHANTABILITY or FITNESS FOR A PARTICULAR PURPOSE.  See the
   GNU Lesser General Public License for more details.
   
   Cite this work as:
   * C. Bannwarth, E. Caldeweyher, S. Ehlert, A. Hansen, P. Pracht,
     J. Seibert, S. Spicher, S. Grimme, WIREs Comput. Mol. Sci., 2020, 11,
     e01493. DOI: 10.1002/wcms.1493
   
   for GFN2-xTB:
   * C. Bannwarth, S. Ehlert and S. Grimme., J. Chem. Theory Comput., 2019,
     15, 1652-1671. DOI: 10.1021/acs.jctc.8b01176
   for GFN1-xTB:
   * S. Grimme, C. Bannwarth, P. Shushkov, J. Chem. Theory Comput., 2017,
     13, 1989-2009. DOI: 10.1021/acs.jctc.7b00118
   for GFN0-xTB:
   * P. Pracht, E. Caldeweyher, S. Ehlert, S. Grimme, ChemRxiv, 2019, preprint.
     DOI: 10.26434/chemrxiv.8326202.v1
   for GFN-FF:
   * S. Spicher and S. Grimme, Angew. Chem. Int. Ed., 2020, 59, 15665-15673.
     DOI: 10.1002/anie.202004239
   
   for ALPB and GBSA implicit solvation:
   * S. Ehlert, M. Stahn, S. Spicher, S. Grimme, J. Chem. Theory Comput.,
     2021, 17, 4250-4261. DOI: 10.1021/acs.jctc.1c00471
   
   for ddCOSMO and CPCM-X implicit solvation:
   * M. Stahn, S. Ehlert, S. Grimme, J. Phys. Chem. A,
     2023, XX, XXXX-XXXX. DOI: 10.1021/acs.jpca.3c04382
   
   for DFT-D4:
   * E. Caldeweyher, C. Bannwarth and S. Grimme, J. Chem. Phys., 2017,
     147, 034112. DOI: 10.1063/1.4993215
   * E. Caldeweyher, S. Ehlert, A. Hansen, H. Neugebauer, S. Spicher,
     C. Bannwarth and S. Grimme, J. Chem. Phys., 2019, 150, 154122.
     DOI: 10.1063/1.5090222
   * E. Caldeweyher, J.-M. Mewes, S. Ehlert and S. Grimme, Phys. Chem. Chem. Phys.
     2020, 22, 8499-8512. DOI: 10.1039/D0CP00502A
   
   for sTDA-xTB:
   * S. Grimme and C. Bannwarth, J. Chem. Phys., 2016, 145, 054103.
     DOI: 10.1063/1.4959605
   
   in the mass-spec context:
   * V. Asgeirsson, C. Bauer and S. Grimme, Chem. Sci., 2017, 8, 4879.
     DOI: 10.1039/c7sc00601b
   * J. Koopman and S. Grimme, ACS Omega 2019, 4, 12, 15120-15133.
     DOI: 10.1021/acsomega.9b02011
   
   for metadynamics refer to:
   * S. Grimme, J. Chem. Theory Comput., 2019, 155, 2847-2862
     DOI: 10.1021/acs.jctc.9b00143
   
   for SPH calculations refer to:
   * S. Spicher and S. Grimme, J. Chem. Theory Comput., 2021, 17, 1701-1714
     DOI: 10.1021/acs.jctc.0c01306
   
   for ONIOM refer to:
   * C. Plett, A. Katbashev, S. Ehlert, S. Grimme, M. Bursch,
     Phys. Chem. Chem. Phys., 2023, 25, 17860-17868. DOI: 10.1039/D3CP02178E
   
   for DIPRO refer to:
   * J. Kohn, N. Gildemeister, S. Grimme, D. Fazzi, A. Hansen,
     J. Chem. Phys., 2023, just accepted.
   
   for PTB refer to:
   * S. Grimme, M. Mueller, A. Hansen, J. Chem. Phys., 2023, 158, 124111.
     DOI: 10.1063/5.0137838
   
   with help from (in alphabetical order)
   P. Atkinson, C. Bannwarth, F. Bohle, G. Brandenburg, E. Caldeweyher
   M. Checinski, S. Dohm, S. Ehlert, S. Ehrlich, I. Gerasimov, C. Hölzer
   A. Katbashev, J. Kohn, J. Koopman, C. Lavigne, S. Lehtola, F. März, M. Müller,
   F. Musil, H. Neugebauer, J. Pisarek, C. Plett, P. Pracht, F. Pultar,
   J. Seibert, P. Shushkov, S. Spicher, M. Stahn, M. Steiner, T. Strunk,
   J. Stückrath, T. Rose, and J. Unsleber
   
 * started run on 2025/04/09 at 07:31:32.784     
   ID    Z sym.   atoms
    1    6 C      1, 2, 4, 6, 7, 9, 12, 13, 18, 20
    2    8 O      3, 5, 10, 11, 17, 19
    3    1 H      8, 21-38
    4   16 S      14, 16
    5   15 P      15

           -------------------------------------------------
          |                Calculation Setup                |
           -------------------------------------------------

          program call               : /software/projects/pawsey0265/mwang1/xtb/bin/xtb gas.coord --gfn2 --sp --chrg 0 --norestart --parallel 1
          hostname                   : nid002043
          coordinate file            : gas.coord
          omp threads                :                     1


           -------------------------------------------------
          |                 G F N 2 - x T B                 |
           -------------------------------------------------

        Reference                      10.1021/acs.jctc.8b01176
      * Hamiltonian:
        H0-scaling (s, p, d)           1.850000    2.230000    2.230000
        zeta-weighting                 0.500000
      * Dispersion:
        s8                             2.700000
        a1                             0.520000
        a2                             5.000000
        s9                             5.000000
      * Repulsion:
        kExp                           1.500000    1.000000
        rExp                           1.000000
      * Coulomb:
        alpha                          2.000000
        third order                    shell-resolved
        anisotropic                    true
        a3                             3.000000
        a5                             4.000000
        cn-shift                       1.200000
        cn-exp                         4.000000
        max-rad                        5.000000


          ...................................................
          :                      SETUP                      :
          :.................................................:
          :  # basis functions                 113          :
          :  # atomic orbitals                 110          :
          :  # shells                           60          :
          :  # electrons                       112          :
          :  max. iterations                   250          :
          :  Hamiltonian                  GFN2-xTB          :
          :  restarted?                      false          :
          :  GBSA solvation                  false          :
          :  PC potential                    false          :
          :  electronic temp.          300.0000000     K    :
          :  accuracy                    1.0000000          :
          :  -> integral cutoff          0.2500000E+02      :
          :  -> integral neglect         0.1000000E-07      :
          :  -> SCF convergence          0.1000000E-05 Eh   :
          :  -> wf. convergence          0.1000000E-03 e    :
          :  Broyden damping             0.4000000          :
          :  net charge                          0          :
          :  unpaired electrons                  0          :
          ...................................................

 iter      E             dE          RMSdq      gap      omega  full diag
   1    -65.0354037 -0.650354E+02  0.574E+00    4.26       0.0  T
   2    -65.1995732 -0.164169E+00  0.319E+00    2.60       1.0  T
   3    -65.2101287 -0.105555E-01  0.143E+00    2.76       1.0  T
   4    -65.2175790 -0.745033E-02  0.469E-01    2.30       1.0  T
   5    -65.2190743 -0.149535E-02  0.215E-01    2.49       1.0  T
   6    -65.2191892 -0.114870E-03  0.978E-02    2.46       1.0  T
   7    -65.2192083 -0.191019E-04  0.368E-02    2.47       1.0  T
   8    -65.2192147 -0.633721E-05  0.194E-02    2.48       1.0  T
   9    -65.2192160 -0.137621E-05  0.399E-03    2.48       4.1  T
  10    -65.2192161 -0.832233E-07  0.202E-03    2.48       8.0  T
  11    -65.2192161 -0.361570E-08  0.545E-04    2.48      29.8  T
  12    -65.2192161 -0.153280E-08  0.224E-04    2.48      72.3  T

   *** convergence criteria satisfied after 12 iterations ***

         #    Occupation            Energy/Eh            Energy/eV
      -------------------------------------------------------------
         1        2.0000           -0.7673697             -20.8812
       ...           ...                  ...                  ...
        50        2.0000           -0.4408503             -11.9961
        51        2.0000           -0.4368045             -11.8861
        52        2.0000           -0.4251518             -11.5690
        53        2.0000           -0.4211846             -11.4610
        54        2.0000           -0.3976420             -10.8204
        55        2.0000           -0.3515278              -9.5656
        56        2.0000           -0.3456029              -9.4043 (HOMO)
        57                         -0.2544913              -6.9251 (LUMO)
        58                         -0.2407338              -6.5507
        59                         -0.2310618              -6.2875
        60                         -0.1981155              -5.3910
        61                         -0.1446446              -3.9360
       ...                                ...                  ...
       110                          1.4612921              39.7638
      -------------------------------------------------------------
                  HL-Gap            0.0911115 Eh            2.4793 eV
             Fermi-level           -0.3000471 Eh           -8.1647 eV

 SCC (total)                   0 d,  0 h,  0 min,  0.133 sec
 SCC setup                      ...        0 min,  0.000 sec (  0.341%)
 Dispersion                     ...        0 min,  0.000 sec (  0.308%)
 classical contributions        ...        0 min,  0.000 sec (  0.070%)
 integral evaluation            ...        0 min,  0.060 sec ( 45.200%)
 iterations                     ...        0 min,  0.037 sec ( 27.979%)
 molecular gradient             ...        0 min,  0.034 sec ( 25.806%)
 printout                       ...        0 min,  0.000 sec (  0.274%)

         :::::::::::::::::::::::::::::::::::::::::::::::::::::
         ::                     SUMMARY                     ::
         :::::::::::::::::::::::::::::::::::::::::::::::::::::
         :: total energy             -64.649277830359 Eh    ::
         :: gradient norm              0.051572968451 Eh/a0 ::
         :: HOMO-LUMO gap              2.479270312407 eV    ::
         ::.................................................::
         :: SCC energy               -65.218281552891 Eh    ::
         :: -> isotropic ES            0.144233676767 Eh    ::
         :: -> anisotropic ES         -0.015206894122 Eh    ::
         :: -> anisotropic XC          0.016717695398 Eh    ::
         :: -> dispersion             -0.043659199797 Eh    ::
         :: repulsion energy           0.569003722532 Eh    ::
         :: add. restraining           0.000000000000 Eh    ::
         :: total charge              -0.000000000000 e     ::
         :::::::::::::::::::::::::::::::::::::::::::::::::::::

           -------------------------------------------------
          |                Property Printout                |
           -------------------------------------------------

    * Orbital Energies and Occupations

         #    Occupation            Energy/Eh            Energy/eV
      -------------------------------------------------------------
         1        2.0000           -0.7673697             -20.8812
       ...           ...                  ...                  ...
        44        2.0000           -0.4675584             -12.7229
        45        2.0000           -0.4669943             -12.7076
        46        2.0000           -0.4613315             -12.5535
        47        2.0000           -0.4577619             -12.4563
        48        2.0000           -0.4518695             -12.2960
        49        2.0000           -0.4452435             -12.1157
        50        2.0000           -0.4408503             -11.9961
        51        2.0000           -0.4368045             -11.8861
        52        2.0000           -0.4251518             -11.5690
        53        2.0000           -0.4211846             -11.4610
        54        2.0000           -0.3976420             -10.8204
        55        2.0000           -0.3515278              -9.5656
        56        2.0000           -0.3456029              -9.4043 (HOMO)
        57                         -0.2544913              -6.9251 (LUMO)
        58                         -0.2407338              -6.5507
        59                         -0.2310618              -6.2875
        60                         -0.1981155              -5.3910
        61                         -0.1446446              -3.9360
        62                         -0.1189043              -3.2356
        63                         -0.0847724              -2.3068
        64                         -0.0376247              -1.0238
        65                         -0.0287805              -0.7832
        66                         -0.0143580              -0.3907
        67                         -0.0104532              -0.2844
       ...                                ...                  ...
       110                          1.4612921              39.7638
      -------------------------------------------------------------
                  HL-Gap            0.0911115 Eh            2.4793 eV
             Fermi-level           -0.3000471 Eh           -8.1647 eV

     #   Z          covCN         q      C6AA      α(0)
     1   6 C        3.751    -0.117    22.801     6.810
     2   6 C        3.692     0.075    19.496     6.318
     3   8 O        1.703    -0.241    17.991     5.727
     4   6 C        2.711     0.363    20.838     7.472
     5   8 O        0.856    -0.419    22.062     6.297
     6   6 C        3.829    -0.088    22.162     6.698
     7   6 C        3.849     0.012    20.347     6.416
     8   1 H        0.925     0.080     1.979     2.200
     9   6 C        2.763     0.374    20.661     7.444
    10   8 O        1.094    -0.364    20.861     6.130
    11   8 O        1.703    -0.231    17.824     5.700
    12   6 C        3.693     0.075    19.494     6.317
    13   6 C        3.751    -0.120    22.857     6.818
    14  16 S        1.969    -0.174   148.430    20.505
    15  15 P        4.075     0.374   144.671    21.606
    16  16 S        0.925    -0.388   156.042    21.129
    17   8 O        1.655    -0.224    17.733     5.685
    18   6 C        3.817     0.033    20.004     6.365
    19   8 O        1.658    -0.276    18.597     5.822
    20   6 C        3.801     0.038    19.930     6.356
    21   1 H        0.925     0.067     2.119     2.276
    22   1 H        0.925     0.057     2.229     2.334
    23   1 H        0.925     0.057     2.230     2.335
    24   1 H        0.924     0.051     2.312     2.378
    25   1 H        0.924     0.082     1.955     2.186
    26   1 H        0.925     0.085     1.928     2.171
    27   1 H        0.924     0.082     1.957     2.188
    28   1 H        0.924     0.061     2.193     2.316
    29   1 H        0.924     0.076     2.025     2.226
    30   1 H        0.925     0.058     2.219     2.330
    31   1 H        0.925     0.084     1.939     2.177
    32   1 H        0.925     0.056     2.241     2.341
    33   1 H        0.924     0.063     2.160     2.298
    34   1 H        0.925     0.076     2.020     2.223
    35   1 H        0.925     0.070     2.085     2.258
    36   1 H        0.925     0.055     2.255     2.349
    37   1 H        0.925     0.068     2.105     2.269
    38   1 H        0.924     0.067     2.124     2.279

 Mol. C6AA /au·bohr⁶  :      18368.352044
 Mol. C8AA /au·bohr⁸  :     515334.802660
 Mol. α(0) /au        :        208.749200


Wiberg/Mayer (AO) data.
largest (>0.10) Wiberg bond orders for each atom

 ---------------------------------------------------------------------------
     #   Z sym  total        # sym  WBO       # sym  WBO       # sym  WBO
 ---------------------------------------------------------------------------
     1   6 C    3.989 --     2 C    1.019    22 H    0.985    21 H    0.983
                            23 H    0.982
     2   6 C    3.910 --     1 C    1.019    24 H    0.968    25 H    0.965
                             3 O    0.916
     3   8 O    2.352 --     4 C    1.194     2 C    0.916     5 O    0.184
     4   6 C    3.927 --     5 O    1.716     3 O    1.194     6 C    0.959
     5   8 O    2.036 --     4 C    1.716     3 O    0.184
     6   6 C    3.989 --     7 C    0.978    26 H    0.970     4 C    0.959
                            27 H    0.951
     7   6 C    3.980 --     6 C    0.978    14 S    0.976     8 H    0.949
                             9 C    0.945
     8   1 H    0.993 --     7 C    0.949
     9   6 C    3.923 --    10 O    1.668    11 O    1.218     7 C    0.945
    10   8 O    2.183 --     9 C    1.668    15 P    0.192    11 O    0.166
    11   8 O    2.361 --     9 C    1.218    12 C    0.903    10 O    0.166
    12   6 C    3.901 --    13 C    1.015    29 H    0.969    28 H    0.969
                            11 O    0.903
    13   6 C    3.985 --    12 C    1.015    32 H    0.986    30 H    0.980
                            31 H    0.979
    14  16 S    2.236 --     7 C    0.976    15 P    0.938    16 S    0.137
    15  15 P    5.296 --    16 S    1.539    17 O    1.296    19 O    1.233
                            14 S    0.938    10 O    0.192
    16  16 S    1.870 --    15 P    1.539    14 S    0.137
    17   8 O    2.399 --    15 P    1.296    18 C    0.922
    18   6 C    3.917 --    35 H    0.981    34 H    0.979    33 H    0.977
                            17 O    0.922
    19   8 O    2.353 --    15 P    1.233    20 C    0.944
    20   6 C    3.921 --    36 H    0.981    37 H    0.979    38 H    0.974
                            19 O    0.944
    21   1 H    0.995 --     1 C    0.983
    22   1 H    0.997 --     1 C    0.985
    23   1 H    0.996 --     1 C    0.982
    24   1 H    0.997 --     2 C    0.968
    25   1 H    0.993 --     2 C    0.965
    26   1 H    0.992 --     6 C    0.970
    27   1 H    0.993 --     6 C    0.951
    28   1 H    0.996 --    12 C    0.969
    29   1 H    0.994 --    12 C    0.969
    30   1 H    0.996 --    13 C    0.980
    31   1 H    0.993 --    13 C    0.979
    32   1 H    0.997 --    13 C    0.986
    33   1 H    0.996 --    18 C    0.977
    34   1 H    0.994 --    18 C    0.979
    35   1 H    0.995 --    18 C    0.981
    36   1 H    0.997 --    20 C    0.981
    37   1 H    0.995 --    20 C    0.979
    38   1 H    0.996 --    20 C    0.974
 ---------------------------------------------------------------------------

Topologies differ in total number of bonds
Writing topology from bond orders to xtbtopo.mol

molecular dipole:
                 x           y           z       tot (Debye)
 q only:        0.391       0.224      -1.757
   full:        0.202       0.753      -1.911       5.246
molecular quadrupole (traceless):
                xx          xy          yy          xz          yz          zz
 q only:        4.049       0.368      13.858       2.004       1.654     -17.907
  q+dip:        6.448      -0.156      12.542      -2.915       1.620     -18.990
   full:        7.294      -0.145      12.619      -2.408       1.341     -19.913


           -------------------------------------------------
          | TOTAL ENERGY              -64.649277830359 Eh   |
          | GRADIENT NORM               0.051572968451 Eh/α |
          | HOMO-LUMO GAP               2.479270312407 eV   |
           -------------------------------------------------

------------------------------------------------------------------------
 * finished run on 2025/04/09 at 07:31:32.970     
------------------------------------------------------------------------
 total:
 * wall-time:     0 d,  0 h,  0 min,  0.185 sec
 *  cpu-time:     0 d,  0 h,  0 min,  0.120 sec
 * ratio c/w:     0.648 speedup
 SCF:
 * wall-time:     0 d,  0 h,  0 min,  0.133 sec
 *  cpu-time:     0 d,  0 h,  0 min,  0.094 sec
 * ratio c/w:     0.703 speedup

