      -----------------------------------------------------------      
     |                   =====================                   |     
     |                           x T B                           |     
     |                   =====================                   |     
     |                         S. Grimme                         |     
     |          Mulliken Center for Theoretical Chemistry        |     
     |                    University of Bonn                     |     
      -----------------------------------------------------------      

   * xtb version 6.7.1 (edcfbbe) compiled by 'albert@albert-system' on 2024-07-22

   xtb is free software: you can redistribute it and/or modify it under
   the terms of the GNU Lesser General Public License as published by
   the Free Software Foundation, either version 3 of the License, or
   (at your option) any later version.
   
   xtb is distributed in the hope that it will be useful,
   but WITHOUT ANY WARRANTY; without even the implied warranty of
   MERCHANTABILITY or FITNESS FOR A PARTICULAR PURPOSE.  See the
   GNU Lesser General Public License for more details.
   
   Cite this work as:
   * C. Bannwarth, E. Caldeweyher, S. Ehlert, A. Hansen, P. Pracht,
     J. Seibert, S. Spicher, S. Grimme, WIREs Comput. Mol. Sci., 2020, 11,
     e01493. DOI: 10.1002/wcms.1493
   
   for GFN2-xTB:
   * C. Bannwarth, S. Ehlert and S. Grimme., J. Chem. Theory Comput., 2019,
     15, 1652-1671. DOI: 10.1021/acs.jctc.8b01176
   for GFN1-xTB:
   * S. Grimme, C. Bannwarth, P. Shushkov, J. Chem. Theory Comput., 2017,
     13, 1989-2009. DOI: 10.1021/acs.jctc.7b00118
   for GFN0-xTB:
   * P. Pracht, E. Caldeweyher, S. Ehlert, S. Grimme, ChemRxiv, 2019, preprint.
     DOI: 10.26434/chemrxiv.8326202.v1
   for GFN-FF:
   * S. Spicher and S. Grimme, Angew. Chem. Int. Ed., 2020, 59, 15665-15673.
     DOI: 10.1002/anie.202004239
   
   for ALPB and GBSA implicit solvation:
   * S. Ehlert, M. Stahn, S. Spicher, S. Grimme, J. Chem. Theory Comput.,
     2021, 17, 4250-4261. DOI: 10.1021/acs.jctc.1c00471
   
   for ddCOSMO and CPCM-X implicit solvation:
   * M. Stahn, S. Ehlert, S. Grimme, J. Phys. Chem. A,
     2023, XX, XXXX-XXXX. DOI: 10.1021/acs.jpca.3c04382
   
   for DFT-D4:
   * E. Caldeweyher, C. Bannwarth and S. Grimme, J. Chem. Phys., 2017,
     147, 034112. DOI: 10.1063/1.4993215
   * E. Caldeweyher, S. Ehlert, A. Hansen, H. Neugebauer, S. Spicher,
     C. Bannwarth and S. Grimme, J. Chem. Phys., 2019, 150, 154122.
     DOI: 10.1063/1.5090222
   * E. Caldeweyher, J.-M. Mewes, S. Ehlert and S. Grimme, Phys. Chem. Chem. Phys.
     2020, 22, 8499-8512. DOI: 10.1039/D0CP00502A
   
   for sTDA-xTB:
   * S. Grimme and C. Bannwarth, J. Chem. Phys., 2016, 145, 054103.
     DOI: 10.1063/1.4959605
   
   in the mass-spec context:
   * V. Asgeirsson, C. Bauer and S. Grimme, Chem. Sci., 2017, 8, 4879.
     DOI: 10.1039/c7sc00601b
   * J. Koopman and S. Grimme, ACS Omega 2019, 4, 12, 15120-15133.
     DOI: 10.1021/acsomega.9b02011
   
   for metadynamics refer to:
   * S. Grimme, J. Chem. Theory Comput., 2019, 155, 2847-2862
     DOI: 10.1021/acs.jctc.9b00143
   
   for SPH calculations refer to:
   * S. Spicher and S. Grimme, J. Chem. Theory Comput., 2021, 17, 1701-1714
     DOI: 10.1021/acs.jctc.0c01306
   
   for ONIOM refer to:
   * C. Plett, A. Katbashev, S. Ehlert, S. Grimme, M. Bursch,
     Phys. Chem. Chem. Phys., 2023, 25, 17860-17868. DOI: 10.1039/D3CP02178E
   
   for DIPRO refer to:
   * J. Kohn, N. Gildemeister, S. Grimme, D. Fazzi, A. Hansen,
     J. Chem. Phys., 2023, just accepted.
   
   for PTB refer to:
   * S. Grimme, M. Mueller, A. Hansen, J. Chem. Phys., 2023, 158, 124111.
     DOI: 10.1063/5.0137838
   
   with help from (in alphabetical order)
   P. Atkinson, C. Bannwarth, F. Bohle, G. Brandenburg, E. Caldeweyher
   M. Checinski, S. Dohm, S. Ehlert, S. Ehrlich, I. Gerasimov, C. Hölzer
   A. Katbashev, J. Kohn, J. Koopman, C. Lavigne, S. Lehtola, F. März, M. Müller,
   F. Musil, H. Neugebauer, J. Pisarek, C. Plett, P. Pracht, F. Pultar,
   J. Seibert, P. Shushkov, S. Spicher, M. Stahn, M. Steiner, T. Strunk,
   J. Stückrath, T. Rose, and J. Unsleber
   
 * started run on 2025/04/09 at 14:00:51.782     
   ID    Z sym.   atoms
    1    6 C      1, 2, 7, 8, 10, 15, 16, 18, 19
    2    8 O      3, 6, 14, 17
    3   15 P      4, 12
    4   16 S      5, 9, 11, 13
    5    1 H      20-41

           -------------------------------------------------
          |                Calculation Setup                |
           -------------------------------------------------

          program call               : /srv/scratch/z5358697/.xtb/bin/xtb xtb_rrho.coord --gfn2 --bhess vtight --chrg 0 --enso --norestart -I rrho-xcontrol-inp --parallel 1 --alpb water
          hostname                   : k163
          coordinate file            : xtb_rrho.coord
          omp threads                :                     1


           -------------------------------------------------
          |                 G F N 2 - x T B                 |
           -------------------------------------------------

        Reference                      10.1021/acs.jctc.8b01176
      * Hamiltonian:
        H0-scaling (s, p, d)           1.850000    2.230000    2.230000
        zeta-weighting                 0.500000
      * Dispersion:
        s8                             2.700000
        a1                             0.520000
        a2                             5.000000
        s9                             5.000000
      * Repulsion:
        kExp                           1.500000    1.000000
        rExp                           1.000000
      * Coulomb:
        alpha                          2.000000
        third order                    shell-resolved
        anisotropic                    true
        a3                             3.000000
        a5                             4.000000
        cn-shift                       1.200000
        cn-exp                         4.000000
        max-rad                        5.000000

      * Solvation model:               ALPB
        Solvent                        water
        Parameter file                 internal GFN2-xTB/ALPB
        Dielectric constant                8.0200E+01
        Reference state                gsolv [1 M gas/solution]
        Free energy shift                  1.0808E-03 Eh       6.7819E-01 kcal/mol
        Temperature                        2.9815E+02 K
        Density                            1.0000E+00 kg/L
        Solvent mass                       1.8000E+01 g/mol
        Interaction kernel             P16
        Born radius scaling (c1)           1.4744E+00
        Born radii integrator          GBOBC
        Born offset                        0.0000E+00 a0       0.0000E+00 AA
        H-bond correction              true
        Ion screening                  false
        Surface tension                    1.0000E-05 Eh       1.5569E+01 dyn/cm
        Grid points                               974 per atom

          ...................................................
          :                      SETUP                      :
          :.................................................:
          :  # basis functions                 134          :
          :  # atomic orbitals                 128          :
          :  # shells                           66          :
          :  # electrons                       116          :
          :  max. iterations                   250          :
          :  Hamiltonian                  GFN2-xTB          :
          :  restarted?                      false          :
          :  GBSA solvation                   true          :
          :  PC potential                    false          :
          :  electronic temp.          300.0000000     K    :
          :  accuracy                    1.0000000          :
          :  -> integral cutoff          0.2500000E+02      :
          :  -> integral neglect         0.1000000E-07      :
          :  -> SCF convergence          0.1000000E-05 Eh   :
          :  -> wf. convergence          0.1000000E-03 e    :
          :  Broyden damping             0.4000000          :
          :  net charge                          0          :
          :  unpaired electrons                  0          :
          ...................................................

 iter      E             dE          RMSdq      gap      omega  full diag
   1    -65.4091131 -0.654091E+02  0.657E+00    4.39       0.0  T
   2    -65.5329737 -0.123861E+00  0.370E+00    3.80       1.0  T
   3    -65.5509720 -0.179983E-01  0.105E+00    3.37       1.0  T
   4    -65.5546598 -0.368782E-02  0.487E-01    3.32       1.0  T
   5    -65.5554580 -0.798120E-03  0.263E-01    3.37       1.0  T
   6    -65.5556374 -0.179454E-03  0.117E-01    3.37       1.0  T
   7    -65.5556830 -0.455944E-04  0.425E-02    3.38       1.0  T
   8    -65.5556860 -0.299386E-05  0.164E-02    3.38       1.0  T
   9    -65.5556866 -0.633519E-06  0.442E-03    3.38       3.5  T
  10    -65.5556866 -0.834831E-09  0.220E-03    3.38       7.1  T
  11    -65.5556867 -0.329867E-07  0.454E-04    3.38      34.4  T
  12    -65.5556867 -0.521936E-09  0.231E-04    3.38      67.5  T

   *** convergence criteria satisfied after 12 iterations ***

         #    Occupation            Energy/Eh            Energy/eV
      -------------------------------------------------------------
         1        2.0000           -0.7575021             -20.6127
       ...           ...                  ...                  ...
        52        2.0000           -0.4459270             -12.1343
        53        2.0000           -0.4162300             -11.3262
        54        2.0000           -0.4112220             -11.1899
        55        2.0000           -0.3953315             -10.7575
        56        2.0000           -0.3939016             -10.7186
        57        2.0000           -0.3930751             -10.6961
        58        2.0000           -0.3918725             -10.6634 (HOMO)
        59                         -0.2675342              -7.2800 (LUMO)
        60                         -0.2550359              -6.9399
        61                         -0.2284330              -6.2160
        62                         -0.1888868              -5.1399
        63                         -0.1808099              -4.9201
       ...                                ...                  ...
       128                          1.2212847              33.2328
      -------------------------------------------------------------
                  HL-Gap            0.1243384 Eh            3.3834 eV
             Fermi-level           -0.3297034 Eh           -8.9717 eV

 SCC (total)                   0 d,  0 h,  0 min,  0.051 sec
 SCC setup                      ...        0 min,  0.002 sec (  4.614%)
 Dispersion                     ...        0 min,  0.000 sec (  0.573%)
 classical contributions        ...        0 min,  0.000 sec (  0.109%)
 integral evaluation            ...        0 min,  0.007 sec ( 14.498%)
 iterations                     ...        0 min,  0.023 sec ( 44.319%)
 molecular gradient             ...        0 min,  0.018 sec ( 35.369%)
 printout                       ...        0 min,  0.000 sec (  0.496%)

         :::::::::::::::::::::::::::::::::::::::::::::::::::::
         ::                     SUMMARY                     ::
         :::::::::::::::::::::::::::::::::::::::::::::::::::::
         :: total energy             -65.017682151257 Eh    ::
         :: total w/o Gsasa/hb       -65.020038592045 Eh    ::
         :: gradient norm              0.054728236260 Eh/a0 ::
         :: HOMO-LUMO gap              3.383419156429 eV    ::
         ::.................................................::
         :: SCC energy               -65.554993015001 Eh    ::
         :: -> isotropic ES            0.124145506359 Eh    ::
         :: -> anisotropic ES         -0.011042760958 Eh    ::
         :: -> anisotropic XC          0.031507614641 Eh    ::
         :: -> dispersion             -0.050467790829 Eh    ::
         :: -> Gsolv                  -0.019453454695 Eh    ::
         ::    -> Gelec               -0.021809895483 Eh    ::
         ::    -> Gsasa                0.005556209365 Eh    ::
         ::    -> Ghb                 -0.004280528275 Eh    ::
         ::    -> Gshift               0.001080759698 Eh    ::
         :: repulsion energy           0.537310863744 Eh    ::
         :: add. restraining           0.000000000000 Eh    ::
         :: total charge              -0.000000000000 e     ::
         :::::::::::::::::::::::::::::::::::::::::::::::::::::

metadynamics with 1 initial structures loaded
           -------------------------------------------------
          |           Optimal kpush determination           |
           -------------------------------------------------
      ----------------------------------------------------------- 
     |                   =====================                   |
     |                        A N C O P T                        |
     |                   =====================                   |
     |               Approximate Normal Coordinate               |
     |                Rational Function Optimizer                |
      ----------------------------------------------------------- 
target rmsd / Å         0.100000
unbiased initial rmsd   0.174582
 
iter. min.        max.        rmsd       kpush
      ----------------------------------------------------------- 
     |                   =====================                   |
     |                        A N C O P T                        |
     |                   =====================                   |
     |               Approximate Normal Coordinate               |
     |                Rational Function Optimizer                |
      ----------------------------------------------------------- 
 1    0.000000    1.863636    0.015610   -0.931818
      ----------------------------------------------------------- 
     |                   =====================                   |
     |                        A N C O P T                        |
     |                   =====================                   |
     |               Approximate Normal Coordinate               |
     |                Rational Function Optimizer                |
      ----------------------------------------------------------- 
 2    0.000000    0.931818    0.022152   -0.465909
      ----------------------------------------------------------- 
     |                   =====================                   |
     |                        A N C O P T                        |
     |                   =====================                   |
     |               Approximate Normal Coordinate               |
     |                Rational Function Optimizer                |
      ----------------------------------------------------------- 
 3    0.000000    0.465909    0.031605   -0.232955
      ----------------------------------------------------------- 
     |                   =====================                   |
     |                        A N C O P T                        |
     |                   =====================                   |
     |               Approximate Normal Coordinate               |
     |                Rational Function Optimizer                |
      ----------------------------------------------------------- 
 4    0.000000    0.232955    0.044894   -0.116477
      ----------------------------------------------------------- 
     |                   =====================                   |
     |                        A N C O P T                        |
     |                   =====================                   |
     |               Approximate Normal Coordinate               |
     |                Rational Function Optimizer                |
      ----------------------------------------------------------- 
 5    0.000000    0.116477    0.062523   -0.058239
      ----------------------------------------------------------- 
     |                   =====================                   |
     |                        A N C O P T                        |
     |                   =====================                   |
     |               Approximate Normal Coordinate               |
     |                Rational Function Optimizer                |
      ----------------------------------------------------------- 
 6    0.000000    0.058239    0.083779   -0.029119
      ----------------------------------------------------------- 
     |                   =====================                   |
     |                        A N C O P T                        |
     |                   =====================                   |
     |               Approximate Normal Coordinate               |
     |                Rational Function Optimizer                |
      ----------------------------------------------------------- 
 7    0.000000    0.029119    0.106036   -0.014560
      ----------------------------------------------------------- 
     |                   =====================                   |
     |                        A N C O P T                        |
     |                   =====================                   |
     |               Approximate Normal Coordinate               |
     |                Rational Function Optimizer                |
      ----------------------------------------------------------- 
 8    0.014560    0.029119    0.092920   -0.021839
      ----------------------------------------------------------- 
     |                   =====================                   |
     |                        A N C O P T                        |
     |                   =====================                   |
     |               Approximate Normal Coordinate               |
     |                Rational Function Optimizer                |
      ----------------------------------------------------------- 
 9    0.014560    0.021839    0.098936   -0.018200
      ----------------------------------------------------------- 
     |                   =====================                   |
     |                        A N C O P T                        |
     |                   =====================                   |
     |               Approximate Normal Coordinate               |
     |                Rational Function Optimizer                |
      ----------------------------------------------------------- 
10    0.014560    0.018200    0.102181   -0.016380
final kpush: -0.016380
           -------------------------------------------------
          |            Biased Numerical Hessian             |
           -------------------------------------------------
kpush                :  -0.01638
alpha                :   1.00000
step length          :   0.00500
SCC accuracy         :   0.30000
Hessian scale factor :   1.00000
frozen atoms in %    :   0.00000    0
RMS gradient         :   0.00009
estimated CPU  time      0.18 min
estimated wall time      0.18 min

writing file <hessian>.

 projected vibrational frequencies (cm⁻¹)
eigval :       -0.00    -0.00    -0.00     0.00     0.00     0.00
eigval :       40.48    42.88    49.04    50.19    71.09    64.50
eigval :       63.45    67.76    71.29    73.57    75.05    83.19
eigval :       94.98   118.57   128.40   130.58   141.82   150.18
eigval :      160.28   192.43   207.26   218.95   234.11   236.86
eigval :      227.63   229.30   245.45   282.24   291.05   299.45
eigval :      323.21   326.99   345.09   420.10   429.15   438.07
eigval :      455.91   466.95   491.08   608.06   616.06   668.61
eigval :      673.80   728.25   736.52   760.00   774.30   795.25
eigval :      821.02   822.43   824.83   827.86   908.95   919.64
eigval :      932.84   954.30  1041.47  1046.24  1058.78  1069.32
eigval :     1092.36  1094.97  1095.06  1092.44  1097.48  1131.27
eigval :     1132.16  1134.65  1137.05  1166.84  1235.11  1238.37
eigval :     1238.41  1239.55  1305.41  1310.08  1310.74  1312.53
eigval :     1344.26  1391.94  1392.79  1393.05  1398.52  1436.10
eigval :     1437.34  1439.47  1440.64  1461.87  1462.29  1462.89
eigval :     1464.00  1477.46  1478.10  1478.80  1479.64  2916.90
eigval :     2922.28  2922.31  2927.71  2929.08  2973.78  2979.11
eigval :     2980.43  2982.15  3001.47  3006.07  3020.62  3022.45
eigval :     3027.65  3042.58  3046.21  3048.29  3048.74  3053.99
eigval :     3059.71  3061.28  3062.72
           -------------------------------------------------
          |                Property Printout                |
           -------------------------------------------------

    * Orbital Energies and Occupations

         #    Occupation            Energy/Eh            Energy/eV
      -------------------------------------------------------------
         1        2.0000           -0.7637297             -20.7821
       ...           ...                  ...                  ...
        46        2.0000           -0.4654689             -12.6661
        47        2.0000           -0.4583441             -12.4722
        48        2.0000           -0.4569628             -12.4346
        49        2.0000           -0.4527823             -12.3208
        50        2.0000           -0.4516950             -12.2912
        51        2.0000           -0.4488246             -12.2131
        52        2.0000           -0.4450290             -12.1099
        53        2.0000           -0.4178085             -11.3691
        54        2.0000           -0.4104018             -11.1676
        55        2.0000           -0.3938712             -10.7178
        56        2.0000           -0.3916514             -10.6574
        57        2.0000           -0.3906470             -10.6300
        58        2.0000           -0.3899873             -10.6121 (HOMO)
        59                         -0.2701472              -7.3511 (LUMO)
        60                         -0.2589229              -7.0457
        61                         -0.2213228              -6.0225
        62                         -0.1855814              -5.0499
        63                         -0.1759896              -4.7889
        64                         -0.1710944              -4.6557
        65                         -0.1592216              -4.3326
        66                         -0.1558595              -4.2412
        67                         -0.1357105              -3.6929
        68                         -0.1298857              -3.5344
        69                         -0.0476874              -1.2976
       ...                                ...                  ...
       128                          1.2199950              33.1978
      -------------------------------------------------------------
                  HL-Gap            0.1198401 Eh            3.2610 eV
             Fermi-level           -0.3300673 Eh           -8.9816 eV

     #   Z          covCN         q      C6AA      α(0)
     1   6 C        3.751    -0.128    23.017     6.842
     2   6 C        3.870     0.075    19.285     6.244
     3   8 O        1.655    -0.252    18.197     5.759
     4  15 P        3.832     0.375   144.634    21.604
     5  16 S        0.926    -0.465   159.704    21.375
     6   8 O        1.655    -0.252    18.185     5.757
     7   6 C        3.837     0.075    19.305     6.251
     8   6 C        3.751    -0.127    22.997     6.839
     9  16 S        1.994    -0.145   147.168    20.418
    10   6 C        3.805     0.036    19.960     6.360
    11  16 S        1.995    -0.125   146.282    20.356
    12  15 P        3.857     0.375   144.626    21.603
    13  16 S        0.925    -0.474   160.136    21.404
    14   8 O        1.655    -0.267    18.441     5.797
    15   6 C        3.864     0.076    19.275     6.243
    16   6 C        3.751    -0.127    23.002     6.840
    17   8 O        1.655    -0.253    18.216     5.762
    18   6 C        3.863     0.074    19.315     6.250
    19   6 C        3.751    -0.125    22.968     6.835
    20   1 H        0.925     0.054     2.267     2.354
    21   1 H        0.925     0.085     1.928     2.172
    22   1 H        0.925     0.070     2.080     2.256
    23   1 H        0.924     0.064     2.153     2.295
    24   1 H        0.924     0.092     1.860     2.133
    25   1 H        0.924     0.060     2.201     2.320
    26   1 H        0.924     0.097     1.809     2.103
    27   1 H        0.925     0.070     2.091     2.261
    28   1 H        0.925     0.055     2.259     2.350
    29   1 H        0.925     0.082     1.955     2.186
    30   1 H        0.925     0.091     1.868     2.137
    31   1 H        0.925     0.105     1.743     2.065
    32   1 H        0.924     0.090     1.880     2.144
    33   1 H        0.924     0.063     2.164     2.301
    34   1 H        0.925     0.071     2.069     2.250
    35   1 H        0.925     0.083     1.949     2.183
    36   1 H        0.925     0.054     2.268     2.355
    37   1 H        0.924     0.095     1.829     2.115
    38   1 H        0.924     0.066     2.134     2.285
    39   1 H        0.925     0.069     2.092     2.262
    40   1 H        0.925     0.087     1.910     2.161
    41   1 H        0.924     0.048     2.342     2.393

 Mol. C6AA /au·bohr⁶  :      26405.432813
 Mol. C8AA /au·bohr⁸  :     862673.791393
 Mol. α(0) /au        :        257.617429


Wiberg/Mayer (AO) data.
largest (>0.10) Wiberg bond orders for each atom

 ---------------------------------------------------------------------------
     #   Z sym  total        # sym  WBO       # sym  WBO       # sym  WBO
 ---------------------------------------------------------------------------
     1   6 C    3.987 --     2 C    1.021    22 H    0.982    20 H    0.977
                            21 H    0.976
     2   6 C    3.887 --     1 C    1.021    23 H    0.966    24 H    0.965
                             3 O    0.889
     3   8 O    2.414 --     4 P    1.335     2 C    0.889
     4  15 P    5.250 --     5 S    1.497     3 O    1.335     6 O    1.325
                             9 S    0.950
     5  16 S    1.851 --     4 P    1.497     9 S    0.149
     6   8 O    2.417 --     4 P    1.325     7 C    0.887
     7   6 C    3.887 --     8 C    1.021    25 H    0.963    26 H    0.963
                             6 O    0.887
     8   6 C    3.986 --     7 C    1.021    27 H    0.983    28 H    0.977
                            29 H    0.977
     9  16 S    2.283 --    10 C    0.992     4 P    0.950     5 S    0.149
    10   6 C    3.953 --     9 S    0.992    11 S    0.984    30 H    0.959
                            31 H    0.941
    11  16 S    2.285 --    12 P    0.986    10 C    0.984    13 S    0.133
    12  15 P    5.283 --    13 S    1.509    17 O    1.323    14 O    1.317
                            11 S    0.986
    13  16 S    1.836 --    12 P    1.509    11 S    0.133
    14   8 O    2.389 --    12 P    1.317    15 C    0.879
    15   6 C    3.891 --    16 C    1.023    33 H    0.967    32 H    0.966
                            14 O    0.879
    16   6 C    3.987 --    15 C    1.023    34 H    0.982    36 H    0.977
                            35 H    0.976
    17   8 O    2.413 --    12 P    1.323    18 C    0.888
    18   6 C    3.890 --    19 C    1.022    38 H    0.968    37 H    0.964
                            17 O    0.888
    19   6 C    3.988 --    18 C    1.022    39 H    0.982    40 H    0.976
                            41 H    0.974
    20   1 H    0.997 --     1 C    0.977
    21   1 H    0.992 --     1 C    0.976
    22   1 H    0.995 --     1 C    0.982
    23   1 H    0.996 --     2 C    0.966
    24   1 H    0.991 --     2 C    0.965
    25   1 H    0.996 --     7 C    0.963
    26   1 H    0.990 --     7 C    0.963
    27   1 H    0.995 --     8 C    0.983
    28   1 H    0.997 --     8 C    0.977
    29   1 H    0.993 --     8 C    0.977
    30   1 H    0.992 --    10 C    0.959
    31   1 H    0.989 --    10 C    0.941
    32   1 H    0.991 --    15 C    0.966
    33   1 H    0.996 --    15 C    0.967
    34   1 H    0.995 --    16 C    0.982
    35   1 H    0.992 --    16 C    0.976
    36   1 H    0.997 --    16 C    0.977
    37   1 H    0.991 --    18 C    0.964
    38   1 H    0.996 --    18 C    0.968
    39   1 H    0.995 --    19 C    0.982
    40   1 H    0.992 --    19 C    0.976
    41   1 H    0.998 --    19 C    0.974
 ---------------------------------------------------------------------------

Topologies differ in total number of bonds
Writing topology from bond orders to xtbtopo.mol

molecular dipole:
                 x           y           z       tot (Debye)
 q only:       -1.527      -0.936       0.312
   full:       -1.535      -0.892       0.275       4.565
molecular quadrupole (traceless):
                xx          xy          yy          xz          yz          zz
 q only:       10.958      -4.349       5.966     -24.249     -13.856     -16.924
  q+dip:       11.744      -8.597       7.904     -24.790     -13.216     -19.649
   full:       13.619      -8.466       6.982     -24.982     -13.855     -20.600

           -------------------------------------------------
          |                Geometry Summary                 |
           -------------------------------------------------

      molecular mass/u    :      384.4756129
   center of mass at/Å    :       -0.0001877       0.0171919       0.0004001
  moments of inertia/u·Å² :        0.1232544E+04   0.4026324E+04   0.4367212E+04
rotational constants/cm⁻¹ :        0.1367710E-01   0.4186854E-02   0.3860044E-02

 * 38 selected distances

     #   Z          #   Z                                           value/Å
     1   6 C        2   6 C                                       1.5158959
     2   6 C        3   8 O                                       1.4375775
     3   8 O        4  15 P                                       1.5807093
     4  15 P        5  16 S                                       1.9666542
     4  15 P        6   8 O                                       1.5837196
     6   8 O        7   6 C                                       1.4368796
     7   6 C        8   6 C                                       1.5160743
     4  15 P        9  16 S                                       2.1395350 (max)
    11  16 S       12  15 P                                       2.1137311
    12  15 P       13  16 S                                       1.9660018
    12  15 P       14   8 O                                       1.5863972
    14   8 O       15   6 C                                       1.4437625
    15   6 C       16   6 C                                       1.5150887
    12  15 P       17   8 O                                       1.5895471
    17   8 O       18   6 C                                       1.4375347
    18   6 C       19   6 C                                       1.5149796
     1   6 C       20   1 H                                       1.0890210
     1   6 C       21   1 H                                       1.0855152
     1   6 C       22   1 H                                       1.0870342
     2   6 C       23   1 H                                       1.0951095
     2   6 C       24   1 H                                       1.0911446
     7   6 C       25   1 H                                       1.0943231
     7   6 C       26   1 H                                       1.0914775
     8   6 C       27   1 H                                       1.0868641
     8   6 C       28   1 H                                       1.0888431
     8   6 C       29   1 H                                       1.0851774 (min)
    10   6 C       30   1 H                                       1.0870778
    10   6 C       31   1 H                                       1.0926860
    15   6 C       32   1 H                                       1.0908635
    15   6 C       33   1 H                                       1.0949807
    16   6 C       34   1 H                                       1.0867223
    16   6 C       35   1 H                                       1.0859452
    16   6 C       36   1 H                                       1.0888506
    18   6 C       37   1 H                                       1.0908322
    18   6 C       38   1 H                                       1.0947335
    19   6 C       39   1 H                                       1.0872841
    19   6 C       40   1 H                                       1.0853329
    19   6 C       41   1 H                                       1.0902242

 * 5 distinct bonds (by element types)

   Z      Z             #   av. dist./Å        max./Å        min./Å
   1 H    6 C          22     1.0895474     1.0951095     1.0851774
   6 C    6 C           4     1.5155096     1.5160743     1.5149796
   6 C    8 O           4     1.4389386     1.4437625     1.4368796
   8 O   15 P           4     1.5850933     1.5895471     1.5807093
  15 P   16 S           4     2.0464805     2.1395350     1.9660018

           -------------------------------------------------
          |               Frequency Printout                |
           -------------------------------------------------
 projected vibrational frequencies (cm⁻¹)
eigval :       -0.00    -0.00    -0.00     0.00     0.00     0.00
eigval :       40.48    42.88    49.04    50.19    71.09    64.50
eigval :       63.45    67.76    71.29    73.57    75.05    83.19
eigval :       94.98   118.57   128.40   130.58   141.82   150.18
eigval :      160.28   192.43   207.26   218.95   234.11   236.86
eigval :      227.63   229.30   245.45   282.24   291.05   299.45
eigval :      323.21   326.99   345.09   420.10   429.15   438.07
eigval :      455.91   466.95   491.08   608.06   616.06   668.61
eigval :      673.80   728.25   736.52   760.00   774.30   795.25
eigval :      821.02   822.43   824.83   827.86   908.95   919.64
eigval :      932.84   954.30  1041.47  1046.24  1058.78  1069.32
eigval :     1092.36  1094.97  1095.06  1092.44  1097.48  1131.27
eigval :     1132.16  1134.65  1137.05  1166.84  1235.11  1238.37
eigval :     1238.41  1239.55  1305.41  1310.08  1310.74  1312.53
eigval :     1344.26  1391.94  1392.79  1393.05  1398.52  1436.10
eigval :     1437.34  1439.47  1440.64  1461.87  1462.29  1462.89
eigval :     1464.00  1477.46  1478.10  1478.80  1479.64  2916.90
eigval :     2922.28  2922.31  2927.71  2929.08  2973.78  2979.11
eigval :     2980.43  2982.15  3001.47  3006.07  3020.62  3022.45
eigval :     3027.65  3042.58  3046.21  3048.29  3048.74  3053.99
eigval :     3059.71  3061.28  3062.72
 reduced masses (amu)
   1: 16.53   2: 20.61   3: 19.59   4: 20.99   5: 21.31   6: 17.72   7: 23.53   8: 23.10
   9: 21.55  10: 16.44  11: 25.37  12: 15.10  13: 12.59  14: 14.82  15: 12.77  16: 12.81
  17: 12.03  18: 12.54  19: 12.33  20: 18.24  21: 14.15  22: 13.97  23: 14.72  24: 16.29
  25: 17.42  26: 16.52  27: 19.43  28: 15.79  29: 15.19  30: 14.71  31:  5.88  32:  5.56
  33:  5.55  34: 21.87  35: 13.50  36: 12.52  37: 16.48  38: 16.27  39: 19.30  40: 24.71
  41: 21.48  42: 12.74  43: 17.52  44: 11.52  45: 16.28  46: 25.64  47: 26.53  48: 18.35
  49: 17.18  50: 19.54  51: 19.89  52: 22.91  53: 21.54  54:  6.07  55:  2.59  56:  2.82
  57:  3.62  58:  2.79  59: 12.51  60: 12.37  61: 10.95  62: 10.24  63:  8.51  64:  8.91
  65:  9.80  66: 11.11  67:  5.97  68:  7.80  69:  7.85  70:  3.48  71:  7.80  72:  5.23
  73:  5.19  74:  5.34  75:  5.23  76:  2.21  77:  2.32  78:  2.34  79:  2.36  80:  2.38
  81:  3.15  82:  3.05  83:  3.09  84:  3.07  85:  1.76  86:  3.11  87:  3.12  88:  3.13
  89:  3.10  90:  1.95  91:  1.95  92:  1.93  93:  1.93  94:  1.51  95:  1.50  96:  1.50
  97:  1.50  98:  1.56  99:  1.56 100:  1.57 101:  1.55 102:  1.71 103:  1.74 104:  1.74
 105:  1.74 106:  1.74 107:  1.72 108:  1.73 109:  1.73 110:  1.73 111:  1.82 112:  1.75
 113:  1.76 114:  1.77 115:  1.77 116:  1.67 117:  1.64 118:  1.60 119:  1.64 120:  1.80
 121:  1.76 122:  1.76 123:  1.75
 IR intensities (km·mol⁻¹)
   1:  0.25   2:  0.14   3:  0.04   4:  0.10   5:  0.02   6:  0.09   7:  3.34   8:  1.87
   9:  1.56  10:  1.27  11:  0.41  12:  1.38  13:  4.95  14:  2.40  15:  2.00  16:  1.65
  17:  3.51  18:  2.03  19:  2.59  20:  4.47  21: 17.96  22:  0.32  23: 16.18  24: 20.51
  25:  7.14  26:  4.63  27: 15.63  28:  5.29  29: 23.23  30:  3.89  31:  6.09  32:  2.82
  33:  1.44  34:  7.46  35:  6.48  36:  1.79  37:  9.75  38:  7.75  39:  6.22  40:198.13
  41: 17.07  42:  8.19  43: 19.78  44: 29.22  45:125.42  46:352.12  47:  4.99  48:  6.42
  49: 38.96  50:134.14  51:187.93  52:356.99  53:307.57  54:  3.38  55:  7.66  56:  4.46
  57: 11.99  58:  3.50  59:291.85  60:354.34  61: 90.72  62: 29.49  63:192.78  64:303.02
  65:120.33  66: 11.13  67: 13.56  68:  4.12  69: 10.59  70:  3.66  71: 17.94  72: 20.39
  73: 14.53  74: 27.42  75: 19.24  76: 43.66  77:  7.63  78:  0.90  79:  5.82  80:  0.95
  81:  6.51  82:  6.74  83:  3.86  84:  3.12  85:  7.80  86: 12.03  87: 11.40  88: 13.03
  89: 11.27  90:  4.68  91:  7.91  92:  8.38  93:  4.61  94:  6.20  95:  4.61  96:  9.72
  97: 11.87  98:  5.36  99:  2.01 100:  6.27 101:  2.06 102: 68.80 103: 28.31 104: 28.05
 105: 30.63 106: 14.70 107:  7.42 108:  9.88 109:  8.72 110:  3.62 111:  5.39 112: 60.51
 113: 57.48 114: 47.66 115: 46.76 116: 19.67 117: 19.54 118: 15.68 119: 19.56 120: 11.96
 121: 12.19 122:  8.91 123: 10.16
 Raman intensities (Ä⁴*amu⁻¹)
   1:  0.00   2:  0.00   3:  0.00   4:  0.00   5:  0.00   6:  0.00   7:  0.00   8:  0.00
   9:  0.00  10:  0.00  11:  0.00  12:  0.00  13:  0.00  14:  0.00  15:  0.00  16:  0.00
  17:  0.00  18:  0.00  19:  0.00  20:  0.00  21:  0.00  22:  0.00  23:  0.00  24:  0.00
  25:  0.00  26:  0.00  27:  0.00  28:  0.00  29:  0.00  30:  0.00  31:  0.00  32:  0.00
  33:  0.00  34:  0.00  35:  0.00  36:  0.00  37:  0.00  38:  0.00  39:  0.00  40:  0.00
  41:  0.00  42:  0.00  43:  0.00  44:  0.00  45:  0.00  46:  0.00  47:  0.00  48:  0.00
  49:  0.00  50:  0.00  51:  0.00  52:  0.00  53:  0.00  54:  0.00  55:  0.00  56:  0.00
  57:  0.00  58:  0.00  59:  0.00  60:  0.00  61:  0.00  62:  0.00  63:  0.00  64:  0.00
  65:  0.00  66:  0.00  67:  0.00  68:  0.00  69:  0.00  70:  0.00  71:  0.00  72:  0.00
  73:  0.00  74:  0.00  75:  0.00  76:  0.00  77:  0.00  78:  0.00  79:  0.00  80:  0.00
  81:  0.00  82:  0.00  83:  0.00  84:  0.00  85:  0.00  86:  0.00  87:  0.00  88:  0.00
  89:  0.00  90:  0.00  91:  0.00  92:  0.00  93:  0.00  94:  0.00  95:  0.00  96:  0.00
  97:  0.00  98:  0.00  99:  0.00 100:  0.00 101:  0.00 102:  0.00 103:  0.00 104:  0.00
 105:  0.00 106:  0.00 107:  0.00 108:  0.00 109:  0.00 110:  0.00 111:  0.00 112:  0.00
 113:  0.00 114:  0.00 115:  0.00 116:  0.00 117:  0.00 118:  0.00 119:  0.00 120:  0.00
 121:  0.00 122:  0.00 123:  0.00
 output can be read by thermo (or use thermo option).
 writing <g98.out> molden fake output.
 recommended (thermochemical) frequency scaling factor: 1.0
           -------------------------------------------------
          |             Thermodynamic Functions             |
           -------------------------------------------------

Molecule has no symmetry elements
It seems to be the C1 point group
c1  symmetry found (for desy threshold:  0.10E+00) used in thermo

          ...................................................
          :                      SETUP                      :
          :.................................................:
          :  # frequencies                         117      :
          :  # imaginary freq.                       0      :
          :  linear?                             false      :
          :  only rotor calc.                    false      :
          :  symmetry                               c1      :
          :  rotational number                       1      :
          :  scaling factor                  1.0000000      :
          :  rotor cutoff                    0.0000000 cm⁻¹ :
          :  imag. cutoff                 -100.0000000 cm⁻¹ :
          :.................................................:

    mode    ω/cm⁻¹     T·S(HO)/kcal·mol⁻¹    T·S(FR)/kcal·mol⁻¹   T·S(vib)
   ------------------------------------------------------------------------
       1     40.48    -1.56102 (100.00%)    -1.11912 (  0.00%)    -1.56102
       2     42.88    -1.52693 (100.00%)    -1.10202 (  0.00%)    -1.52693
       3     49.04    -1.44778 (100.00%)    -1.06229 (  0.00%)    -1.44778
       4     50.19    -1.43405 (100.00%)    -1.05539 (  0.00%)    -1.43405
       5     71.09    -1.22923 (100.00%)    -0.95226 (  0.00%)    -1.22923
       6     64.50    -1.28637 (100.00%)    -0.98109 (  0.00%)    -1.28637
       7     63.45    -1.29606 (100.00%)    -0.98597 (  0.00%)    -1.29606
       8     67.76    -1.25743 (100.00%)    -0.96650 (  0.00%)    -1.25743
       9     71.29    -1.22759 (100.00%)    -0.95143 (  0.00%)    -1.22759
      10     73.57    -1.20911 (100.00%)    -0.94210 (  0.00%)    -1.20911
      11     75.05    -1.19745 (100.00%)    -0.93621 (  0.00%)    -1.19745
      12     83.19    -1.13721 (100.00%)    -0.90572 (  0.00%)    -1.13721
      13     94.98    -1.05986 (100.00%)    -0.86645 (  0.00%)    -1.05986
      14    118.57    -0.93131 (100.00%)    -0.80075 (  0.00%)    -0.93131
      15    128.40    -0.88548 (100.00%)    -0.77715 (  0.00%)    -0.88548
      16    130.58    -0.87580 (100.00%)    -0.77215 (  0.00%)    -0.87580
      17    141.82    -0.82861 (100.00%)    -0.74769 (  0.00%)    -0.82861
      18    150.18    -0.79603 (100.00%)    -0.73072 (  0.00%)    -0.79603
      19    160.28    -0.75925 (100.00%)    -0.71146 (  0.00%)    -0.75925
      20    192.43    -0.65720 (100.00%)    -0.65729 (  0.00%)    -0.65720
      21    207.26    -0.61646 (100.00%)    -0.63529 (  0.00%)    -0.61646
      22    218.95    -0.58668 (100.00%)    -0.61904 (  0.00%)    -0.58668
      23    234.11    -0.55074 (100.00%)    -0.59921 (  0.00%)    -0.55074
      24    236.86    -0.54453 (100.00%)    -0.59576 (  0.00%)    -0.54453
      25    227.63    -0.56575 (100.00%)    -0.60752 (  0.00%)    -0.56575
      26    229.30    -0.56183 (100.00%)    -0.60536 (  0.00%)    -0.56183
      27    245.45    -0.52564 (100.00%)    -0.58520 (  0.00%)    -0.52564
      28    282.24    -0.45321 (100.00%)    -0.54383 (  0.00%)    -0.45321
      29    291.05    -0.43765 (100.00%)    -0.53473 (  0.00%)    -0.43765
      30    299.45    -0.42337 (100.00%)    -0.52630 (  0.00%)    -0.42337
   ------------------------------------------------------------------------

   temp. (K)  partition function   enthalpy   heat capacity  entropy
                                   cal/mol     cal/K/mol   cal/K/mol   J/K/mol
 298.15  VIB  0.129E+13            15510.829     88.134    107.441
         ROT  0.112E+08              888.752      2.981     35.245
         INT  0.145E+20            16399.581     91.115    142.686
         TR   0.729E+28             1481.254      4.968     43.712
         TOT                       17880.8351    96.0828   186.3983   779.8905

       T/K    H(0)-H(T)+PV         H(T)/Eh          T*S/Eh         G(T)/Eh
   ------------------------------------------------------------------------
    298.15    0.284949E-01    0.341666E+00    0.885639E-01    0.253102E+00
   ------------------------------------------------------------------------

         :::::::::::::::::::::::::::::::::::::::::::::::::::::
         ::                  THERMODYNAMIC                  ::
         :::::::::::::::::::::::::::::::::::::::::::::::::::::
         :: total free energy         -64.787708103795 Eh   ::
         ::.................................................::
         :: total energy              -65.040810374424 Eh   ::
         :: zero point energy           0.313171199467 Eh   ::
         :: G(RRHO) w/o ZPVE           -0.060068928838 Eh   ::
         :: G(RRHO) contrib.            0.253102270629 Eh   ::
         :::::::::::::::::::::::::::::::::::::::::::::::::::::

optimized geometry written to: xtbopt.coord


           -------------------------------------------------
          | TOTAL ENERGY              -65.040810374424 Eh   |
          | TOTAL ENTHALPY            -64.699144250459 Eh   |
          | TOTAL FREE ENERGY         -64.787708103795 Eh   |
          | GRADIENT NORM               0.000094043944 Eh/α |
          | HOMO-LUMO GAP               3.261015286169 eV   |
           -------------------------------------------------

------------------------------------------------------------------------
 * finished run on 2025/04/09 at 14:01:15.048     
------------------------------------------------------------------------
 total:
 * wall-time:     0 d,  0 h,  0 min, 23.266 sec
 *  cpu-time:     0 d,  0 h,  0 min, 22.969 sec
 * ratio c/w:     0.987 speedup
 SCF:
 * wall-time:     0 d,  0 h,  0 min,  0.052 sec
 *  cpu-time:     0 d,  0 h,  0 min,  0.051 sec
 * ratio c/w:     0.993 speedup
 analytical hessian:
 * wall-time:     0 d,  0 h,  0 min, 10.383 sec
 *  cpu-time:     0 d,  0 h,  0 min, 10.338 sec
 * ratio c/w:     0.996 speedup

