41
 energy: -2932.481641203648 gnorm: 0.007305068621 xtb: 6.7.1 (edcfbbe)
C            5.80021903583818       -0.08679201458786       -0.39634942473706
C            4.67496066148405       -1.07093973300740       -0.19889703974928
O            3.53748828849012       -0.38458477209482        0.43399385555808
P            2.18144606820078       -0.09629537311230       -0.38678146026968
S            2.35280923347946        0.52881152723192       -2.22313895763863
O            1.41142656493203        0.87227793735037        0.63252459617597
C            1.47775804214505        2.33996092605439        0.52175357111512
C            2.80565215917354        2.87444303821647        0.99901305875573
S            1.19334677739639       -1.94665415382987       -0.09824305123665
C           -0.27418378069673       -1.77148631212948       -1.20515057869193
S           -1.90346031061479       -1.79458255055003       -0.36119690054994
P           -2.30681106007381        0.27992980911014       -0.07826084284791
S           -1.90778132632138        1.44078773668364       -1.58805449198518
O           -1.55528631135653        0.77256097508831        1.24736035974683
C           -1.24988170755404       -0.05513732016874        2.42478170567194
C           -2.48432326506197       -0.44384491640651        3.20317304931409
O           -3.83683665523554        0.18793737187943        0.41342656165493
C           -4.98215797552427        0.36441952227894       -0.49320836852163
C           -5.22857879718113       -0.85442610301156       -1.34888435273689
H            6.09437258935006        0.36128247439005        0.55947946611510
H            6.66771091930056       -0.61135296285361       -0.81404795434874
H            5.50811141143250        0.70193755041132       -1.09526205445002
H            4.94703473045641       -1.87157750906699        0.49522165479897
H            4.35522036468416       -1.51398396574663       -1.14910265042416
H            1.26630361167558        2.61771592563251       -0.51523579981242
H            0.65279366894616        2.67737007728710        1.15548896178932
H            3.02121492562055        2.53303846433204        2.01569724257525
H            3.62499724395696        2.56826498243969        0.33937239096302
H            2.76572593197281        3.96973525587068        1.00253142739292
H           -0.28358320867069       -2.65208810840094       -1.85241331524900
H           -0.17473202717694       -0.87767493704595       -1.83233561453754
H           -0.68419079094946       -0.93084103212576        2.09106710795924
H           -0.59055767995009        0.58845791722758        3.01085579969749
H           -3.10212929983118       -1.16985524514697        2.66641831236371
H           -2.16371991037355       -0.90500801803567        4.14369619538064
H           -3.09254472207850        0.43601048150167        3.44046582966291
H           -5.81465397261554        0.55146069065918        0.18914985113907
H           -4.80488370004128        1.26185357927430       -1.09490022595354
H           -6.17811290330267       -0.71882452146914       -1.88135804913809
H           -4.43916261683160       -0.99262267251087       -2.09210173640692
H           -5.30413993050522       -1.75715468127536       -0.73211651501572
41
 energy: -2932.481722076387 gnorm: 0.004287772046 xtb: 6.7.1 (edcfbbe)
C            5.80126265666579       -0.08709485637513       -0.39630408190657
C            4.67633688616863       -1.07171163942680       -0.20050911648125
O            3.53911746693114       -0.38407459673436        0.43302517143422
P            2.18244205271921       -0.08924689734340       -0.38422718527072
S            2.35301209850061        0.51918410753184       -2.22601336531395
O            1.41327618829907        0.87719109831081        0.63757396406428
C            1.47801040234645        2.34333901438361        0.52488448522980
C            2.80771001657435        2.87432980741285        0.99968961301553
S            1.19694679638188       -1.94132074024963       -0.10520795095530
C           -0.26822283155239       -1.78394773652737       -1.21722565117743
S           -1.88727360524803       -1.78689039066073       -0.35559147669541
P           -2.30988471622755        0.27990224290740       -0.07527213702780
S           -1.91315974491204        1.43805867993283       -1.58462223220331
O           -1.55960969133486        0.77400763627433        1.25038149096421
C           -1.25363430985172       -0.05422532140034        2.42724130443095
C           -2.48553451581847       -0.44167044894095        3.20731370018667
O           -3.84087041889623        0.18707219508276        0.41345333449346
C           -4.98520413259221        0.36367578357057       -0.49394227372361
C           -5.23227201156270       -0.85383530654617       -1.34961107975649
H            6.09471518543965        0.36310674306466        0.55673818523083
H            6.66774179397080       -0.61314203722176       -0.81098795655733
H            5.51079004624668        0.70370148377646       -1.09347452898267
H            4.94692279495093       -1.87302536768427        0.49149326078076
H            4.35576702840402       -1.51503741987605       -1.14859609143344
H            1.26790178600742        2.61660458023147       -0.51338926603802
H            0.65419353284685        2.68185084774750        1.15721251666619
H            3.02286277109676        2.53548487833663        2.01716262594888
H            3.62514446349563        2.56523207754434        0.34040266746471
H            2.76690265271777        3.96871702822423        1.00070629858017
H           -0.27815703551980       -2.66099030622838       -1.86854876944581
H           -0.17285681691411       -0.88314714491140       -1.83453416720529
H           -0.68771073820641       -0.92829094020212        2.09141075575134
H           -0.59395039217669        0.58810226209916        3.01399661383321
H           -3.10258723302258       -1.16466278224157        2.66662993757337
H           -2.16390970019584       -0.90567479378989        4.14569849880950
H           -3.09152017079441        0.43692977321068        3.44757365821600
H           -5.81758620971626        0.55093310882420        0.18742505448309
H           -4.80681456554167        1.26001129450533       -1.09554603313490
H           -6.17852979914677       -0.71540807357232       -1.88360152176337
H           -4.44093802330885       -0.99660573515786       -2.09036231071319
H           -5.31397247011541       -1.75499701796148       -0.73415702998396
41
 energy: -2932.481782574326 gnorm: 0.001322410616 xtb: 6.7.1 (edcfbbe)
C            5.80122339750798       -0.08732600989762       -0.39652767890279
C            4.67606671186256       -1.07182686306538       -0.20263040493633
O            3.53699750944388       -0.38537837869134        0.42968639961232
P            2.18060252140355       -0.08927621600467       -0.38734863963015
S            2.35505588812707        0.52623329921431       -2.22628514369131
O            1.41301253303681        0.87661498192975        0.63606331240617
C            1.47904132381951        2.34268535514530        0.52477947822352
C            2.80867081147767        2.87351908537422        0.99972302344673
S            1.19673807729940       -1.94222529094278       -0.10285106711522
C           -0.27045061517578       -1.77808506034448       -1.21162078089332
S           -1.89204730921574       -1.79408164075480       -0.35394788355522
P           -2.30496063086022        0.27644547490092       -0.07725736490622
S           -1.91370055833024        1.43968620080568       -1.58403548655287
O           -1.55930939279035        0.77321225513938        1.25018499745020
C           -1.25466108415921       -0.05357260888883        2.42847928951812
C           -2.48619343809811       -0.44011153563365        3.20861047859399
O           -3.83641012168223        0.18065394007122        0.40981751387228
C           -4.98233593139988        0.36061588009061       -0.49525698260092
C           -5.23382747249033       -0.85492817710265       -1.35141695600109
H            6.09314389363269        0.36361130669592        0.55603079806537
H            6.66794378408787       -0.61388247305749       -0.80900820724470
H            5.51219385613965        0.70418055639624       -1.09350586241930
H            4.94567624446303       -1.87325882589008        0.48904146815290
H            4.35621074287396       -1.51519464810915       -1.15031495430556
H            1.26981622451548        2.61644486428551       -0.51346543046600
H            0.65577299576530        2.68208763667042        1.15657436957369
H            3.02314732900373        2.53580095454286        2.01766090360071
H            3.62567941463999        2.56314071275855        0.34108453302042
H            2.76798823561549        3.96765556844362        0.99974376901937
H           -0.27758989257561       -2.65370851277292       -1.86509380657049
H           -0.17542848347776       -0.87691783974691       -1.82854108219965
H           -0.68858744229433       -0.92743825001238        2.09316554723337
H           -0.59508618754742        0.58889625522121        3.01518471877639
H           -3.10408008910377       -1.16136754251426        2.66681904922649
H           -2.16445480176725       -0.90592778076744        4.14594982177981
H           -3.09061027888987        0.43836417958140        3.45081042760519
H           -5.81333690300309        0.54831840904952        0.18746530925145
H           -4.80391253544938        1.25729063880658       -1.09586288411469
H           -6.17852156240794       -0.71206199764508       -1.88593220930600
H           -4.44205038014522       -1.00106100824587       -2.09118689623261
H           -5.32061088828377       -1.75557548011552       -0.73676310750778
41
 energy: -2932.481799942915 gnorm: 0.001200584940 xtb: 6.7.1 (edcfbbe)
C            5.80360822844962       -0.08713167024593       -0.39717380573204
C            4.67838686895249       -1.07108011908147       -0.20435010642191
O            3.53904199902608       -0.38533405581660        0.42845195727020
P            2.18228293210377       -0.09013550593974       -0.38768723914746
S            2.35294144504905        0.53168025399642       -2.22484077183868
O            1.41506986715968        0.87549888781706        0.63605652333014
C            1.48141966976425        2.34164633337933        0.52449684032029
C            2.81058902889814        2.87337553410798        0.99998778477269
S            1.19830727238179       -1.94304706795758       -0.10442686702015
C           -0.26908640566807       -1.77487633592562       -1.21230270435685
S           -1.89235960172473       -1.79482715192887       -0.35807544458739
P           -2.30735204750595        0.27464847988234       -0.07488914879696
S           -1.90953722413084        1.43070240710187       -1.58654647806903
O           -1.56314421278288        0.77338105486687        1.25286683648604
C           -1.25635656210870       -0.05257716590219        2.43132818464162
C           -2.48791799546762       -0.43822547875136        3.21143016576993
O           -3.83940988935671        0.17558774768134        0.40981594233986
C           -4.98407227959779        0.35805379022777       -0.49580522694978
C           -5.23818762301248       -0.85618516471834       -1.35273024438835
H            6.09302092023731        0.36412939922708        0.55614425650604
H            6.67101814237810       -0.61415884008062       -0.80748858244494
H            5.51567809498421        0.70405559581617       -1.09509659802145
H            4.94718738790212       -1.87282527149434        0.48735150784310
H            4.35815202702890       -1.51361250745626       -1.15235886670403
H            1.27297763776993        2.61664578132508       -0.51360961097648
H            0.65819453448206        2.68195404891649        1.15581777446007
H            3.02401943320200        2.53719592848857        2.01868119911352
H            3.62766917418325        2.56094938413976        0.34255929102625
H            2.77092032197720        3.96755248481350        0.99814004497879
H           -0.27595875130741       -2.64939669880257       -1.86709679977642
H           -0.17504007064605       -0.87342725277190       -1.82884228231200
H           -0.69086689354751       -0.92685209755339        2.09623186366290
H           -0.59588018931320        0.59051735964426        3.01651594877882
H           -3.10902375613778       -1.15652852718167        2.66934078377595
H           -2.16551816027687       -0.90747683004361        4.14681553982246
H           -3.08955126346277        0.44111592907261        3.45747275336353
H           -5.81457665863001        0.54735481558676        0.18704710182552
H           -4.80297266591872        1.25460580459471       -1.09581095884062
H           -6.17937334072641       -0.70698622608770       -1.89190922740283
H           -4.44396836794014       -1.00735702527080       -2.08903699680278
H           -5.33357059314986       -1.75658941301408       -0.73879348879267
41
 energy: -2932.481823055797 gnorm: 0.001236047361 xtb: 6.7.1 (edcfbbe)
C            5.80758705431906       -0.08669274970563       -0.39800798873528
C            4.68203683005297       -1.07006181444476       -0.20746483070517
O            3.54280436933665       -0.38442449119097        0.42643492698251
P            2.18554747510102       -0.08848188168059       -0.38771796443580
S            2.35196199048383        0.53486759681040       -2.22493380027506
O            1.41848902527234        0.87577918910622        0.63741537818330
C            1.48494486100255        2.34161490213140        0.52526194233366
C            2.81438158512558        2.87302787282845        1.00095144733472
S            1.20113111412502       -1.94113709666627       -0.10899486960436
C           -0.26822723593091       -1.77331295973691       -1.21382766964474
S           -1.88759299632527       -1.80011252080757       -0.35275937629521
P           -2.30921007334265        0.26894784277181       -0.07525774791988
S           -1.91088117149756        1.42990053594539       -1.58355717159727
O           -1.56867543215122        0.77142277149111        1.25343717800929
C           -1.26019314730163       -0.05197273044459        2.43379041753024
C           -2.49064595173628       -0.43468371643977        3.21657636610891
O           -3.84181446246636        0.16530577929379        0.40694115291534
C           -4.98588615532265        0.35376725851952       -0.49788081943557
C           -5.24593407088865       -0.85840110237075       -1.35554687741236
H            6.09343615536107        0.36532737133140        0.55616704254119
H            6.67624173263807       -0.61441590411193       -0.80464690511893
H            5.52210939330056        0.70396484760461       -1.09763956080500
H            4.94985888440287       -1.87283287563845        0.48347584509795
H            4.36157806939158       -1.51089844418380       -1.15626588704813
H            1.27772113015911        2.61668272096808       -0.51311220964647
H            0.66152517633129        2.68274645786650        1.15584859644825
H            3.02615959181785        2.53983705005982        2.02101416192645
H            3.63165821213922        2.55697187993545        0.34554068868539
H            2.77643393554952        3.96723818986848        0.99534031319273
H           -0.27468602253312       -2.64486497355626       -1.87249011766547
H           -0.17815062151156       -0.86862007853829       -1.82641924963489
H           -0.69573968715216       -0.92744882106513        2.10017280798786
H           -0.59821996068297        0.59229920419930        3.01621498484673
H           -3.11734016219582       -1.14777854164301        2.67402629498829
H           -2.16721663594888       -0.90963849242918        4.14880494398639
H           -3.08713984237871        0.44650130855312        3.46881608272758
H           -5.81529957155874        0.54625342304087        0.18544589400792
H           -4.80094252926320        1.24983557989385       -1.09742042545960
H           -6.18102938498991       -0.69824035165992       -1.90263762979267
H           -4.44757331591432       -1.01880546448401       -2.08565858774060
H           -5.35654581605929       -1.75786210883097       -0.74236847322411
41
 energy: -2932.481830884173 gnorm: 0.001656241610 xtb: 6.7.1 (edcfbbe)
C            5.81092536893884       -0.08589299068626       -0.39855205676527
C            4.68414559965722       -1.06910311635138       -0.21253760983558
O            3.54386374277161       -0.38393646583291        0.42129718725582
P            2.18636219365212       -0.08611903465054       -0.39116665551964
S            2.35746972431037        0.53931840217624       -2.22759701498632
O            1.42016121366943        0.87651314654480        0.63668912143491
C            1.48874909959821        2.34207720804576        0.52626336619345
C            2.81903342064692        2.87157265113770        1.00257174849299
S            1.20711604440267       -1.94148265603595       -0.10869436285386
C           -0.26190533265959       -1.77224857294761       -1.21383148750455
S           -1.88049212844661       -1.80211385705537       -0.35200789456238
P           -2.31191465021521        0.26368342811202       -0.07437681939503
S           -1.91906974286960        1.42660970462148       -1.58136820133254
O           -1.57462174213739        0.76926181670235        1.25526126980262
C           -1.26506034772626       -0.05197612250414        2.43698299048836
C           -2.49387169304947       -0.43018399632509        3.22446680324591
O           -3.84530008112561        0.15415612820796        0.40428444084639
C           -4.98852358345404        0.34940665923410       -0.50054798801399
C           -5.25584861875565       -0.86098996260913       -1.35862246396088
H            6.09335084877867        0.36691710128693        0.55628320056531
H            6.68154869559597       -0.61406953263401       -0.80064237452471
H            5.52973450026097        0.70422179390345       -1.10041873501797
H            4.95103248509055       -1.87377812075502        0.47659394882679
H            4.36519007797300       -1.50744732679741       -1.16301223984675
H            1.28269023378417        2.61705944380457       -0.51232675573992
H            0.66504906628138        2.68359800226545        1.15641498506463
H            3.02870494771529        2.54173517274974        2.02414756084577
H            3.63701941570092        2.55175569814694        0.34962843217982
H            2.78351395253671        3.96587617333595        0.99260039133203
H           -0.26740737458289       -2.63966641826830       -1.87805287890972
H           -0.17455637390182       -0.86317831046628       -1.82046352876453
H           -0.70283152604022       -0.92929196843117        2.10413913790817
H           -0.60088519282327        0.59288776720108        3.01614117994040
H           -3.12717410529913       -1.13668164807326        2.68089308184632
H           -2.16954345486662       -0.91190858850642        4.15300319062338
H           -3.08392149919719        0.45360061928930        3.48337560306381
H           -5.81743571214190        0.54686556605114        0.18210029037847
H           -4.79882431099828        1.24416808367116       -1.10058145055405
H           -6.18292790887095       -0.68905277914595       -1.91619254227634
H           -4.45211755652639       -1.03287159706703       -2.08031343764961
H           -5.38489025884495       -1.75821016771003       -0.74553678795217
41
 energy: -2932.481837409835 gnorm: 0.000929944325 xtb: 6.7.1 (edcfbbe)
C            5.81278817292447       -0.08501039419245       -0.39845854565737
C            4.68573977157945       -1.06827489883891       -0.21221096104766
O            3.54695023309097       -0.38230694327187        0.42249460533555
P            2.18901721823047       -0.08613577480235       -0.39009599513086
S            2.35728380023999        0.53544271823309       -2.22774270724804
O            1.42104765038118        0.87666362597017        0.63663047238423
C            1.48930142375425        2.34254021957610        0.52637536725544
C            2.81951318845390        2.87145116290229        1.00319951008012
S            1.20451479970663       -1.93854732224822       -0.10969826833647
C           -0.26510264405807       -1.77190138794272       -1.21421058197947
S           -1.88528394222346       -1.80319007543416       -0.35485898247345
P           -2.31240357160620        0.26340203723537       -0.07457341023389
S           -1.92119145773187        1.42618749870264       -1.58219934894742
O           -1.57402860018464        0.76778714420476        1.25485341860149
C           -1.26509368990911       -0.05329936248426        2.43649086185533
C           -2.49416959272092       -0.42955038051288        3.22519362551969
O           -3.84564753244852        0.15310882678640        0.40425029338247
C           -4.98874500610841        0.34940804859173       -0.50085245549883
C           -5.25690017416205       -0.86150805900813       -1.35837919066222
H            6.09567733266028        0.36754602586767        0.55633895737266
H            6.68329440382904       -0.61326917142428       -0.80098852393772
H            5.53152677795663        0.70491504424037       -1.10039345645462
H            4.95238868894309       -1.87376068010446        0.47609934470746
H            4.36590444539869       -1.50555981921292       -1.16297808793360
H            1.28297232407012        2.61786134992113       -0.51205581372003
H            0.66550243243733        2.68353520780099        1.15688706751654
H            3.02880670885023        2.54141473721639        2.02474171874919
H            3.63780679817616        2.55173563487519        0.35042880703716
H            2.78437925234188        3.96580601252617        0.99323321034098
H           -0.26862094647731       -2.63973275774131       -1.87783089420416
H           -0.17631006164698       -0.86352406514599       -1.82140031316459
H           -0.70443713097789       -0.93170440687383        2.10368045712899
H           -0.59983334140143        0.59081807484415        3.01507680284482
H           -3.12865918703044       -1.13562133115845        2.68257051066934
H           -2.16983925071960       -0.91094736606748        4.15381244108828
H           -3.08303402143681        0.45513670166955        3.48373970741884
H           -5.81770629317807        0.54847589156979        0.18134489161937
H           -4.79794399975761        1.24349456730437       -1.10158191136974
H           -6.18287817032917       -0.68955785732694       -1.91722549843691
H           -4.45273590692888       -1.03466854758453       -2.07882148192597
H           -5.38731974101208       -1.75760346010243       -0.74462971598476
41
 energy: -2932.481840313314 gnorm: 0.000702607517 xtb: 6.7.1 (edcfbbe)
C            5.81298253846908       -0.08453737620217       -0.39820942775350
C            4.68548993040214       -1.06740253676010       -0.21173043285413
O            3.54683704859060       -0.38201832484294        0.42320728494387
P            2.18840020422616       -0.08781031710976       -0.38972675906974
S            2.35582777345552        0.53423920997868       -2.22714024305585
O            1.42019125987714        0.87648634594308        0.63563714966257
C            1.48939543084003        2.34274952384257        0.52585415547064
C            2.81924265740484        2.87140241345813        1.00334467207863
S            1.20331787532873       -1.94002037514351       -0.10730209037218
C           -0.26448926303066       -1.77128377662683       -1.21415857754101
S           -1.88469839782489       -1.80339045187067       -0.35462058382901
P           -2.31386912901952        0.26379578796399       -0.07542968059168
S           -1.91974761821709        1.42863270084848       -1.58150622470545
O           -1.57321444795910        0.76627540341540        1.25320242201997
C           -1.26459915452347       -0.05498363301343        2.43461729480027
C           -2.49416145548751       -0.42952999110320        3.22380201037675
O           -3.84670756873306        0.15459058026698        0.40480193061506
C           -4.98940999811139        0.35054737766010       -0.50075486768226
C           -5.25642381138974       -0.86158627838575       -1.35705962014501
H            6.09642421808711        0.36729366393402        0.55676182739012
H            6.68307021518806       -0.61280573785763       -0.80172735727451
H            5.53116777107314        0.70577685326930       -1.09948223758287
H            4.95205024104393       -1.87326299467417        0.47618417903466
H            4.36573427727312       -1.50417338699136       -1.16274916034556
H            1.28291961589656        2.61929979435969       -0.51222748215075
H            0.66583049059008        2.68365471047105        1.15674564154380
H            3.02824688731262        2.54010486519013        2.02451474600406
H            3.63751508310643        2.55232809126027        0.35029691371374
H            2.78429694854628        3.96578293621300        0.99475061859581
H           -0.26866384927795       -2.64038829655111       -1.87603050343693
H           -0.17531316481573       -0.86418421934532       -1.82317332099069
H           -0.70557361123442       -0.93442200307916        2.10189610882001
H           -0.59796101601883        0.58791863388549        3.01299526201407
H           -3.12898341129746       -1.13658685185587        2.68298134200569
H           -2.16962921878838       -0.90888279958046        4.15332838788181
H           -3.08257801488388        0.45585257559674        3.48067219461321
H           -5.81831549976984        0.55041647870298        0.18121294520090
H           -4.79775287118022        1.24399893993875       -1.10211727530197
H           -6.18288433662822       -0.69160374570796       -1.91525935510239
H           -4.45255339803076       -1.03415914364447       -2.07775539670719
H           -5.38487336916048       -1.75702749369840       -0.74234572671505
41
 energy: -2932.481840313314 gnorm: 0.000702607517 xtb: 6.7.1 (edcfbbe)
C            5.81298253846908       -0.08453737620217       -0.39820942775350
C            4.68548993040214       -1.06740253676010       -0.21173043285413
O            3.54683704859060       -0.38201832484294        0.42320728494387
P            2.18840020422616       -0.08781031710976       -0.38972675906974
S            2.35582777345552        0.53423920997868       -2.22714024305585
O            1.42019125987714        0.87648634594308        0.63563714966257
C            1.48939543084003        2.34274952384257        0.52585415547064
C            2.81924265740484        2.87140241345813        1.00334467207863
S            1.20331787532873       -1.94002037514351       -0.10730209037218
C           -0.26448926303066       -1.77128377662683       -1.21415857754101
S           -1.88469839782489       -1.80339045187067       -0.35462058382901
P           -2.31386912901952        0.26379578796399       -0.07542968059168
S           -1.91974761821709        1.42863270084848       -1.58150622470545
O           -1.57321444795910        0.76627540341540        1.25320242201997
C           -1.26459915452347       -0.05498363301343        2.43461729480027
C           -2.49416145548751       -0.42952999110320        3.22380201037675
O           -3.84670756873306        0.15459058026698        0.40480193061506
C           -4.98940999811139        0.35054737766010       -0.50075486768226
C           -5.25642381138974       -0.86158627838575       -1.35705962014501
H            6.09642421808711        0.36729366393402        0.55676182739012
H            6.68307021518806       -0.61280573785763       -0.80172735727451
H            5.53116777107314        0.70577685326930       -1.09948223758287
H            4.95205024104393       -1.87326299467417        0.47618417903466
H            4.36573427727312       -1.50417338699136       -1.16274916034556
H            1.28291961589656        2.61929979435969       -0.51222748215075
H            0.66583049059008        2.68365471047105        1.15674564154380
H            3.02824688731262        2.54010486519013        2.02451474600406
H            3.63751508310643        2.55232809126027        0.35029691371374
H            2.78429694854628        3.96578293621300        0.99475061859581
H           -0.26866384927795       -2.64038829655111       -1.87603050343693
H           -0.17531316481573       -0.86418421934532       -1.82317332099069
H           -0.70557361123442       -0.93442200307916        2.10189610882001
H           -0.59796101601883        0.58791863388549        3.01299526201407
H           -3.12898341129746       -1.13658685185587        2.68298134200569
H           -2.16962921878838       -0.90888279958046        4.15332838788181
H           -3.08257801488388        0.45585257559674        3.48067219461321
H           -5.81831549976984        0.55041647870298        0.18121294520090
H           -4.79775287118022        1.24399893993875       -1.10211727530197
H           -6.18288433662822       -0.69160374570796       -1.91525935510239
H           -4.45255339803076       -1.03415914364447       -2.07775539670719
H           -5.38487336916048       -1.75702749369840       -0.74234572671505
