
                                 *****************
                                 * O   R   C   A *
                                 *****************

                                            #,                                       
                                            ###                                      
                                            ####                                     
                                            #####                                    
                                            ######                                   
                                           ########,                                 
                                     ,,################,,,,,                         
                               ,,#################################,,                 
                          ,,##########################################,,             
                       ,#########################################, ''#####,          
                    ,#############################################,,   '####,        
                  ,##################################################,,,,####,       
                ,###########''''           ''''###############################       
              ,#####''   ,,,,##########,,,,          '''####'''          '####       
            ,##' ,,,,###########################,,,                        '##       
           ' ,,###''''                  '''############,,,                           
         ,,##''                                '''############,,,,        ,,,,,,###''
      ,#''                                            '''#######################'''  
     '                                                          ''''####''''         
             ,#######,   #######,   ,#######,      ##                                
            ,#'     '#,  ##    ##  ,#'     '#,    #''#        ,####,   ,####,        
            ##       ##  ##   ,#'  ##            #'  '#       #'       #'  '#        
            ##       ##  #######   ##           ,######,      #####,   #    #        
            '#,     ,#'  ##    ##  '#,     ,#' ,#      #,     #,   #   #,  ,#        
             '#######'   ##     ##  '#######'  #'      '#     '####' # '####'        



                #########################################################
                #                        -***-                          #
                #          Department of theory and spectroscopy        #
                #                                                       #
                #                      Frank Neese                      #
                #                                                       #
                #     Directorship, Architecture, Infrastructure        #
                #                    SHARK, DRIVERS                     #
                #        Core code/Algorithms in most modules           #
                #                                                       #
                #        Max Planck Institute fuer Kohlenforschung      #
                #                Kaiser Wilhelm Platz 1                 #
                #                 D-45470 Muelheim/Ruhr                 #
                #                      Germany                          #
                #                                                       #
                #                  All rights reserved                  #
                #                        -***-                          #
                #########################################################


                         Program Version 6.0.0  -   RELEASE  -


 With contributions from (in alphabetic order):
   Daniel Aravena         : Magnetic Suceptibility
   Michael Atanasov       : Ab Initio Ligand Field Theory (pilot matlab implementation)
   Alexander A. Auer      : GIAO ZORA, VPT2 properties, NMR spectrum
   Ute Becker             : All parallelization in ORCA, NUMFREQ, NUMCALC
   Giovanni Bistoni       : ED, misc. LED, open-shell LED, HFLD
   Martin Brehm           : Molecular dynamics
   Dmytro Bykov           : pre 5.0 version of the SCF Hessian
   Marcos Casanova-Páez   : Triplet and SCS-CIS(D). UHF-(DLPNO)-IP/EA/STEOM-CCSD. UHF-CVS-IP/STEOM-CCSD
   Vijay G. Chilkuri      : MRCI spin determinant printing, contributions to CSF-ICE
   Pauline Colinet        : FMM embedding
   Dipayan Datta          : RHF DLPNO-CCSD density
   Achintya Kumar Dutta   : EOM-CC, STEOM-CC
   Nicolas Foglia         : Exact transition moments, OPA infrastructure, MCD improvements
   Dmitry Ganyushin       : Spin-Orbit,Spin-Spin,Magnetic field MRCI
   Miquel Garcia          : C-PCM and meta-GGA Hessian, CCSD/C-PCM, Gaussian charge scheme
   Tiago L. C. Gouveia    : GS-ROHF, GS-ROCIS
   Yang Guo               : DLPNO-NEVPT2, F12-NEVPT2, CIM, IAO-localization
   Andreas Hansen         : Spin unrestricted coupled pair/coupled cluster methods
   Ingolf Harden          : AUTO-CI MPn and infrastructure 
   Benjamin Helmich-Paris : MC-RPA, TRAH-(SCF,CASSCF), AVAS, COSX integrals, SCF dyn. polar.
   Lee Huntington         : MR-EOM, pCC
   Robert Izsak           : Overlap fitted RIJCOSX, COSX-SCS-MP3, EOM
   Riya Kayal             : Wick's Theorem for AUTO-CI, AUTO-CI UHF-CCSDT
   Emily Kempfer          : AUTO-CI, RHF CISDT and CCSDT
   Christian Kollmar      : KDIIS, OOCD, Brueckner-CCSD(T), CCSD density, CASPT2, CASPT2-K, improved NEVPT2
   Axel Koslowski         : Symmetry handling
   Simone Kossmann        : Meta GGA functionals, TD-DFT gradient, OOMP2, (MP2 Hessian; deprecated post 5.0)
   Lucas Lang             : DCDCAS
   Marvin Lechner         : AUTO-CI (C++ implementation), FIC-MRCC
   Spencer Leger          : CASSCF response
   Dagmar Lenk            : GEPOL surface, SMD, ORCA-2-JSON
   Dimitrios Liakos       : Extrapolation schemes; Compound Job, initial MDCI parallelization
   Dimitrios Manganas     : Further ROCIS development; embedding schemes. LFT, Crystal Embedding
   Dimitrios Pantazis     : SARC Basis sets
   Anastasios Papadopoulos: AUTO-CI, single reference methods and gradients
   Taras Petrenko         : pre 6.0 DFT Hessian and TD-DFT gradient, (ASA, deprecated), ECA, 1-Electron XAS/XES, NRVS
   Peter Pinski           : DLPNO-MP2, DLPNO-MP2 Gradient
   Christoph Reimann      : Effective Core Potentials
   Marius Retegan         : Local ZFS, SOC
   Christoph Riplinger    : Optimizer, TS searches, QM/MM, DLPNO-CCSD(T), (RO)-DLPNO pert. Triples
   Michael Roemelt        : Original ROCIS implementation
   Masaaki Saitow         : Open-shell DLPNO-CCSD energy and density
   Barbara Sandhoefer     : DKH picture change effects
   Kantharuban Sivalingam : CASSCF convergence/infrastructure, NEVPT2 and variants, FIC-MRCI
   Bernardo de Souza      : ESD, SOC TD-DFT
   Georgi Stoychev        : AutoAux, RI-MP2 NMR, DLPNO-MP2 response, X2C
   Van Anh Tran           : RI-MP2 g-tensors
   Willem Van den Heuvel  : Paramagnetic NMR
   Zikuan Wang            : NOTCH, Electric field optimization 
   Frank Wennmohs         : Technical directorship and infrastructure
   Hang Xu                : AUTO-CI-Response properties 


 We gratefully acknowledge several colleagues who have allowed us to
 interface, adapt or use parts of their codes:
   Stefan Grimme, W. Hujo, H. Kruse, P. Pracht,  : VdW corrections, initial TS optimization,
                  C. Bannwarth, S. Ehlert,         DFT functionals, gCP, sTDA/sTD-DF
                  L. Wittmann, M. Mueller
   Ed Valeev, F. Pavosevic, A. Kumar             : LibInt (2-el integral package), F12 methods
   Garnet Chan, S. Sharma, J. Yang, R. Olivares  : DMRG
   Ulf Ekstrom                                   : XCFun DFT Library
   Mihaly Kallay                                 : mrcc  (arbitrary order and MRCC methods)
   Frank Weinhold                                : gennbo (NPA and NBO analysis)
   Simon Mueller                                 : openCOSMO-RS
   Christopher J. Cramer and Donald G. Truhlar   : smd solvation model
   Lars Goerigk                                  : TD-DFT with DH, B97 family of functionals
   V. Asgeirsson, H. Jonsson                     : NEB implementation
   FAccTs GmbH                                   : IRC, NEB, NEB-TS, DLPNO-Multilevel, CI-OPT
                                                   MM, QMMM, 2- and 3-layer-ONIOM, Crystal-QMMM,
                                                   LR-CPCM, SF, NACMEs, symmetry and pop. for TD-DFT,
                                                   nearIR, NL-DFT gradient (VV10), updates on ESD,
                                                   ML-optimized integration grids, MBIS, APM,
                                                   GOAT, DOCKER, SOLVATOR, interface openCOSMO-RS
   S Lehtola, MJT Oliveira, MAL Marques          : LibXC Library
   Liviu Ungur et al                             : ANISO software


 Your calculation uses the libint2 library for the computation of 2-el integrals
 For citations please refer to: http://libint.valeyev.net

 Your ORCA version has been built with support for libXC version: 6.2.2
 For citations please refer to: https://libxc.gitlab.io

 This ORCA versions uses:
   CBLAS   interface :  Fast vector & matrix operations
   LAPACKE interface :  Fast linear algebra routines
   SCALAPACK package :  Parallel linear algebra routines
   Shared memory     :  Shared parallel matrices
   BLAS/LAPACK       :  OpenBLAS 0.3.27  USE64BITINT DYNAMIC_ARCH NO_AFFINITY SapphireRapids SINGLE_THREADED
        Core in use  :  SapphireRapids
   Copyright (c) 2011-2014, The OpenBLAS Project


Your calculation utilizes the geometrical counterpoise correction gCP
Please cite in your paper:
H.Kruse, S. Grimme J.Chem.Phys., 136, (2012), 154101 
   

Your calculation utilizes the atom-pairwise dispersion correction
based on EEQ partial charges (D4)


================================================================================

----- Orbital basis set information -----
Your calculation utilizes the basis: def2-SV(P)
   F. Weigend and R. Ahlrichs, Phys. Chem. Chem. Phys. 7, 3297 (2005).

----- AuxJ basis set information -----
Your calculation utilizes the auxiliary basis: def2/J
   F. Weigend, Phys. Chem. Chem. Phys. 8, 1057 (2006).

================================================================================
                                        WARNINGS
                       Please study these warnings very carefully!
================================================================================


================================================================================
                                       INPUT FILE
================================================================================
NAME = sp.inp
|  1> ! pbe def2-sv(p) def2/J RI DEFGRID1 loosescf d4 GCP(DFT/SV(P)) printgap
|  2> %output
|  3>     printlevel normal
|  4> end
|  5> * xyz 0 1
|  6> C 3.8607914444 1.4486886584 -2.0005141893
|  7> C 2.5710556542 0.701809423 -2.2643442919
|  8> O 2.3747543708 -0.3823543047 -1.3369707131
|  9> P 2.1172375055 -0.162229207 0.2097039936
| 10> S 1.0212979765 1.3957918613 0.7052822045
| 11> O 3.5909181549 -0.1020112088 0.7989277824
| 12> C 3.8744228003 0.3839219939 2.122661152
| 13> C 3.3189362269 -0.5307023976 3.1948864196
| 14> S 1.5237877292 -2.1170158461 0.7204999216
| 15> C -0.1635249518 -2.1757704071 0.0581071348
| 16> S -1.3442981596 -1.1662502501 1.0100274052
| 17> P -1.9356057445 0.1755935434 -0.4996600432
| 18> S -0.909250715 0.2502038445 -2.1633922853
| 19> O -2.1417936605 1.6243080772 0.10762438
| 20> C -2.9903543055 1.9151405612 1.2459186781
| 21> C -2.2181047903 1.8435530804 2.5478644692
| 22> O -3.4104032302 -0.4221747368 -0.7019161833
| 23> C -4.2516794482 0.0286760386 -1.7834072513
| 24> C -5.4213033309 -0.9282051008 -1.8885608177
| 25> H 4.6949735035 0.7528570977 -1.9662848576
| 26> H 4.0223329595 2.1729094796 -2.7928235197
| 27> H 3.798117705 1.9732874326 -1.0479526502
| 28> H 2.5724502049 0.2104795067 -3.2383995091
| 29> H 1.7080915653 1.3730648372 -2.2029056043
| 30> H 4.9635553841 0.4324545911 2.1552944447
| 31> H 3.4510698562 1.3890610176 2.2188017957
| 32> H 3.6495984557 -0.1854955803 4.169167981
| 33> H 2.2298537607 -0.5170688417 3.1655290504
| 34> H 3.6594009812 -1.5506115084 3.0351675849
| 35> H -0.4718061262 -3.2146813987 0.1375957575
| 36> H -0.1636123628 -1.8347121491 -0.980145838
| 37> H -3.33890576 2.9311187092 1.0508694828
| 38> H -3.8350855622 1.2206718126 1.247812206
| 39> H -1.2967062111 2.4146724332 2.4601621788
| 40> H -2.8268875534 2.2590481396 3.34456835
| 41> H -1.9644689867 0.8144204734 2.7915423668
| 42> H -4.5833263942 1.0490588621 -1.568119121
| 43> H -3.6565982196 0.0404811849 -2.7030122628
| 44> H -5.9774284682 -0.9404993327 -0.9557488209
| 45> H -6.0730684352 -0.6059184891 -2.6939950993
| 46> H -5.0611094518 -1.9316069381 -2.0959063712
| 47> *
| 48> 
| 49>                          ****END OF INPUT****
================================================================================

                       ****************************
                       * Single Point Calculation *
                       ****************************

---------------------------------
CARTESIAN COORDINATES (ANGSTROEM)
---------------------------------
  C      3.860791    1.448689   -2.000514
  C      2.571056    0.701809   -2.264344
  O      2.374754   -0.382354   -1.336971
  P      2.117238   -0.162229    0.209704
  S      1.021298    1.395792    0.705282
  O      3.590918   -0.102011    0.798928
  C      3.874423    0.383922    2.122661
  C      3.318936   -0.530702    3.194886
  S      1.523788   -2.117016    0.720500
  C     -0.163525   -2.175770    0.058107
  S     -1.344298   -1.166250    1.010027
  P     -1.935606    0.175594   -0.499660
  S     -0.909251    0.250204   -2.163392
  O     -2.141794    1.624308    0.107624
  C     -2.990354    1.915141    1.245919
  C     -2.218105    1.843553    2.547864
  O     -3.410403   -0.422175   -0.701916
  C     -4.251679    0.028676   -1.783407
  C     -5.421303   -0.928205   -1.888561
  H      4.694974    0.752857   -1.966285
  H      4.022333    2.172909   -2.792824
  H      3.798118    1.973287   -1.047953
  H      2.572450    0.210480   -3.238400
  H      1.708092    1.373065   -2.202906
  H      4.963555    0.432455    2.155294
  H      3.451070    1.389061    2.218802
  H      3.649598   -0.185496    4.169168
  H      2.229854   -0.517069    3.165529
  H      3.659401   -1.550612    3.035168
  H     -0.471806   -3.214681    0.137596
  H     -0.163612   -1.834712   -0.980146
  H     -3.338906    2.931119    1.050869
  H     -3.835086    1.220672    1.247812
  H     -1.296706    2.414672    2.460162
  H     -2.826888    2.259048    3.344568
  H     -1.964469    0.814420    2.791542
  H     -4.583326    1.049059   -1.568119
  H     -3.656598    0.040481   -2.703012
  H     -5.977428   -0.940499   -0.955749
  H     -6.073068   -0.605918   -2.693995
  H     -5.061109   -1.931607   -2.095906

----------------------------
CARTESIAN COORDINATES (A.U.)
----------------------------
  NO LB      ZA    FRAG     MASS         X           Y           Z
   0 C     6.0000    0    12.011    7.295838    2.737625   -3.780424
   1 C     6.0000    0    12.011    4.858591    1.326228   -4.278991
   2 O     8.0000    0    15.999    4.487635   -0.722545   -2.526508
   3 P    15.0000    0    30.974    4.000999   -0.306569    0.396283
   4 S    16.0000    0    32.060    1.929973    2.637664    1.332790
   5 O     8.0000    0    15.999    6.785852   -0.192773    1.509755
   6 C     6.0000    0    12.011    7.321598    0.725507    4.011248
   7 C     6.0000    0    12.011    6.271881   -1.002882    6.037460
   8 S    16.0000    0    32.060    2.879541   -4.000580    1.361548
   9 C     6.0000    0    12.011   -0.309017   -4.111610    0.109807
  10 S    16.0000    0    32.060   -2.540355   -2.203894    1.908675
  11 P    15.0000    0    30.974   -3.657765    0.331824   -0.944221
  12 S    16.0000    0    32.060   -1.718235    0.472817   -4.088219
  13 O     8.0000    0    15.999   -4.047403    3.069497    0.203381
  14 C     6.0000    0    12.011   -5.650951    3.619091    2.354445
  15 C     6.0000    0    12.011   -4.191611    3.483810    4.814766
  16 O     8.0000    0    15.999   -6.444728   -0.797795   -1.326429
  17 C     6.0000    0    12.011   -8.034510    0.054190   -3.370151
  18 C     6.0000    0    12.011  -10.244779   -1.754053   -3.568863
  19 H     1.0000    0     1.008    8.872214    1.422694   -3.715740
  20 H     1.0000    0     1.008    7.601108    4.106204   -5.277672
  21 H     1.0000    0     1.008    7.177402    3.728973   -1.980344
  22 H     1.0000    0     1.008    4.861226    0.397749   -6.119688
  23 H     1.0000    0     1.008    3.227825    2.594717   -4.162888
  24 H     1.0000    0     1.008    9.379760    0.817221    4.072916
  25 H     1.0000    0     1.008    6.521577    2.624945    4.192928
  26 H     1.0000    0     1.008    6.896742   -0.350536    7.878586
  27 H     1.0000    0     1.008    4.213813   -0.977119    5.981983
  28 H     1.0000    0     1.008    6.915266   -2.930231    5.735636
  29 H     1.0000    0     1.008   -0.891584   -6.074867    0.260018
  30 H     1.0000    0     1.008   -0.309183   -3.467103   -1.852207
  31 H     1.0000    0     1.008   -6.309617    5.539012    1.985856
  32 H     1.0000    0     1.008   -7.247261    2.306735    2.358023
  33 H     1.0000    0     1.008   -2.450420    4.563070    4.649033
  34 H     1.0000    0     1.008   -5.342043    4.268982    6.320318
  35 H     1.0000    0     1.008   -3.712308    1.539032    5.275251
  36 H     1.0000    0     1.008   -8.661232    1.982434   -2.963316
  37 H     1.0000    0     1.008   -6.909969    0.076498   -5.107953
  38 H     1.0000    0     1.008  -11.295703   -1.777286   -1.806104
  39 H     1.0000    0     1.008  -11.476436   -1.145020   -5.090913
  40 H     1.0000    0     1.008   -9.564111   -3.650208   -3.960689

--------------------------------
INTERNAL COORDINATES (ANGSTROEM)
--------------------------------
 C      0   0   0     0.000000000000     0.00000000     0.00000000
 C      1   0   0     1.513556514912     0.00000000     0.00000000
 O      2   1   0     1.440127403038   112.04853786     0.00000000
 P      3   2   1     1.583342238083   123.13044622    66.82523922
 S      4   3   2     1.968276114678   116.52312302    36.54889891
 O      4   3   2     1.588252353063   102.51877595   272.42486811
 C      6   4   3     1.438324023036   122.48851105   165.57917929
 C      7   6   4     1.514849872177   112.03407468    67.27483947
 S      4   3   2     2.105774423212    98.84315146   168.01706235
 C      9   4   3     1.813626308231   101.75175730   284.44223360
 S     10   9   4     1.821951842625   113.21427491   288.48382435
 P     11  10   9     2.104601059102    99.24018981   118.97521626
 S     12  11  10     1.956265911632   119.14172536   347.43043473
 O     12  11  10     1.584323713074   110.15803422   217.41426260
 C     14  12  11     1.449259331893   124.10854919   306.67189688
 C     15  14  12     1.515439515156   111.52644846    91.04393288
 O     12  11  10     1.604139048477    96.38230138   108.15416991
 C     17  12  11     1.442440649321   120.94836375   188.10341081
 C     18  17  12     1.514826331448   107.75401841   167.42327909
 H      1   2   3     1.086836195449   110.09580769    52.77018930
 H      1   2   3     1.085516252296   109.19599860   173.17625832
 H      1   2   3     1.089268266900   109.94142002   292.71464089
 H      2   1   3     1.090958568222   112.13441247   243.91458805
 H      2   1   3     1.095018521377   111.05519975   121.56594463
 H      7   6   4     1.090701668596   103.85071743   188.13585033
 H      7   6   4     1.094885928128   108.34587345   305.10757449
 H      8   7   6     1.085232609697   109.36952645   173.77526550
 H      8   7   6     1.089563374548   109.87114946   293.32038430
 H      8   7   6     1.087033094883   110.34301960    53.17889021
 H     10   9   4     1.086596416383   105.55774178   170.64873993
 H     10   9   4     1.092835750934   109.69136282    50.30321811
 H     15  14  12     1.091670235114   103.49575795   210.57085991
 H     15  14  12     1.093554445044   109.03870984   327.81743957
 H     16  15  14     1.087586478693   109.73287260    48.70192256
 H     16  15  14     1.085352325537   109.06997578   168.61767017
 H     16  15  14     1.087577105973   110.85677359   288.86665413
 H     18  17  12     1.094312470153   108.70511359   288.56024038
 H     18  17  12     1.095415175761   108.41877507    46.50111131
 H     19  18  17     1.086077592923   110.05318498    59.54827258
 H     19  18  17     1.085076399725   109.12861044   179.69264832
 H     19  18  17     1.086069544824   109.92419927   299.65231628

---------------------------
INTERNAL COORDINATES (A.U.)
---------------------------
 C      0   0   0     0.000000000000     0.00000000     0.00000000
 C      1   0   0     2.860207301396     0.00000000     0.00000000
 O      2   1   0     2.721446389697   112.04853786     0.00000000
 P      3   2   1     2.992083206246   123.13044622    66.82523922
 S      4   3   2     3.719502812679   116.52312302    36.54889891
 O      4   3   2     3.001361978846   102.51877595   272.42486811
 C      6   4   3     2.718038495378   122.48851105   165.57917929
 C      7   6   4     2.862651392420   112.03407468    67.27483947
 S      4   3   2     3.979336959688    98.84315146   168.01706235
 C      9   4   3     3.427257031831   101.75175730   284.44223360
 S     10   9   4     3.442990011755   113.21427491   288.48382435
 P     11  10   9     3.977119622862    99.24018981   118.97521626
 S     12  11  10     3.696806818110   119.14172536   347.43043473
 O     12  11  10     2.993937925187   110.15803422   217.41426260
 C     14  12  11     2.738703234308   124.10854919   306.67189688
 C     15  14  12     2.863765656168   111.52644846    91.04393288
 O     12  11  10     3.031383482350    96.38230138   108.15416991
 C     17  12  11     2.725817791653   120.94836375   188.10341081
 C     18  17  12     2.862606906889   107.75401841   167.42327909
 H      1   2   3     2.053822761832   110.09580769    52.77018930
 H      1   2   3     2.051328430760   109.19599860   173.17625832
 H      1   2   3     2.058418710812   109.94142002   292.71464089
 H      2   1   3     2.061612917395   112.13441247   243.91458805
 H      2   1   3     2.069285116973   111.05519975   121.56594463
 H      7   6   4     2.061127447458   103.85071743   188.13585033
 H      7   6   4     2.069034552047   108.34587345   305.10757449
 H      8   7   6     2.050792423928   109.36952645   173.77526550
 H      8   7   6     2.058976383447   109.87114946   293.32038430
 H      8   7   6     2.054194847838   110.34301960    53.17889021
 H     10   9   4     2.053369645063   105.55774178   170.64873993
 H     10   9   4     2.065160278623   109.69136282    50.30321811
 H     15  14  12     2.062957772920   103.49575795   210.57085991
 H     15  14  12     2.066518413666   109.03870984   327.81743957
 H     16  15  14     2.055240591686   109.73287260    48.70192256
 H     16  15  14     2.051018654080   109.06997578   168.61767017
 H     16  15  14     2.055222879812   110.85677359   288.86665413
 H     18  17  12     2.067950873525   108.70511359   288.56024038
 H     18  17  12     2.070034685129   108.41877507    46.50111131
 H     19  18  17     2.052389210812   110.05318498    59.54827258
 H     19  18  17     2.050497229862   109.12861044   179.69264832
 H     19  18  17     2.052374002110   109.92419927   299.65231628

---------------------
BASIS SET INFORMATION
---------------------
There are 5 groups of distinct atoms

 Group   1 Type C   : 7s4p1d contracted to 3s2p1d pattern {511/31/1}
 Group   2 Type O   : 7s4p1d contracted to 3s2p1d pattern {511/31/1}
 Group   3 Type P   : 10s7p1d contracted to 4s3p1d pattern {5311/511/1}
 Group   4 Type S   : 10s7p1d contracted to 4s3p1d pattern {5311/511/1}
 Group   5 Type H   : 4s contracted to 2s pattern {31}

Atom   0C    basis set group =>   1
Atom   1C    basis set group =>   1
Atom   2O    basis set group =>   2
Atom   3P    basis set group =>   3
Atom   4S    basis set group =>   4
Atom   5O    basis set group =>   2
Atom   6C    basis set group =>   1
Atom   7C    basis set group =>   1
Atom   8S    basis set group =>   4
Atom   9C    basis set group =>   1
Atom  10S    basis set group =>   4
Atom  11P    basis set group =>   3
Atom  12S    basis set group =>   4
Atom  13O    basis set group =>   2
Atom  14C    basis set group =>   1
Atom  15C    basis set group =>   1
Atom  16O    basis set group =>   2
Atom  17C    basis set group =>   1
Atom  18C    basis set group =>   1
Atom  19H    basis set group =>   5
Atom  20H    basis set group =>   5
Atom  21H    basis set group =>   5
Atom  22H    basis set group =>   5
Atom  23H    basis set group =>   5
Atom  24H    basis set group =>   5
Atom  25H    basis set group =>   5
Atom  26H    basis set group =>   5
Atom  27H    basis set group =>   5
Atom  28H    basis set group =>   5
Atom  29H    basis set group =>   5
Atom  30H    basis set group =>   5
Atom  31H    basis set group =>   5
Atom  32H    basis set group =>   5
Atom  33H    basis set group =>   5
Atom  34H    basis set group =>   5
Atom  35H    basis set group =>   5
Atom  36H    basis set group =>   5
Atom  37H    basis set group =>   5
Atom  38H    basis set group =>   5
Atom  39H    basis set group =>   5
Atom  40H    basis set group =>   5
---------------------------------
AUXILIARY/J BASIS SET INFORMATION
---------------------------------
There are 5 groups of distinct atoms

 Group   1 Type C   : 12s5p4d2f1g contracted to 6s4p3d1f1g pattern {711111/2111/211/2/1}
 Group   2 Type O   : 12s5p4d2f1g contracted to 6s4p3d1f1g pattern {711111/2111/211/2/1}
 Group   3 Type P   : 14s5p5d2f1g contracted to 8s4p3d1f1g pattern {71111111/2111/311/2/1}
 Group   4 Type S   : 14s5p5d2f1g contracted to 8s4p3d1f1g pattern {71111111/2111/311/2/1}
 Group   5 Type H   : 5s2p1d contracted to 3s1p1d pattern {311/2/1}

Atom   0C    basis set group =>   1
Atom   1C    basis set group =>   1
Atom   2O    basis set group =>   2
Atom   3P    basis set group =>   3
Atom   4S    basis set group =>   4
Atom   5O    basis set group =>   2
Atom   6C    basis set group =>   1
Atom   7C    basis set group =>   1
Atom   8S    basis set group =>   4
Atom   9C    basis set group =>   1
Atom  10S    basis set group =>   4
Atom  11P    basis set group =>   3
Atom  12S    basis set group =>   4
Atom  13O    basis set group =>   2
Atom  14C    basis set group =>   1
Atom  15C    basis set group =>   1
Atom  16O    basis set group =>   2
Atom  17C    basis set group =>   1
Atom  18C    basis set group =>   1
Atom  19H    basis set group =>   5
Atom  20H    basis set group =>   5
Atom  21H    basis set group =>   5
Atom  22H    basis set group =>   5
Atom  23H    basis set group =>   5
Atom  24H    basis set group =>   5
Atom  25H    basis set group =>   5
Atom  26H    basis set group =>   5
Atom  27H    basis set group =>   5
Atom  28H    basis set group =>   5
Atom  29H    basis set group =>   5
Atom  30H    basis set group =>   5
Atom  31H    basis set group =>   5
Atom  32H    basis set group =>   5
Atom  33H    basis set group =>   5
Atom  34H    basis set group =>   5
Atom  35H    basis set group =>   5
Atom  36H    basis set group =>   5
Atom  37H    basis set group =>   5
Atom  38H    basis set group =>   5
Atom  39H    basis set group =>   5
Atom  40H    basis set group =>   5
------------------------------------------------------------------------------
                             ORCA STARTUP CALCULATIONS
                           -- RI-GTO INTEGRALS CHOSEN --
------------------------------------------------------------------------------
------------------------------------------------------------------------------
                   ___                                                        
                  /   \      - P O W E R E D   B Y -                         
                 /     \                                                     
                 |  |  |   _    _      __       _____    __    __             
                 |  |  |  | |  | |    /  \     |  _  \  |  |  /  |          
                  \  \/   | |  | |   /    \    | | | |  |  | /  /          
                 / \  \   | |__| |  /  /\  \   | |_| |  |  |/  /          
                |  |  |   |  __  | /  /__\  \  |    /   |      \           
                |  |  |   | |  | | |   __   |  |    \   |  |\   \          
                \     /   | |  | | |  |  |  |  | |\  \  |  | \   \       
                 \___/    |_|  |_| |__|  |__|  |_| \__\ |__|  \__/        
                                                                              
                      - O R C A' S   B I G   F R I E N D -                    
                                      &                                       
                       - I N T E G R A L  F E E D E R -                       
                                                                              
 v1 FN, 2020, v2 2021, v3 2022-2024                                           
------------------------------------------------------------------------------


----------------------
SHARK INTEGRAL PACKAGE
----------------------

Number of atoms                             ...     41
Number of basis functions                   ...    334
Number of shells                            ...    170
Maximum angular momentum                    ...      2
Integral batch strategy                     ... SHARK/LIBINT Hybrid
RI-J (if used) integral strategy            ... SPLIT-RIJ (Revised 2003 algorithm where possible)
Printlevel                                  ...      1
Contraction scheme used                     ... SEGMENTED contraction
Prescreening option                         ... SCHWARTZ
   Thresh                                   ... 1.000e-09
   Tcut                                     ... 1.000e-10
   Tpresel                                  ... 1.000e-10 
Coulomb Range Separation                    ... NOT USED
Exchange Range Separation                   ... NOT USED
Multipole approximations                    ... NOT USED
Finite Nucleus Model                        ... NOT USED
CABS basis                                  ... NOT available
Auxiliary Coulomb fitting basis             ... AVAILABLE
   # of basis functions in Aux-J            ...   1185
   # of shells in Aux-J                     ...    407
   Maximum angular momentum in Aux-J        ...      4
Auxiliary J/K fitting basis                 ... NOT available
Auxiliary Correlation fitting basis         ... NOT available
Auxiliary 'external' fitting basis          ... NOT available

Checking pre-screening integrals            ... done (  0.0 sec) Dimension = 170
Check shell pair data                       ... done (  0.0 sec)
Shell pair information
Shell pair cut-off parameter TPreSel        ...   1.0e-10
Total number of shell pairs                 ...     14535
Shell pairs after pre-screening             ...     10165
Total number of primitive shell pairs       ...     62501
Primitive shell pairs kept                  ...     25276
          la=0 lb=0:   3913 shell pairs
          la=1 lb=0:   3467 shell pairs
          la=1 lb=1:    808 shell pairs
          la=2 lb=0:   1284 shell pairs
          la=2 lb=1:    585 shell pairs
          la=2 lb=2:    108 shell pairs

Calculating one electron integrals          ... done (  0.1 sec)
Calculating RI/J V-Matrix + Cholesky decomp.... done (  0.1 sec)
Calculating Nuclear repulsion               ... done (  0.0 sec) ENN=   2798.382413023273 Eh

Diagonalization of the overlap matrix:
Smallest eigenvalue                        ... 3.118e-03
Time for diagonalization                   ...    0.010 sec
Threshold for overlap eigenvalues          ... 1.000e-07
Number of eigenvalues below threshold      ... 0
Time for construction of square roots      ...    0.023 sec
Total time needed                          ...    0.043 sec

-------------------
DFT GRID GENERATION
-------------------

General Integration Accuracy     IntAcc      ... 4.159
Radial Grid Type                 RadialGrid  ... OptM3 with GC (2021)
Angular Grid (max. ang.)         AngularGrid ... 3 (Lebedev-194)
Angular grid pruning method      GridPruning ... 4 (adaptive)
Weight generation scheme         WeightScheme... mBecke (2022)
Basis function cutoff            BFCut       ... 1.0000e-10
Integration weight cutoff        WCut        ... 1.0000e-14
Partially contracted basis set               ... off
Rotationally invariant grid construction     ... off
Angular grids for H and He will be reduced by one unit

Total number of grid points                  ...    97540
Total number of batches                      ...     1544
Average number of points per batch           ...       63
Average number of grid points per atom       ...     2379
Initializing property integral containers    ... done (  0.0 sec)

SHARK setup successfully completed in   1.5 seconds

Maximum memory used throughout the entire STARTUP-calculation: 51.3 MB
-------------------------------------------------------------------------------
                                 ORCA GUESS
                   Start orbitals & Density for SCF / CASSCF
-------------------------------------------------------------------------------

------------
SCF SETTINGS
------------
Hamiltonian:
 Density Functional     Method          .... DFT(GTOs)
 Exchange Functional    Exchange        .... PBE
   PBE kappa parameter   XKappa         ....  0.804000
   PBE mue parameter    XMuePBE         ....  0.219520
 Correlation Functional Correlation     .... PBE
   PBE beta parameter  CBetaPBE         ....  0.066725
 LDA part of GGA corr.  LDAOpt          .... PW91-LDA
 Gradients option       PostSCFGGA      .... off
   NL short-range parameter             ....  6.400000
 RI-approximation to the Coulomb term is turned on
   Number of AuxJ basis functions       .... 1185


General Settings:
 Integral files         IntName         .... sp
 Hartree-Fock type      HFTyp           .... RHF
 Total Charge           Charge          ....    0
 Multiplicity           Mult            ....    1
 Number of Electrons    NEL             ....  202
 Basis Dimension        Dim             ....  334
 Nuclear Repulsion      ENuc            ....   2798.3824130233 Eh

Convergence Acceleration:
 AO-DIIS                CNVDIIS         .... on
   Start iteration      DIISMaxIt       ....    12
   Startup error        DIISStart       ....  0.200000
   # of expansion vecs  DIISMaxEq       ....     5
   Bias factor          DIISBfac        ....   1.050
   Max. coefficient     DIISMaxC        ....  10.000
 MO-DIIS                CNVKDIIS        .... off
 Trust-Rad. Augm. Hess. CNVTRAH         .... auto
   Auto Start mean grad. ratio tolernc. ....  1.125000
   Auto Start start iteration           ....    50
   Auto Start num. interpolation iter.  ....    10
   Max. Number of Micro iterations      ....    24
   Max. Number of Macro iterations      .... Maxiter - #DIIS iter
   Number of Davidson start vectors     ....     2
   Converg. threshold    (grad. norm)   ....   1.000e-04
   Grad. Scal. Fac. for Micro threshold ....   0.100
   Minimum threshold for Micro iter.    ....   1.000e-02
   NR start threshold (gradient norm)   ....   1.000e-04
   Initial trust radius                 ....   0.400
   Minimum AH scaling param. (alpha)    ....   1.000
   Maximum AH scaling param. (alpha)    .... 1000.000
   Quad. conv. algorithm                .... NR
   White noise on init. David. guess    .... on
   Maximum white noise                  ....   0.010
   Pseudo random numbers                .... off
   Inactive MOs                         .... canonical
   Orbital update algorithm             .... Taylor
   Preconditioner                       .... Diag
   Full preconditioner red. dimension   ....   250
 SOSCF                  CNVSOSCF        .... on
   Start iteration      SOSCFMaxIt      ....   150
   Startup grad/error   SOSCFStart      ....  0.003300
   Hessian update       SOSCFHessUp     .... L-BFGS
 Level Shifting         CNVShift        .... on
   Level shift para.    LevelShift      ....    0.2500
   Turn off err/grad.   ShiftErr        ....    0.0010
 Zerner damping         CNVZerner       .... off
 Static damping         CNVDamp         .... on
   Fraction old density DampFac         ....    0.7000
   Max. Damping (<1)    DampMax         ....    0.9800
   Min. Damping (>=0)   DampMin         ....    0.0000
   Turn off err/grad.   DampErr         ....    0.1000

SCF Procedure:
 Maximum # iterations   MaxIter         ....   125
 SCF integral mode      SCFMode         .... Direct
   Integral package                     .... SHARK and LIBINT hybrid scheme
 Reset frequency        DirectResetFreq ....    20
 Integral Threshold     Thresh          ....  1.000e-09 Eh
 Primitive CutOff       TCut            ....  1.000e-10 Eh

Convergence Tolerance:
 Convergence Check Mode ConvCheckMode   .... Total+1el-Energy
 Convergence forced     ConvForced      .... 0
 Energy Change          TolE            ....  1.000e-05 Eh
 1-El. energy change                    ....  1.000e-02 Eh
 Orbital Gradient       TolG            ....  1.000e-04
 Orbital Rotation angle TolX            ....  1.000e-04
 DIIS Error             TolErr          ....  5.000e-04

------------------------------
INITIAL GUESS: MODEL POTENTIAL
------------------------------
Loading Hartree-Fock densities                     ... done
Calculating cut-offs                               ... done
Initializing the effective Hamiltonian             ... done
Setting up the integral package (SHARK)            ... done
Starting the Coulomb interaction                   ... done (   0.6 sec)
Making the grid                                    ... done (   0.6 sec)
Mapping shells                                     ... done
Starting the XC term evaluation                    ... done (   0.4 sec)
  promolecular density results
     # of electrons  =    201.984815848
     EX              =   -229.995928227
     EC              =     -7.288175373
     EX+EC           =   -237.284103601
Transforming the Hamiltonian                       ... done (   0.0 sec)
Diagonalizing the Hamiltonian                      ... done (   0.0 sec)
Back transforming the eigenvectors                 ... done (   0.0 sec)
Now organizing SCF variables                       ... done
                      ------------------
                      INITIAL GUESS DONE (   1.6 sec)
                      ------------------
             **** ENERGY FILE WAS UPDATED (sp.en.tmp) ****
Finished Guess after   1.9 sec
Maximum memory used throughout the entire GUESS-calculation: 39.1 MB

-------------------------------------------------------------------------------------------
                                      ORCA LEAN-SCF
                              memory conserving SCF solver
-------------------------------------------------------------------------------------------

----------------------------------------D-I-I-S--------------------------------------------
Iteration    Energy (Eh)           Delta-E    RMSDP     MaxDP     DIISErr   Damp  Time(sec)
-------------------------------------------------------------------------------------------
               ***  Starting incremental Fock matrix formation  ***
    1    -2929.1844611199503561     0.00e+00  2.67e-03  1.39e-01  1.85e-01  0.700   2.2
    2    -2929.4086659028034774    -2.24e-01  1.74e-03  7.36e-02  7.56e-02  0.700   2.1
                               ***Turning on AO-DIIS***
    3    -2929.4804135211943503    -7.17e-02  6.95e-04  1.62e-02  2.13e-02  0.700   2.1
    4    -2929.5254733716728879    -4.51e-02  1.05e-03  3.31e-02  1.02e-02  0.000   1.9
    5    -2929.6302381734531082    -1.05e-01  3.08e-04  1.10e-02  8.16e-03  0.000   2.0
                              *** Initializing SOSCF ***
---------------------------------------S-O-S-C-F--------------------------------------
Iteration    Energy (Eh)           Delta-E    RMSDP     MaxDP     MaxGrad    Time(sec)
--------------------------------------------------------------------------------------
    6    -2929.6313017865795700    -1.06e-03  1.08e-04  2.89e-03  2.36e-03     1.9
               *** Restarting incremental Fock matrix formation ***
    7    -2929.6314278949512300    -1.26e-04  7.73e-05  1.90e-03  2.16e-04     2.2
    8    -2929.6314301032462026    -2.21e-06  3.14e-05  9.90e-04  2.57e-04     1.8
                 **** Energy Check signals convergence ****

               *****************************************************
               *                     SUCCESS                       *
               *           SCF CONVERGED AFTER   8 CYCLES          *
               *****************************************************

             **** ENERGY FILE WAS UPDATED (sp.en.tmp) ****

----------------
TOTAL SCF ENERGY
----------------

Total Energy       :      -2929.63143010324620 Eh          -79719.32407 eV

Components:
Nuclear Repulsion  :       2798.38241302327333 Eh           76147.85674 eV
Electronic Energy  :      -5728.01384312651862 Eh         -155867.18081 eV
One Electron Energy:      -9616.37289470376527 Eh         -261674.80976 eV
Two Electron Energy:       3888.35905157724619 Eh          105807.62895 eV

Virial components:
Potential Energy   :      -5848.96338840740282 Eh         -159158.38525 eV
Kinetic Energy     :       2919.33195830415661 Eh           79439.06119 eV
Virial Ratio       :          2.00352802351572

DFT components:
N(Alpha)           :      100.999891466116 electrons
N(Beta)            :      100.999891466116 electrons
N(Total)           :      201.999782932233 electrons
E(X)               :     -231.810634055185 Eh       
E(C)               :       -7.297561207770 Eh       
E(XC)              :     -239.108195262955 Eh       

---------------
SCF CONVERGENCE
---------------

  Last Energy change         ...    2.2083e-06  Tolerance :   1.0000e-05
  Last MAX-Density change    ...    9.8984e-04  Tolerance :   1.0000e-03
  Last RMS-Density change    ...    3.1414e-05  Tolerance :   1.0000e-04
  Last DIIS Error            ...    2.3647e-03  Tolerance :   5.0000e-04
  Last Orbital Gradient      ...    2.5746e-04  Tolerance :   1.0000e-04
  Last Orbital Rotation      ...    3.3900e-04  Tolerance :   1.0000e-04


----------------
ORBITAL ENERGIES
----------------

  NO   OCC          E(Eh)            E(eV) 
   0   2.0000     -88.038647     -2395.6534 
   1   2.0000     -88.038188     -2395.6409 
   2   2.0000     -87.981360     -2394.0945 
   3   2.0000     -87.979586     -2394.0463 
   4   2.0000     -76.421249     -2079.5279 
   5   2.0000     -76.419270     -2079.4740 
   6   2.0000     -18.790626      -511.3189 
   7   2.0000     -18.786215      -511.1989 
   8   2.0000     -18.783325      -511.1203 
   9   2.0000     -18.779703      -511.0217 
  10   2.0000      -9.956756      -270.9371 
  11   2.0000      -9.954027      -270.8628 
  12   2.0000      -9.948141      -270.7027 
  13   2.0000      -9.947841      -270.6945 
  14   2.0000      -9.938110      -270.4297 
  15   2.0000      -9.885977      -269.0111 
  16   2.0000      -9.882604      -268.9193 
  17   2.0000      -9.880817      -268.8707 
  18   2.0000      -9.875011      -268.7127 
  19   2.0000      -7.684098      -209.0949 
  20   2.0000      -7.683772      -209.0861 
  21   2.0000      -7.626498      -207.5276 
  22   2.0000      -7.624061      -207.4613 
  23   2.0000      -6.419190      -174.6750 
  24   2.0000      -6.416777      -174.6094 
  25   2.0000      -5.712070      -155.4333 
  26   2.0000      -5.711608      -155.4208 
  27   2.0000      -5.708844      -155.3456 
  28   2.0000      -5.708326      -155.3315 
  29   2.0000      -5.700636      -155.1222 
  30   2.0000      -5.700617      -155.1217 
  31   2.0000      -5.655480      -153.8934 
  32   2.0000      -5.652873      -153.8225 
  33   2.0000      -5.647369      -153.6727 
  34   2.0000      -5.646211      -153.6412 
  35   2.0000      -5.644757      -153.6016 
  36   2.0000      -5.644328      -153.5900 
  37   2.0000      -4.642145      -126.3192 
  38   2.0000      -4.640577      -126.2765 
  39   2.0000      -4.639643      -126.2511 
  40   2.0000      -4.639259      -126.2406 
  41   2.0000      -4.638556      -126.2215 
  42   2.0000      -4.637323      -126.1880 
  43   2.0000      -0.980987       -26.6940 
  44   2.0000      -0.979210       -26.6457 
  45   2.0000      -0.938099       -25.5270 
  46   2.0000      -0.937768       -25.5180 
  47   2.0000      -0.759802       -20.6753 
  48   2.0000      -0.719165       -19.5695 
  49   2.0000      -0.704284       -19.1645 
  50   2.0000      -0.690342       -18.7852 
  51   2.0000      -0.681425       -18.5425 
  52   2.0000      -0.668970       -18.2036 
  53   2.0000      -0.648303       -17.6412 
  54   2.0000      -0.631669       -17.1886 
  55   2.0000      -0.596608       -16.2345 
  56   2.0000      -0.583031       -15.8651 
  57   2.0000      -0.572634       -15.5822 
  58   2.0000      -0.565965       -15.4007 
  59   2.0000      -0.554198       -15.0805 
  60   2.0000      -0.507107       -13.7991 
  61   2.0000      -0.485464       -13.2101 
  62   2.0000      -0.476419       -12.9640 
  63   2.0000      -0.465534       -12.6678 
  64   2.0000      -0.445656       -12.1269 
  65   2.0000      -0.443926       -12.0798 
  66   2.0000      -0.437192       -11.8966 
  67   2.0000      -0.432216       -11.7612 
  68   2.0000      -0.428657       -11.6644 
  69   2.0000      -0.416362       -11.3298 
  70   2.0000      -0.407152       -11.0792 
  71   2.0000      -0.389224       -10.5913 
  72   2.0000      -0.385280       -10.4840 
  73   2.0000      -0.381168       -10.3721 
  74   2.0000      -0.375897       -10.2287 
  75   2.0000      -0.371351       -10.1050 
  76   2.0000      -0.361766        -9.8441 
  77   2.0000      -0.357422        -9.7260 
  78   2.0000      -0.350102        -9.5268 
  79   2.0000      -0.349305        -9.5051 
  80   2.0000      -0.345950        -9.4138 
  81   2.0000      -0.342023        -9.3069 
  82   2.0000      -0.336062        -9.1447 
  83   2.0000      -0.332376        -9.0444 
  84   2.0000      -0.330599        -8.9961 
  85   2.0000      -0.315191        -8.5768 
  86   2.0000      -0.309387        -8.4188 
  87   2.0000      -0.301837        -8.2134 
  88   2.0000      -0.290095        -7.8939 
  89   2.0000      -0.276849        -7.5335 
  90   2.0000      -0.274247        -7.4626 
  91   2.0000      -0.269886        -7.3440 
  92   2.0000      -0.264770        -7.2048 
  93   2.0000      -0.264391        -7.1945 
  94   2.0000      -0.256376        -6.9763 
  95   2.0000      -0.235244        -6.4013 
  96   2.0000      -0.219228        -5.9655 
  97   2.0000      -0.206113        -5.6086 
  98   2.0000      -0.200305        -5.4506 
  99   2.0000      -0.189806        -5.1649 
 100   2.0000      -0.181752        -4.9457 
 101   0.0000      -0.039468        -1.0740 
 102   0.0000      -0.030961        -0.8425 
 103   0.0000      -0.008202        -0.2232 
 104   0.0000       0.005492         0.1494 
 105   0.0000       0.023968         0.6522 
 106   0.0000       0.031031         0.8444 
 107   0.0000       0.039694         1.0801 
 108   0.0000       0.041396         1.1264 
 109   0.0000       0.045112         1.2276 
 110   0.0000       0.049857         1.3567 
 111   0.0000       0.058007         1.5785 
*Only the first 10 virtual orbitals were printed.

                    ********************************
                    * MULLIKEN POPULATION ANALYSIS *
                    ********************************

-----------------------
MULLIKEN ATOMIC CHARGES
-----------------------
   0 C :   -0.302382
   1 C :   -0.010263
   2 O :   -0.364792
   3 P :    0.616953
   4 S :   -0.325263
   5 O :   -0.373519
   6 C :   -0.002473
   7 C :   -0.319578
   8 S :   -0.088676
   9 C :   -0.344756
  10 S :   -0.091195
  11 P :    0.635932
  12 S :   -0.313189
  13 O :   -0.363937
  14 C :   -0.034025
  15 C :   -0.299953
  16 O :   -0.388114
  17 C :   -0.019655
  18 C :   -0.273076
  19 H :    0.113456
  20 H :    0.109018
  21 H :    0.119375
  22 H :    0.101422
  23 H :    0.128866
  24 H :    0.103915
  25 H :    0.108710
  26 H :    0.111840
  27 H :    0.128874
  28 H :    0.119065
  29 H :    0.183482
  30 H :    0.197727
  31 H :    0.110370
  32 H :    0.105237
  33 H :    0.136835
  34 H :    0.107566
  35 H :    0.132202
  36 H :    0.095341
  37 H :    0.107966
  38 H :    0.112024
  39 H :    0.109829
  40 H :    0.118844
Sum of atomic charges:   -0.0000000

--------------------------------
MULLIKEN REDUCED ORBITAL CHARGES
--------------------------------
  0 C s       :     3.094302  s :     3.094302
      pz      :     1.079781  p :     3.180010
      px      :     1.037014
      py      :     1.063215
      dz2     :     0.005808  d :     0.028071
      dxz     :     0.001847
      dyz     :     0.008440
      dx2y2   :     0.004274
      dxy     :     0.007701

  1 C s       :     3.086810  s :     3.086810
      pz      :     0.917772  p :     2.863292
      px      :     1.061926
      py      :     0.883593
      dz2     :     0.012544  d :     0.060161
      dxz     :     0.005860
      dyz     :     0.017193
      dx2y2   :     0.009851
      dxy     :     0.014713

  2 O s       :     3.753560  s :     3.753560
      pz      :     1.284750  p :     4.598023
      px      :     1.751622
      py      :     1.561650
      dz2     :     0.003822  d :     0.013209
      dxz     :     0.001990
      dyz     :     0.003614
      dx2y2   :     0.002175
      dxy     :     0.001609

  3 P s       :     5.205567  s :     5.205567
      pz      :     2.825118  p :     8.588524
      px      :     2.837203
      py      :     2.926202
      dz2     :     0.139236  d :     0.588957
      dxz     :     0.127217
      dyz     :     0.090694
      dx2y2   :     0.127137
      dxy     :     0.104672

  4 S s       :     5.919608  s :     5.919608
      pz      :     3.650201  p :    10.361720
      px      :     3.499917
      py      :     3.211602
      dz2     :     0.005643  d :     0.043935
      dxz     :     0.004910
      dyz     :     0.007654
      dx2y2   :     0.010048
      dxy     :     0.015680

  5 O s       :     3.757768  s :     3.757768
      pz      :     1.413702  p :     4.602673
      px      :     1.461676
      py      :     1.727296
      dz2     :     0.003418  d :     0.013078
      dxz     :     0.002585
      dyz     :     0.002035
      dx2y2   :     0.003054
      dxy     :     0.001986

  6 C s       :     3.073324  s :     3.073324
      pz      :     0.752679  p :     2.868650
      px      :     1.067482
      py      :     1.048488
      dz2     :     0.021325  d :     0.060500
      dxz     :     0.009041
      dyz     :     0.013276
      dx2y2   :     0.011750
      dxy     :     0.005108

  7 C s       :     3.107240  s :     3.107240
      pz      :     1.035725  p :     3.184282
      px      :     1.094016
      py      :     1.054540
      dz2     :     0.007110  d :     0.028057
      dxz     :     0.003422
      dyz     :     0.004895
      dx2y2   :     0.009373
      dxy     :     0.003258

  8 S s       :     5.871663  s :     5.871663
      pz      :     3.712674  p :    10.142067
      px      :     3.144529
      py      :     3.284864
      dz2     :     0.009989  d :     0.074946
      dxz     :     0.014468
      dyz     :     0.007726
      dx2y2   :     0.028336
      dxy     :     0.014427

  9 C s       :     3.216347  s :     3.216347
      pz      :     1.102895  p :     3.088880
      px      :     0.899437
      py      :     1.086548
      dz2     :     0.008889  d :     0.039529
      dxz     :     0.007636
      dyz     :     0.004433
      dx2y2   :     0.011972
      dxy     :     0.006598

 10 S s       :     5.872108  s :     5.872108
      pz      :     3.344568  p :    10.144455
      px      :     3.467241
      py      :     3.332646
      dz2     :     0.010892  d :     0.074632
      dxz     :     0.016736
      dyz     :     0.024345
      dx2y2   :     0.010372
      dxy     :     0.012288

 11 P s       :     5.177882  s :     5.177882
      pz      :     2.924974  p :     8.606592
      px      :     2.852527
      py      :     2.829090
      dz2     :     0.100469  d :     0.579595
      dxz     :     0.095526
      dyz     :     0.133320
      dx2y2   :     0.134505
      dxy     :     0.115774

 12 S s       :     5.913887  s :     5.913887
      pz      :     3.158689  p :    10.355832
      px      :     3.529391
      py      :     3.667753
      dz2     :     0.013933  d :     0.043469
      dxz     :     0.016416
      dyz     :     0.006493
      dx2y2   :     0.003773
      dxy     :     0.002854

 13 O s       :     3.764350  s :     3.764350
      pz      :     1.485724  p :     4.586308
      px      :     1.636054
      py      :     1.464531
      dz2     :     0.002507  d :     0.013279
      dxz     :     0.002580
      dyz     :     0.002481
      dx2y2   :     0.003431
      dxy     :     0.002281

 14 C s       :     3.089835  s :     3.089835
      pz      :     0.846036  p :     2.884447
      px      :     0.969111
      py      :     1.069299
      dz2     :     0.017499  d :     0.059743
      dxz     :     0.015477
      dyz     :     0.008354
      dx2y2   :     0.007068
      dxy     :     0.011344

 15 C s       :     3.099762  s :     3.099762
      pz      :     1.003145  p :     3.172414
      px      :     1.067003
      py      :     1.102266
      dz2     :     0.005485  d :     0.027777
      dxz     :     0.006715
      dyz     :     0.004454
      dx2y2   :     0.004811
      dxy     :     0.006311

 16 O s       :     3.771790  s :     3.771790
      pz      :     1.548698  p :     4.603324
      px      :     1.353883
      py      :     1.700744
      dz2     :     0.002725  d :     0.013000
      dxz     :     0.002394
      dyz     :     0.002336
      dx2y2   :     0.002281
      dxy     :     0.003264

 17 C s       :     3.074318  s :     3.074318
      pz      :     0.894917  p :     2.885369
      px      :     0.947947
      py      :     1.042505
      dz2     :     0.013405  d :     0.059968
      dxz     :     0.018059
      dyz     :     0.007159
      dx2y2   :     0.011231
      dxy     :     0.010114

 18 C s       :     3.085333  s :     3.085333
      pz      :     1.068803  p :     3.159846
      px      :     1.035297
      py      :     1.055745
      dz2     :     0.005068  d :     0.027897
      dxz     :     0.008646
      dyz     :     0.002491
      dx2y2   :     0.005986
      dxy     :     0.005706

 19 H s       :     0.886544  s :     0.886544

 20 H s       :     0.890982  s :     0.890982

 21 H s       :     0.880625  s :     0.880625

 22 H s       :     0.898578  s :     0.898578

 23 H s       :     0.871134  s :     0.871134

 24 H s       :     0.896085  s :     0.896085

 25 H s       :     0.891290  s :     0.891290

 26 H s       :     0.888160  s :     0.888160

 27 H s       :     0.871126  s :     0.871126

 28 H s       :     0.880935  s :     0.880935

 29 H s       :     0.816518  s :     0.816518

 30 H s       :     0.802273  s :     0.802273

 31 H s       :     0.889630  s :     0.889630

 32 H s       :     0.894763  s :     0.894763

 33 H s       :     0.863165  s :     0.863165

 34 H s       :     0.892434  s :     0.892434

 35 H s       :     0.867798  s :     0.867798

 36 H s       :     0.904659  s :     0.904659

 37 H s       :     0.892034  s :     0.892034

 38 H s       :     0.887976  s :     0.887976

 39 H s       :     0.890171  s :     0.890171

 40 H s       :     0.881156  s :     0.881156


------------------------
MULLIKEN OVERLAP CHARGES
------------------------
B(  0-C ,  1-C ) :   0.8964 B(  0-C ,  2-O ) :  -0.0913 B(  0-C , 19-H ) :   0.7212 
B(  0-C , 20-H ) :   0.7007 B(  0-C , 21-H ) :   0.7250 B(  0-C , 22-H ) :  -0.0535 
B(  0-C , 23-H ) :  -0.0736 B(  1-C ,  2-O ) :   0.5511 B(  1-C ,  3-P ) :  -0.0800 
B(  1-C , 22-H ) :   0.7343 B(  1-C , 23-H ) :   0.7254 B(  2-O ,  3-P ) :   0.6484 
B(  2-O ,  4-S ) :  -0.0671 B(  2-O ,  5-O ) :  -0.0553 B(  2-O ,  8-S ) :  -0.0821 
B(  2-O , 22-H ) :  -0.0589 B(  2-O , 23-H ) :  -0.0621 B(  3-P ,  4-S ) :   0.9377 
B(  3-P ,  5-O ) :   0.6247 B(  3-P ,  6-C ) :  -0.0757 B(  3-P ,  8-S ) :   0.5244 
B(  4-S ,  5-O ) :  -0.0810 B(  4-S ,  8-S ) :  -0.0699 B(  4-S , 25-H ) :   0.0674 
B(  5-O ,  6-C ) :   0.5592 B(  5-O ,  7-C ) :  -0.0894 B(  5-O ,  8-S ) :  -0.0658 
B(  5-O , 24-H ) :  -0.0584 B(  5-O , 25-H ) :  -0.0704 B(  6-C ,  7-C ) :   0.9368 
B(  6-C , 24-H ) :   0.7232 B(  6-C , 25-H ) :   0.7131 B(  7-C , 25-H ) :  -0.0697 
B(  7-C , 26-H ) :   0.6888 B(  7-C , 27-H ) :   0.7214 B(  7-C , 28-H ) :   0.7278 
B(  8-S ,  9-C ) :   0.4545 B(  8-S , 10-S ) :  -0.1586 B(  8-S , 29-H ) :  -0.0675 
B(  9-C , 10-S ) :   0.4972 B(  9-C , 11-P ) :  -0.0646 B(  9-C , 12-S ) :  -0.0552 
B(  9-C , 29-H ) :   0.7225 B(  9-C , 30-H ) :   0.6109 B( 10-S , 11-P ) :   0.5341 
B( 10-S , 12-S ) :  -0.0718 B( 10-S , 13-O ) :  -0.0581 B( 10-S , 16-O ) :  -0.0913 
B( 10-S , 29-H ) :  -0.0555 B( 10-S , 30-H ) :  -0.0669 B( 11-P , 12-S ) :   0.9643 
B( 11-P , 13-O ) :   0.6573 B( 11-P , 16-O ) :   0.5939 B( 11-P , 17-C ) :  -0.0654 
B( 12-S , 13-O ) :  -0.0694 B( 12-S , 16-O ) :  -0.0686 B( 12-S , 30-H ) :   0.1204 
B( 12-S , 37-H ) :   0.0786 B( 13-O , 14-C ) :   0.5271 B( 13-O , 15-C ) :  -0.1033 
B( 13-O , 16-O ) :  -0.0656 B( 13-O , 31-H ) :  -0.0569 B( 13-O , 32-H ) :  -0.0663 
B( 14-C , 15-C ) :   0.9124 B( 14-C , 31-H ) :   0.7345 B( 14-C , 32-H ) :   0.7144 
B( 15-C , 32-H ) :  -0.0734 B( 15-C , 33-H ) :   0.7417 B( 15-C , 34-H ) :   0.6910 
B( 15-C , 35-H ) :   0.7489 B( 16-O , 17-C ) :   0.5402 B( 16-O , 18-C ) :  -0.1154 
B( 16-O , 36-H ) :  -0.0707 B( 16-O , 37-H ) :  -0.0687 B( 17-C , 18-C ) :   0.8727 
B( 17-C , 36-H ) :   0.7241 B( 17-C , 37-H ) :   0.7101 B( 18-C , 36-H ) :  -0.0663 
B( 18-C , 38-H ) :   0.7438 B( 18-C , 39-H ) :   0.7023 B( 18-C , 40-H ) :   0.7368 
B( 19-H , 21-H ) :  -0.0542 B( 22-H , 23-H ) :  -0.0646 B( 24-H , 25-H ) :  -0.0645 
B( 27-H , 28-H ) :  -0.0539 B( 31-H , 32-H ) :  -0.0684 B( 36-H , 37-H ) :  -0.0812 
B( 38-H , 40-H ) :  -0.0537 


                     *******************************
                     * LOEWDIN POPULATION ANALYSIS *
                     *******************************

----------------------
LOEWDIN ATOMIC CHARGES
----------------------
   0 C :   -0.365130
   1 C :   -0.120889
   2 O :   -0.237224
   3 P :    0.568228
   4 S :   -0.313061
   5 O :   -0.243825
   6 C :   -0.120709
   7 C :   -0.371397
   8 S :    0.090183
   9 C :   -0.477337
  10 S :    0.086576
  11 P :    0.574191
  12 S :   -0.292691
  13 O :   -0.236039
  14 C :   -0.115539
  15 C :   -0.363595
  16 O :   -0.264770
  17 C :   -0.123520
  18 C :   -0.350308
  19 H :    0.124624
  20 H :    0.129041
  21 H :    0.121308
  22 H :    0.118028
  23 H :    0.110436
  24 H :    0.118056
  25 H :    0.108839
  26 H :    0.130576
  27 H :    0.121961
  28 H :    0.123995
  29 H :    0.138547
  30 H :    0.125200
  31 H :    0.121514
  32 H :    0.107952
  33 H :    0.131830
  34 H :    0.128669
  35 H :    0.119695
  36 H :    0.106149
  37 H :    0.107561
  38 H :    0.124550
  39 H :    0.129604
  40 H :    0.128726

-------------------------------
LOEWDIN REDUCED ORBITAL CHARGES
-------------------------------
  0 C s       :     2.952376  s :     2.952376
      pz      :     1.133508  p :     3.343216
      px      :     1.093797
      py      :     1.115911
      dz2     :     0.014808  d :     0.069538
      dxz     :     0.004117
      dyz     :     0.020362
      dx2y2   :     0.009819
      dxy     :     0.020433

  1 C s       :     2.927787  s :     2.927787
      pz      :     0.979267  p :     3.058974
      px      :     1.117514
      py      :     0.962194
      dz2     :     0.029075  d :     0.134128
      dxz     :     0.010650
      dyz     :     0.038121
      dx2y2   :     0.020325
      dxy     :     0.035956

  2 O s       :     3.498520  s :     3.498520
      pz      :     1.373331  p :     4.714511
      px      :     1.745920
      py      :     1.595260
      dz2     :     0.008257  d :     0.024192
      dxz     :     0.003545
      dyz     :     0.007077
      dx2y2   :     0.003149
      dxy     :     0.002165

  3 P s       :     5.057266  s :     5.057266
      pz      :     2.790778  p :     8.555937
      px      :     2.834341
      py      :     2.930818
      dz2     :     0.202652  d :     0.818569
      dxz     :     0.172278
      dyz     :     0.117499
      dx2y2   :     0.182748
      dxy     :     0.143392

  4 S s       :     5.770382  s :     5.770382
      pz      :     3.657689  p :    10.483736
      px      :     3.522923
      py      :     3.303124
      dz2     :     0.007941  d :     0.058943
      dxz     :     0.005973
      dyz     :     0.009615
      dx2y2   :     0.012168
      dxy     :     0.023245

  5 O s       :     3.500488  s :     3.500488
      pz      :     1.449995  p :     4.719387
      px      :     1.533206
      py      :     1.736186
      dz2     :     0.006852  d :     0.023949
      dxz     :     0.004855
      dyz     :     0.003696
      dx2y2   :     0.005870
      dxy     :     0.002676

  6 C s       :     2.927401  s :     2.927401
      pz      :     0.849851  p :     3.058043
      px      :     1.113862
      py      :     1.094330
      dz2     :     0.046520  d :     0.135265
      dxz     :     0.018584
      dyz     :     0.032107
      dx2y2   :     0.026916
      dxy     :     0.011137

  7 C s       :     2.954596  s :     2.954596
      pz      :     1.097593  p :     3.347567
      px      :     1.137613
      py      :     1.112361
      dz2     :     0.017739  d :     0.069235
      dxz     :     0.008109
      dyz     :     0.013344
      dx2y2   :     0.022165
      dxy     :     0.007878

  8 S s       :     5.635857  s :     5.635857
      pz      :     3.702104  p :    10.179100
      px      :     3.179148
      py      :     3.297849
      dz2     :     0.012768  d :     0.094860
      dxz     :     0.017999
      dyz     :     0.008552
      dx2y2   :     0.038341
      dxy     :     0.017200

  9 C s       :     3.063666  s :     3.063666
      pz      :     1.158238  p :     3.326539
      px      :     1.027883
      py      :     1.140418
      dz2     :     0.019969  d :     0.087132
      dxz     :     0.016832
      dyz     :     0.009219
      dx2y2   :     0.026851
      dxy     :     0.014262

 10 S s       :     5.638218  s :     5.638218
      pz      :     3.383029  p :    10.181210
      px      :     3.475478
      py      :     3.322704
      dz2     :     0.012065  d :     0.093997
      dxz     :     0.020560
      dyz     :     0.031511
      dx2y2   :     0.012490
      dxy     :     0.017371

 11 P s       :     5.058814  s :     5.058814
      pz      :     2.919037  p :     8.563403
      px      :     2.834996
      py      :     2.809370
      dz2     :     0.138601  d :     0.803592
      dxz     :     0.128098
      dyz     :     0.187173
      dx2y2   :     0.195068
      dxy     :     0.154651

 12 S s       :     5.756577  s :     5.756577
      pz      :     3.254026  p :    10.477936
      px      :     3.545731
      py      :     3.678180
      dz2     :     0.019250  d :     0.058177
      dxz     :     0.024236
      dyz     :     0.007060
      dx2y2   :     0.004491
      dxy     :     0.003141

 13 O s       :     3.505925  s :     3.505925
      pz      :     1.516085  p :     4.706136
      px      :     1.654361
      py      :     1.535690
      dz2     :     0.004787  d :     0.023978
      dxz     :     0.004839
      dyz     :     0.004588
      dx2y2   :     0.006498
      dxy     :     0.003267

 14 C s       :     2.929127  s :     2.929127
      pz      :     0.924818  p :     3.053400
      px      :     1.010766
      py      :     1.117816
      dz2     :     0.039988  d :     0.133012
      dxz     :     0.036661
      dyz     :     0.015176
      dx2y2   :     0.015094
      dxy     :     0.026092

 15 C s       :     2.952295  s :     2.952295
      pz      :     1.076841  p :     3.342481
      px      :     1.121829
      py      :     1.143811
      dz2     :     0.014849  d :     0.068820
      dxz     :     0.017938
      dyz     :     0.009655
      dx2y2   :     0.011639
      dxy     :     0.014739

 16 O s       :     3.516855  s :     3.516855
      pz      :     1.584177  p :     4.724077
      px      :     1.426421
      py      :     1.713479
      dz2     :     0.005090  d :     0.023839
      dxz     :     0.004911
      dyz     :     0.003469
      dx2y2   :     0.004448
      dxy     :     0.005921

 17 C s       :     2.929775  s :     2.929775
      pz      :     0.964397  p :     3.060163
      px      :     1.006735
      py      :     1.089032
      dz2     :     0.031057  d :     0.133582
      dxz     :     0.039135
      dyz     :     0.014095
      dx2y2   :     0.022955
      dxy     :     0.026340

 18 C s       :     2.950268  s :     2.950268
      pz      :     1.126521  p :     3.330762
      px      :     1.093306
      py      :     1.110935
      dz2     :     0.013170  d :     0.069278
      dxz     :     0.020903
      dyz     :     0.005500
      dx2y2   :     0.013519
      dxy     :     0.016187

 19 H s       :     0.875376  s :     0.875376

 20 H s       :     0.870959  s :     0.870959

 21 H s       :     0.878692  s :     0.878692

 22 H s       :     0.881972  s :     0.881972

 23 H s       :     0.889564  s :     0.889564

 24 H s       :     0.881944  s :     0.881944

 25 H s       :     0.891161  s :     0.891161

 26 H s       :     0.869424  s :     0.869424

 27 H s       :     0.878039  s :     0.878039

 28 H s       :     0.876005  s :     0.876005

 29 H s       :     0.861453  s :     0.861453

 30 H s       :     0.874800  s :     0.874800

 31 H s       :     0.878486  s :     0.878486

 32 H s       :     0.892048  s :     0.892048

 33 H s       :     0.868170  s :     0.868170

 34 H s       :     0.871331  s :     0.871331

 35 H s       :     0.880305  s :     0.880305

 36 H s       :     0.893851  s :     0.893851

 37 H s       :     0.892439  s :     0.892439

 38 H s       :     0.875450  s :     0.875450

 39 H s       :     0.870396  s :     0.870396

 40 H s       :     0.871274  s :     0.871274


---------------------------------
LOEWDIN BOND ORDERS (THRESH 0.050000)
---------------------------------
B(  0-C ,  1-C ) :   1.1573 B(  0-C ,  2-O ) :   0.0578 B(  0-C , 19-H ) :   0.9359 
B(  0-C , 20-H ) :   0.9264 B(  0-C , 21-H ) :   0.9303 B(  1-C ,  2-O ) :   1.0828 
B(  1-C ,  3-P ) :   0.0638 B(  1-C , 22-H ) :   0.9172 B(  1-C , 23-H ) :   0.9038 
B(  2-O ,  3-P ) :   1.2975 B(  2-O ,  4-S ) :   0.0945 B(  2-O ,  8-S ) :   0.0535 
B(  3-P ,  4-S ) :   1.7153 B(  3-P ,  5-O ) :   1.2670 B(  3-P ,  6-C ) :   0.0646 
B(  3-P ,  8-S ) :   1.0721 B(  4-S ,  5-O ) :   0.0932 B(  4-S ,  8-S ) :   0.1251 
B(  5-O ,  6-C ) :   1.0918 B(  5-O ,  7-C ) :   0.0591 B(  5-O ,  8-S ) :   0.0596 
B(  6-C ,  7-C ) :   1.1574 B(  6-C , 24-H ) :   0.9172 B(  6-C , 25-H ) :   0.9064 
B(  7-C , 26-H ) :   0.9253 B(  7-C , 27-H ) :   0.9266 B(  7-C , 28-H ) :   0.9353 
B(  8-S ,  9-C ) :   1.1710 B(  8-S , 10-S ) :   0.0977 B(  9-C , 10-S ) :   1.1594 
B(  9-C , 29-H ) :   0.9252 B(  9-C , 30-H ) :   0.8927 B( 10-S , 11-P ) :   1.0705 
B( 10-S , 12-S ) :   0.1256 B( 10-S , 13-O ) :   0.0626 B( 10-S , 16-O ) :   0.0532 
B( 11-P , 12-S ) :   1.7090 B( 11-P , 13-O ) :   1.2946 B( 11-P , 14-C ) :   0.0629 
B( 11-P , 16-O ) :   1.2347 B( 11-P , 17-C ) :   0.0650 B( 12-S , 13-O ) :   0.0677 
B( 12-S , 16-O ) :   0.0880 B( 12-S , 30-H ) :   0.0757 B( 13-O , 14-C ) :   1.0806 
B( 13-O , 15-C ) :   0.0581 B( 13-O , 16-O ) :   0.0644 B( 14-C , 15-C ) :   1.1589 
B( 14-C , 31-H ) :   0.9175 B( 14-C , 32-H ) :   0.9140 B( 15-C , 33-H ) :   0.9303 
B( 15-C , 34-H ) :   0.9251 B( 15-C , 35-H ) :   0.9285 B( 16-O , 17-C ) :   1.0865 
B( 16-O , 18-C ) :   0.0592 B( 17-C , 18-C ) :   1.1561 B( 17-C , 36-H ) :   0.9182 
B( 17-C , 37-H ) :   0.9049 B( 18-C , 38-H ) :   0.9375 B( 18-C , 39-H ) :   0.9296 
B( 18-C , 40-H ) :   0.9368 

------------------------------------------
LOEWDIN REDUCED ORBITAL POPULATIONS PER MO
-------------------------------------------
THRESHOLD FOR PRINTING IS 0.1%%
                      0         1         2         3         4         5   
                 -88.03865 -88.03819 -87.98136 -87.97959 -76.42125 -76.41927
                   2.00000   2.00000   2.00000   2.00000   2.00000   2.00000
                  --------  --------  --------  --------  --------  --------
 3 P  s               0.0       0.0       0.0       0.0       0.0     100.0
 4 S  s               0.0       0.0       0.0     100.0       0.0       0.0
 8 S  s               0.6      99.4       0.0       0.0       0.0       0.0
10 S  s              99.4       0.6       0.0       0.0       0.0       0.0
11 P  s               0.0       0.0       0.0       0.0     100.0       0.0
12 S  s               0.0       0.0     100.0       0.0       0.0       0.0

                      6         7         8         9        10        11   
                 -18.79063 -18.78621 -18.78333 -18.77970  -9.95676  -9.95403
                   2.00000   2.00000   2.00000   2.00000   2.00000   2.00000
                  --------  --------  --------  --------  --------  --------
 2 O  s               0.0       0.0       0.0      99.9       0.0       0.0
 5 O  s               0.0      99.9       0.0       0.0       0.0       0.0
 9 C  s               0.0       0.0       0.0       0.0       0.0      99.8
13 O  s              99.9       0.0       0.0       0.0       0.0       0.0
14 C  s               0.0       0.0       0.0       0.0      99.7       0.0
16 O  s               0.0       0.0      99.9       0.0       0.0       0.0

                     12        13        14        15        16        17   
                  -9.94814  -9.94784  -9.93811  -9.88598  -9.88260  -9.88082
                   2.00000   2.00000   2.00000   2.00000   2.00000   2.00000
                  --------  --------  --------  --------  --------  --------
 1 C  s               0.0       0.0      99.7       0.0       0.0       0.0
 6 C  s              99.7       0.0       0.0       0.0       0.0       0.0
 7 C  s               0.0       0.0       0.0       0.0       0.0      99.7
15 C  s               0.0       0.0       0.0       0.0      99.7       0.0
17 C  s               0.0      99.7       0.0       0.0       0.0       0.0
18 C  s               0.0       0.0       0.0      99.7       0.0       0.0

                     18        19        20        21        22        23   
                  -9.87501  -7.68410  -7.68377  -7.62650  -7.62406  -6.41919
                   2.00000   2.00000   2.00000   2.00000   2.00000   2.00000
                  --------  --------  --------  --------  --------  --------
 0 C  s              99.7       0.0       0.0       0.0       0.0       0.0
 4 S  s               0.0       0.0       0.0       0.0      99.9       0.0
 8 S  s               0.0       0.5      99.3       0.0       0.0       0.0
 9 C  px              0.0       0.1       0.1       0.0       0.0       0.0
10 S  s               0.0      99.3       0.5       0.0       0.0       0.0
11 P  s               0.0       0.0       0.0       0.0       0.0      99.4
12 S  s               0.0       0.0       0.0      99.9       0.0       0.0
13 O  py              0.0       0.0       0.0       0.0       0.0       0.2
16 O  px              0.0       0.0       0.0       0.0       0.0       0.2

                     24        25        26        27        28        29   
                  -6.41678  -5.71207  -5.71161  -5.70884  -5.70833  -5.70064
                   2.00000   2.00000   2.00000   2.00000   2.00000   2.00000
                  --------  --------  --------  --------  --------  --------
 2 O  pz              0.2       0.0       0.0       0.0       0.0       0.0
 3 P  s              99.3       0.0       0.0       0.0       0.0       0.0
 5 O  px              0.2       0.0       0.0       0.0       0.0       0.0
 8 S  pz              0.0       0.0       0.7       0.0      20.5      70.8
 8 S  px              0.0       0.0      58.2       0.0      29.6      10.9
 8 S  py              0.0       0.0      41.1       0.0      49.9       8.1
10 S  pz              0.0       3.2       0.0      88.2       0.0       0.9
10 S  px              0.0      33.3       0.0      11.7       0.0       5.6
10 S  py              0.0      63.5       0.0       0.1       0.0       3.7

                     30        31        32        33        34        35   
                  -5.70062  -5.65548  -5.65287  -5.64737  -5.64621  -5.64476
                   2.00000   2.00000   2.00000   2.00000   2.00000   2.00000
                  --------  --------  --------  --------  --------  --------
 4 S  pz              0.0       0.0       5.2       0.0       0.0      25.1
 4 S  px              0.0       0.0      23.4       0.0       0.0      47.1
 4 S  py              0.0       0.0      71.4       0.0       0.0      27.8
 8 S  pz              8.0       0.0       0.0       0.0       0.0       0.0
 8 S  px              1.2       0.0       0.0       0.0       0.0       0.0
 8 S  py              0.9       0.0       0.0       0.0       0.0       0.0
10 S  pz              7.7       0.0       0.0       0.0       0.0       0.0
10 S  px             49.5       0.0       0.0       0.0       0.0       0.0
10 S  py             32.6       0.0       0.0       0.0       0.0       0.0
12 S  pz              0.0      79.1       0.0       4.0      16.9       0.0
12 S  px              0.0      20.1       0.0      30.3      49.6       0.0
12 S  py              0.0       0.7       0.0      65.7      33.5       0.0

                     36        37        38        39        40        41   
                  -5.64433  -4.64215  -4.64058  -4.63964  -4.63926  -4.63856
                   2.00000   2.00000   2.00000   2.00000   2.00000   2.00000
                  --------  --------  --------  --------  --------  --------
 3 P  pz              0.0       0.0       0.0       0.0      61.9      38.0
 3 P  px              0.0       0.0       0.0       0.0      36.0      58.3
 3 P  py              0.0       0.0       0.0       0.0       2.0       3.7
 4 S  pz             69.7       0.0       0.0       0.0       0.0       0.0
 4 S  px             29.5       0.0       0.0       0.0       0.0       0.0
 4 S  py              0.7       0.0       0.0       0.0       0.0       0.0
11 P  pz              0.0       1.5      15.8      82.6       0.0       0.0
11 P  px              0.0      19.3      63.9      16.7       0.0       0.0
11 P  py              0.0      79.1      20.3       0.6       0.0       0.0

                     42        43        44        45        46        47   
                  -4.63732  -0.98099  -0.97921  -0.93810  -0.93777  -0.75980
                   2.00000   2.00000   2.00000   2.00000   2.00000   2.00000
                  --------  --------  --------  --------  --------  --------
 0 C  s               0.0       0.0       0.2       0.3       0.0       0.2
 0 C  px              0.0       0.0       0.2       0.4       0.0       0.0
 0 C  py              0.0       0.0       0.2       0.2       0.0       0.0
 1 C  s               0.0       0.0       2.7       5.0       0.0       0.5
 1 C  pz              0.0       0.0       1.6       2.1       0.0       0.0
 1 C  py              0.0       0.0       1.5       2.4       0.0       0.0
 1 C  dyz             0.0       0.0       0.2       0.3       0.0       0.0
 2 O  s               0.0       0.1      23.5      35.3       0.0       0.2
 2 O  pz              0.0       0.0       0.8       0.1       0.0       0.5
 2 O  py              0.0       0.0       0.7       1.1       0.0       0.2
 3 P  s               0.0       0.0      14.1       0.1       0.0       2.3
 3 P  pz              0.0       0.0       0.6       8.9       0.0       0.2
 3 P  px              5.6       0.0       4.2       1.9       0.0       0.7
 3 P  py             94.3       0.0       0.0       0.1       0.0       1.2
 3 P  dz2             0.0       0.0       0.3       1.8       0.0       0.1
 3 P  dxz             0.0       0.0       0.2       0.9       0.0       0.0
 3 P  dx2y2           0.0       0.0       0.6       0.5       0.0       0.1
 4 S  s               0.0       0.0       0.3       0.0       0.0       0.4
 4 S  px              0.0       0.0       0.1       0.0       0.0       0.0
 4 S  py              0.0       0.0       0.2       0.0       0.0       0.1
 5 O  s               0.0       0.1      33.3      25.5       0.0       0.2
 5 O  pz              0.0       0.0       0.1       0.9       0.0       0.2
 5 O  px              0.0       0.0       1.5       0.3       0.0       0.2
 5 O  py              0.0       0.0       0.1       0.1       0.0       0.0
 6 C  s               0.0       0.0       3.9       4.1       0.0       0.3
 6 C  pz              0.0       0.0       3.5       2.9       0.0       0.0
 6 C  px              0.0       0.0       0.3       0.2       0.0       0.0
 6 C  py              0.0       0.0       0.5       0.5       0.0       0.0
 6 C  dz2             0.0       0.0       0.2       0.2       0.0       0.0
 6 C  dyz             0.0       0.0       0.1       0.1       0.0       0.0
 7 C  s               0.0       0.0       0.3       0.3       0.0       0.0
 7 C  pz              0.0       0.0       0.4       0.4       0.0       0.0
 8 S  s               0.0       0.0       0.4       0.0       0.0      17.8
 8 S  pz              0.0       0.0       0.0       0.0       0.0       0.5
 8 S  px              0.0       0.0       0.1       0.0       0.0       2.0
 8 S  py              0.0       0.0       0.4       0.0       0.0       0.3
 9 C  s               0.0       0.0       0.0       0.0       0.0      26.0
 9 C  pz              0.0       0.0       0.0       0.0       0.0       1.3
 9 C  px              0.0       0.0       0.0       0.0       0.0       0.1
 9 C  py              0.0       0.0       0.0       0.0       0.0       0.9
10 S  s               0.0       0.3       0.0       0.0       0.0      19.1
10 S  pz              0.0       0.2       0.0       0.0       0.0       1.6
10 S  px              0.0       0.1       0.0       0.0       0.0       0.9
10 S  py              0.0       0.1       0.0       0.0       0.0       0.2
10 S  dxy             0.0       0.0       0.0       0.0       0.0       0.2
11 P  s               0.0      13.8       0.0       0.0       0.1       3.1
11 P  pz              0.0       0.4       0.0       0.0       1.3       0.4
11 P  px              0.0       3.2       0.0       0.0       2.9       0.8
11 P  py              0.0       1.3       0.0       0.0       6.4       1.2
11 P  dz2             0.0       0.4       0.0       0.0       0.1       0.0
11 P  dxz             0.0       0.0       0.0       0.0       0.1       0.0
11 P  dyz             0.0       0.5       0.0       0.0       0.3       0.2
11 P  dx2y2           0.0       0.0       0.0       0.0       2.0       0.0
11 P  dxy             0.0       0.0       0.0       0.0       0.8       0.0
12 S  s               0.0       0.3       0.0       0.0       0.0       0.7
[...]
 2 O  pz              0.0       2.1       0.0       2.9
 2 O  px              0.0       0.1       0.0       0.1
 2 O  py              0.0       1.4       0.0       0.3
 2 O  dz2             0.0       0.2       0.3      12.5
 2 O  dxz             0.0       0.8       0.0       0.0
 2 O  dyz             0.0      40.0       0.2      12.2
 2 O  dx2y2           0.0      12.2       0.0       2.2
 2 O  dxy             0.0       1.8       0.0       0.5
 3 P  s               0.0       0.5       0.0       0.0
 3 P  pz              0.0       0.0       0.1       2.5
 3 P  px              0.0       0.4       0.0       0.4
 3 P  dz2             0.0       0.1       0.0       0.7
 3 P  dxz             0.0       0.1       0.0       1.0
 3 P  dyz             0.0       0.2       0.0       0.0
 3 P  dx2y2           0.0       0.2       0.0       0.1
 5 O  s               0.1       0.0       0.0       0.2
 5 O  pz              0.0       1.0       0.1       2.7
 5 O  px              0.0       0.5       0.1       1.5
 5 O  py              0.0       0.1       0.0       0.2
 5 O  dz2             0.6       9.7       1.5      28.1
 5 O  dyz             0.3       3.4       0.5       7.1
 5 O  dx2y2           0.0       2.8       0.2       7.7
 5 O  dxy             0.0       0.0       0.0       0.1
 6 C  s               0.0       0.4       0.1       1.1
 6 C  pz              0.0       0.6       0.1       1.6
 6 C  px              0.0       0.0       0.0       0.1
 6 C  py              0.0       0.0       0.0       0.1
 6 C  dz2             0.1       1.1       0.2       2.7
 6 C  dxz             0.0       0.5       0.1       1.2
 6 C  dyz             0.1       0.6       0.1       1.7
 6 C  dxy             0.0       0.0       0.0       0.1
11 P  s               0.5       0.0       0.5       0.0
11 P  pz              0.4       0.0       0.1       0.0
11 P  px              0.1       0.0       1.3       0.1
11 P  py              1.6       0.0       0.3       0.1
11 P  dxz             0.0       0.0       0.2       0.0
11 P  dyz             0.5       0.0       0.0       0.0
11 P  dx2y2           0.3       0.0       0.7       0.1
11 P  dxy             0.6       0.0       0.0       0.0
13 O  s               0.2       0.0       0.2       0.0
13 O  pz              3.5       0.0       0.0       0.0
13 O  px              1.1       0.0       0.0       0.0
13 O  py              2.4       0.0       0.0       0.0
13 O  dz2            16.6       0.0       0.2       0.1
13 O  dxz            27.4       0.0       1.1       0.0
13 O  dyz             0.5       0.0       0.6       0.1
13 O  dx2y2          22.9       0.0       0.2       0.3
13 O  dxy             0.4       0.0       0.5       0.0
14 C  s               1.6       0.0       0.0       0.0
14 C  pz              1.8       0.0       0.1       0.0
14 C  px              0.8       0.0       0.0       0.0
14 C  py              0.2       0.0       0.0       0.0
14 C  dz2             1.5       0.0       0.0       0.0
14 C  dxz             5.4       0.0       0.2       0.0
14 C  dyz             1.4       0.0       0.0       0.0
14 C  dx2y2           0.4       0.0       0.0       0.0
14 C  dxy             0.7       0.0       0.0       0.0
15 C  dz2             0.2       0.0       0.0       0.0
16 O  s               0.2       0.0       0.4       0.0
16 O  pz              0.0       0.0       2.2       0.1
16 O  px              0.2       0.0       4.7       0.2
16 O  dz2             0.5       0.0      16.4       0.7
16 O  dxz             0.4       0.1      19.2       0.5
16 O  dyz             0.0       0.0      10.4       0.3
16 O  dx2y2           3.1       0.0       0.4       0.1
16 O  dxy             0.4       0.0      19.9       0.9
17 C  s               0.0       0.0       1.5       0.1
17 C  pz              0.0       0.0       1.5       0.0
17 C  px              0.0       0.0       1.4       0.0
17 C  py              0.0       0.0       0.1       0.0
17 C  dz2             0.0       0.0       1.2       0.0
17 C  dxz             0.0       0.0       5.9       0.2
17 C  dyz             0.1       0.0       0.8       0.0
17 C  dx2y2           0.0       0.0       0.8       0.0
17 C  dxy             0.0       0.0       1.7       0.1
18 C  s               0.0       0.0       0.1       0.0
18 C  px              0.0       0.0       0.1       0.0
18 C  dxz             0.0       0.0       0.2       0.0
18 C  dx2y2           0.0       0.0       0.2       0.0
18 C  dxy             0.0       0.0       0.1       0.0


                      *****************************
                      * MAYER POPULATION ANALYSIS *
                      *****************************

  NA   - Mulliken gross atomic population
  ZA   - Total nuclear charge
  QA   - Mulliken gross atomic charge
  VA   - Mayer's total valence
  BVA  - Mayer's bonded valence
  FA   - Mayer's free valence

  ATOM       NA         ZA         QA         VA         BVA        FA
  0 C      6.3024     6.0000    -0.3024     3.9949     3.9949     0.0000
  1 C      6.0103     6.0000    -0.0103     3.9928     3.9928    -0.0000
  2 O      8.3648     8.0000    -0.3648     2.1849     2.1849    -0.0000
  3 P     14.3830    15.0000     0.6170     4.9737     4.9737    -0.0000
  4 S     16.3253    16.0000    -0.3253     2.0839     2.0839     0.0000
  5 O      8.3735     8.0000    -0.3735     2.1784     2.1784    -0.0000
  6 C      6.0025     6.0000    -0.0025     4.0041     4.0041     0.0000
  7 C      6.3196     6.0000    -0.3196     3.9865     3.9865    -0.0000
  8 S     16.0887    16.0000    -0.0887     2.2546     2.2546    -0.0000
  9 C      6.3448     6.0000    -0.3448     3.8188     3.8188     0.0000
 10 S     16.0912    16.0000    -0.0912     2.2799     2.2799    -0.0000
 11 P     14.3641    15.0000     0.6359     4.9596     4.9596     0.0000
 12 S     16.3132    16.0000    -0.3132     2.0841     2.0841    -0.0000
 13 O      8.3639     8.0000    -0.3639     2.1814     2.1814    -0.0000
 14 C      6.0340     6.0000    -0.0340     4.0390     4.0390    -0.0000
 15 C      6.3000     6.0000    -0.3000     3.9961     3.9961    -0.0000
 16 O      8.3881     8.0000    -0.3881     2.1352     2.1352     0.0000
 17 C      6.0197     6.0000    -0.0197     3.9859     3.9859    -0.0000
 18 C      6.2731     6.0000    -0.2731     4.0018     4.0018    -0.0000
 19 H      0.8865     1.0000     0.1135     0.9607     0.9607     0.0000
 20 H      0.8910     1.0000     0.1090     0.9540     0.9540    -0.0000
 21 H      0.8806     1.0000     0.1194     0.9793     0.9793     0.0000
 22 H      0.8986     1.0000     0.1014     0.9518     0.9518    -0.0000
 23 H      0.8711     1.0000     0.1289     0.9815     0.9815    -0.0000
 24 H      0.8961     1.0000     0.1039     0.9493     0.9493     0.0000
 25 H      0.8913     1.0000     0.1087     0.9860     0.9860    -0.0000
 26 H      0.8882     1.0000     0.1118     0.9554     0.9554    -0.0000
 27 H      0.8711     1.0000     0.1289     0.9849     0.9849    -0.0000
 28 H      0.8809     1.0000     0.1191     0.9603     0.9603    -0.0000
 29 H      0.8165     1.0000     0.1835     0.9324     0.9324     0.0000
 30 H      0.8023     1.0000     0.1977     0.9950     0.9950     0.0000
 31 H      0.8896     1.0000     0.1104     0.9473     0.9473    -0.0000
 32 H      0.8948     1.0000     0.1052     0.9653     0.9653    -0.0000
 33 H      0.8632     1.0000     0.1368     0.9658     0.9658     0.0000
 34 H      0.8924     1.0000     0.1076     0.9536     0.9536    -0.0000
 35 H      0.8678     1.0000     0.1322     0.9677     0.9677     0.0000
 36 H      0.9047     1.0000     0.0953     0.9467     0.9467    -0.0000
 37 H      0.8920     1.0000     0.1080     0.9931     0.9931    -0.0000
 38 H      0.8880     1.0000     0.1120     0.9591     0.9591    -0.0000
 39 H      0.8902     1.0000     0.1098     0.9547     0.9547     0.0000
 40 H      0.8812     1.0000     0.1188     0.9605     0.9605    -0.0000

  Mayer bond orders larger than 0.100000
B(  0-C ,  1-C ) :   1.1615 B(  0-C , 19-H ) :   0.9451 B(  0-C , 20-H ) :   0.9393 
B(  0-C , 21-H ) :   0.9382 B(  1-C ,  2-O ) :   0.9011 B(  1-C , 22-H ) :   0.9366 
B(  1-C , 23-H ) :   0.9086 B(  2-O ,  3-P ) :   1.1356 B(  3-P ,  4-S ) :   1.6030 
B(  3-P ,  5-O ) :   1.0980 B(  3-P ,  8-S ) :   0.9640 B(  4-S ,  8-S ) :   0.1192 
B(  5-O ,  6-C ) :   0.9086 B(  6-C ,  7-C ) :   1.1666 B(  6-C , 24-H ) :   0.9332 
B(  6-C , 25-H ) :   0.9132 B(  7-C , 26-H ) :   0.9378 B(  7-C , 27-H ) :   0.9335 
B(  7-C , 28-H ) :   0.9437 B(  8-S ,  9-C ) :   0.9974 B(  9-C , 10-S ) :   1.0002 
B(  9-C , 29-H ) :   0.9117 B(  9-C , 30-H ) :   0.8515 B( 10-S , 11-P ) :   0.9629 
B( 10-S , 12-S ) :   0.1114 B( 11-P , 12-S ) :   1.6160 B( 11-P , 13-O ) :   1.1199 
B( 11-P , 16-O ) :   1.0670 B( 12-S , 30-H ) :   0.1079 B( 13-O , 14-C ) :   0.9073 
B( 14-C , 15-C ) :   1.1716 B( 14-C , 31-H ) :   0.9341 B( 14-C , 32-H ) :   0.9175 
B( 15-C , 33-H ) :   0.9394 B( 15-C , 34-H ) :   0.9372 B( 15-C , 35-H ) :   0.9351 
B( 16-O , 17-C ) :   0.9097 B( 17-C , 18-C ) :   1.1593 B( 17-C , 36-H ) :   0.9283 
B( 17-C , 37-H ) :   0.9112 B( 18-C , 38-H ) :   0.9518 B( 18-C , 39-H ) :   0.9424 
B( 18-C , 40-H ) :   0.9504 

-------
TIMINGS
-------

Total SCF time: 0 days 0 hours 0 min 16 sec 

Total time                  ....      16.686 sec
Sum of individual times     ....      16.190 sec  ( 97.0%)

SCF preparation             ....       0.214 sec  (  1.3%)
Fock matrix formation       ....      14.813 sec  ( 88.8%)
  Startup                   ....       0.071 sec  (  0.5% of F)
  Split-RI-J                ....       8.803 sec  ( 59.4% of F)
  XC integration            ....       5.425 sec  ( 36.6% of F)
    Basis function eval.    ....       2.051 sec  ( 37.8% of XC)
    Density eval.           ....       1.015 sec  ( 18.7% of XC)
    XC-Functional eval.     ....       0.401 sec  (  7.4% of XC)
    XC-Potential eval.      ....       1.205 sec  ( 22.2% of XC)
Diagonalization             ....       0.000 sec  (  0.0%)
Density matrix formation    ....       0.241 sec  (  1.4%)
Total Energy calculation    ....       0.035 sec  (  0.2%)
Population analysis         ....       0.197 sec  (  1.2%)
Orbital Transformation      ....       0.079 sec  (  0.5%)
Orbital Orthonormalization  ....       0.000 sec  (  0.0%)
DIIS solution               ....       0.460 sec  (  2.8%)
  MO trafo                  ....       0.000 sec  (  0.0 % of DIIS)
  Orb grad                  ....       0.000 sec  (  0.0 % of DIIS)
  Energy W gradient         ....       0.000 sec  (  0.0 % of DIIS)
  DIIS error                ....       0.022 sec  (  4.9 % of DIIS)
  DIIS work                 ....       0.376 sec  ( 81.7 % of DIIS)
  Form Q                    ....       0.000 sec  (  0.0 % of DIIS)
  Form QpQm                 ....       0.000 sec  (  0.0 % of DIIS)
  Exp/Cayley                ....       0.000 sec  (  0.0 % of DIIS)
  Orb update                ....       0.000 sec  (  0.0 % of DIIS)
  Wake-sleep                ....       0.019 sec  (  4.2 % of DIIS)
SOSCF solution              ....       0.150 sec  (  0.9%)
  MO trafo                  ....       0.087 sec  ( 57.8 % of SOSCF)
  Orb grad                  ....       0.001 sec  (  1.0 % of SOSCF)
  Rot update                ....       0.027 sec  ( 18.1 % of SOSCF)
  Step                      ....       0.035 sec  ( 22.9 % of SOSCF)
Finished LeanSCF after  16.8 sec

Maximum memory used throughout the entire LEANSCF-calculation: 34.4 MB


-------------------------------------------------------------------------------
                          DFT DISPERSION CORRECTION                            
                                                                               
                                DFTD4 V3.4.0                                   
-------------------------------------------------------------------------------
The PBE functional is recognized
Active option DFTDOPT                   ...         5   

-------------------------   ----------------
Dispersion correction           -0.066939897
-------------------------   ----------------

------------------   -----------------
gCP correction             0.184548528
------------------   -----------------

-------------------------   --------------------
FINAL SINGLE POINT ENERGY     -2929.513821472297
-------------------------   --------------------


------------------------------------------------------------------------------
                              ORCA PROPERTY CALCULATIONS
------------------------------------------------------------------------------

GBWName                                 ... sp.gbw
Number of atoms                         ...     41
Number of basis functions               ...    334
Max core memory                         ...   1024 MB

Electric properties:
Dipole moment                           ... YES
Quadrupole moment                       ...  NO
Static polarizability (Dipole/Dipole)   ...  NO
Static polarizability (Dipole/Quad.)    ...  NO
Static polarizability (Quad./Quad.)     ...  NO
Static polarizability (Velocity)        ...  NO

Atomic electric properties:
Dipole moment                           ...  NO
Quadrupole moment                       ...  NO
Static polarizability                   ...  NO

Choice of electric origin               ... Center of mass
Position of electric origin             ...    -0.000003     0.000003     0.000004

General magnetic properties:
Magnetizability                         ...  NO

EPR properties:
g-Tensor (aka g-matrix)                 ...  NO
Zero-Field splitting spin-orbit         ...  NO
Zero-field splitting spin-spin          ...  NO
Hyperfine couplings                     ...  NO (   0 nuclei)
Quadrupole couplings                    ...  NO (   0 nuclei)
Contact density                         ...  NO (   0 nuclei)

NMR properties:
Chemical shifts                         ...  NO (   0 nuclei)
Spin-rotation constants                 ...  NO (   0 nuclei)
Spin-spin couplings                     ...  NO (   0 nuclei,    0 pairs)

Choice of magnetic origin               ... GIAO
Position of magnetic origin             ...     0.000000     0.000000     0.000000

Properties with geometric perturbations:
SCF Hessian                             ...  NO
IR spectrum                             ...  NO
VCD spectrum                            ...  NO
X-ray spectroscopy properties:
SCF XES/XAS/RIXS spectra                ...  NO


-------------
DIPOLE MOMENT
-------------

Method             : SCF
Type of density    : Electron Density
Multiplicity       :   1
Irrep              :   0
Energy             : -2929.6314301032462026 Eh
Relativity type    : 
Basis              : AO
                                X                 Y                 Z
Electronic contribution:      3.779027167      -7.673216020      -3.054151734
Nuclear contribution   :     -4.385963955       7.788807472       3.547310250
                        -----------------------------------------
Total Dipole Moment    :     -0.606936788       0.115591452       0.493158516
                        -----------------------------------------
Magnitude (a.u.)       :      0.790530816
Magnitude (Debye)      :      2.009369646



--------------------
Rotational spectrum 
--------------------
 
Rotational constants in cm-1:             0.012591             0.005215             0.004846 
Rotational constants in MHz :           377.460547           156.336558           145.264699 

Dipole components along the rotational axes: 
x,y,z [a.u.] :     0.503940     0.598646    -0.112277 
x,y,z [Debye]:     1.280913     1.521638    -0.285385 

 

Dipole moment calculation done in   0.0 sec 

Maximum memory used throughout the entire PROP-calculation: 23.8 MB

--------------------------------
SUGGESTED CITATIONS FOR THIS RUN
--------------------------------

Below you find a list of papers that are relevant to this ORCA run
We neither can nor want to force you to cite these papers, but we appreciate if you do
You receive ORCA, which is the product of decades of hard work by many enthusiastic individuals, for free
The only thing we kindly ask in return is that you cite our papers,
We deeply appreciate it, if you show your appreciation for ORCA by not just citing the generic ORCA reference.

Please note that relegating all ORCA citations to the supporting information does *not* help us.
SI sections are not indexed - citations you put there will not count into any citation statistics
But we need these citations in order to attract the funding resources that allow us to do what we are doing

Therefore, if you are a happy ORCA user, please consider citing a few of the papers listed below in the main body of your paper

In addition to the list printed below, the program has created the file sp.bibtex that contains the list in bibtex format
You can import this file easily into all common literature databanks and citation aid programs


List of essential papers. We consider these as the minimum necessary citations

  1. Neese,F.
     Software update: the ORCA program system, version 5.0
     WIRES Comput. Molec. Sci., 2022 12(1)e1606
     doi.org/10.1002/wcms.1606

List of papers to cite with high priority. The work reported in these papers was absolutely
necessary for this run to complete.
Our perspective: the developers of density functionals and basis sets usually get cited in chemistry papers
Good! But without the algorithms to do something with them, the functionals or basis sets would not do anything.
Hence, in our opinion, the algorithm design and method developments papers are equally worthy of getting cited

  1. Neese,F.
     An improvement of the resolution of the identity approximation for the formation of the Coulomb matrix
     J. Comp. Chem., 2003 24(14)1740-1747
     doi.org/10.1002/jcc.10318
  2. Neese,F.
     The SHARK Integral Generation and Digestion System
     J. Comp. Chem., 2022  1-16
     doi.org/10.1002/jcc.26942
  3. Caldeweyher,E.; Bannwarth,C.; Grimme,S.
     Extension of the D3 dispersion coefficient model
     J. Chem. Phys., 2017 147 034112-XXXX
     doi.org/10.1063/1.4993215
  4. Caldeweyher,E.; Ehlert,S.; Hansen,A.; Neugebauer,H.; Spicher,S.; Bannwarth,C.; Grimme,S.
     A generally applicable atomic-charge dependent London dispersion correction
     J. Chem. Phys., 2019 150 154122-XXXX
     doi.org/10.1063/1.5090222
  5. Caldeweyher,E.; Mewes,J.; Ehlert,S.; Grimme,S.
     Extension and evaluation of the D4 London-dispersion model for periodic systems
     Phys. Chem. Chem. Phys., 2020 22(16)8499-8512
     doi.org/10.1039/D0CP00502A

List of suggested additional citations. These are papers that are important in the 'surrounding' of 
of this run, or papers that preceded the highly important papers. If you like your results we are grateful for a citation.

  1. Neese,F.
     The ORCA program system
     WIRES Comput. Molec. Sci., 2012 2(1)73-78
     doi.org/10.1002/wcms.81
  2. Neese,F.
     Software update: the ORCA program system, version 4.0
     WIRES Comput. Molec. Sci., 2018 8(1)1-6
     doi.org/10.1002/wcms.1327
  3. Neese,F.; Wennmohs,F.; Becker,U.; Riplinger,C.
     The ORCA quantum chemistry program package
     J. Chem. Phys., 2020 152 Art. No. L224108
     doi.org/10.1063/5.0004608

List of optional additional citations

  1. Neese,F.
     Approximate second-order SCF convergence for spin unrestricted wavefunctions
     Chem. Phys. Lett., 2000 325(1-3)93-98
     doi.org/10.1016/s0009-2614(00)00662-x

Timings for individual modules:

Sum of individual times          ...       20.355 sec (=   0.339 min)
Startup calculation              ...        1.575 sec (=   0.026 min)   7.7 %
SCF iterations                   ...       18.671 sec (=   0.311 min)  91.7 %
Property calculations            ...        0.109 sec (=   0.002 min)   0.5 %
                             ****ORCA TERMINATED NORMALLY****
TOTAL RUN TIME: 0 days 0 hours 0 minutes 21 seconds 120 msec
