38
 energy: -64.715022543995 gnorm: 0.051109216979 xtb: 6.7.1 (edcfbbe)
C            4.94815364969909       -3.42779568696155       -1.73780059625962
C            3.96894192830333       -2.88402151563320       -0.72747914638915
O            3.16703060759072       -1.86248552878108       -1.40627017737385
C            2.29937791612756       -1.19625015089316       -0.63927171401959
O            2.12953029640451       -1.41407488162961        0.54847739910269
C            1.58901472041338       -0.11897382584612       -1.42237416891368
C            0.38096957235526        0.46431912813045       -0.68398301974052
H            0.02812596229995        1.33865148633798       -1.24249902722452
C            0.73516035051415        0.95457361679188        0.71957253362587
O            0.17566857960977        0.65773498518973        1.75498638620534
O            1.73564448860048        1.83203995507785        0.62401450451390
C            2.20548591711265        2.43729175403546        1.87025308840513
C            3.30590500677075        3.39900907604627        1.50054404648968
S           -0.96267757309805       -0.79228342734054       -0.71145086401895
P           -2.60933675081228        0.25804171428815        0.11916526464620
S           -2.59236883560885        2.18811274933626       -0.09321937383026
O           -3.83791044171269       -0.55574539211550       -0.52692805477997
C           -4.29339053860263       -0.30988283354586       -1.88368420406592
O           -2.76903245647654       -0.18590195444900        1.65417206549549
C           -2.51084152256994       -1.56124782073049        2.06816170607466
H            5.60525910997817       -2.63735389811337       -2.11253597323200
H            5.56772022746136       -4.18986668524076       -1.25229863975400
H            4.42702955896131       -3.89132681358860       -2.58228051589001
H            4.47391809950775       -2.41382296043676        0.12236920037859
H            3.29045049428682       -3.65769608317601       -0.35599059973195
H            1.29500257123517       -0.50902955879827       -2.40159679036229
H            2.31474118827993        0.67897275469322       -1.61453912448339
H            1.36059279470810        2.94161431792594        2.34678762037281
H            2.56084767026614        1.63491371368549        2.52398253532927
H            4.12883189949931        2.87886795915477        1.00046421577892
H            2.93120568399158        4.18950427503089        0.84345691858485
H            3.69417605272062        3.86286820397687        2.41328099509393
H           -4.43194564341222        0.76342330209581       -2.04655462423350
H           -5.25019698388694       -0.82832495264227       -1.97034190631453
H           -3.57751345191535       -0.71643857714405       -2.60518390536767
H           -1.43755611800532       -1.76486777428951        2.02432511337725
H           -3.06090917951359       -2.26801770812077        1.44007968289417
H           -2.86519787934098       -1.62871183680406        3.09781348833498
38
 energy: -64.719097922898 gnorm: 0.024401420429 xtb: 6.7.1 (edcfbbe)
C            4.94796393634746       -3.42814205502697       -1.73441802880068
C            3.96271519668308       -2.87602997480578       -0.72868198948743
O            3.16281831875677       -1.85308402663031       -1.38441145211050
C            2.30061884473435       -1.17918410833557       -0.63535214123524
O            2.12777150910911       -1.38192943142523        0.54844014688370
C            1.59777260477090       -0.10812657637167       -1.43470033825059
C            0.38193534373097        0.46460745922268       -0.70866134789426
H            0.00263792917530        1.33312910954364       -1.25751385989129
C            0.72135745499117        0.94200326936134        0.69527260766868
O            0.13325541803256        0.64127034568430        1.70789328622427
O            1.72351188960368        1.80755751468760        0.62835954802779
C            2.19315014988120        2.42138568025246        1.86045666865319
C            3.29883706329310        3.39156012858745        1.50491208241288
S           -0.93378381318601       -0.81352281268452       -0.69345817059170
P           -2.57039393650795        0.24558708253118        0.12389689908374
S           -2.58731229318102        2.18548010726267       -0.09844195627478
O           -3.81684582337789       -0.54082708520693       -0.51812975665104
C           -4.27101436906010       -0.30301584282078       -1.86694146741785
O           -2.74008137060069       -0.19271702561985        1.65150008487284
C           -2.51080552934342       -1.55868653003439        2.06995317433084
H            5.59416297812717       -2.63733407473160       -2.10839821819746
H            5.56328510776117       -4.18781965600702       -1.25538090893492
H            4.42329943879187       -3.87842277298980       -2.57409763165092
H            4.46517906244289       -2.41082252784889        0.12365315512763
H            3.28259119295225       -3.64610444373281       -0.35561323070613
H            1.29960085914285       -0.51708571278173       -2.40216210323139
H            2.32001433615645        0.69265732092253       -1.61879655934338
H            1.34520571783304        2.92289446535553        2.33424405682375
H            2.54251926254868        1.62130566608323        2.51875431206344
H            4.11512955677626        2.87334338384465        1.00655641357490
H            2.92379199438879        4.17114614431504        0.84538472339846
H            3.68082092950087        3.85470097177227        2.41283331845461
H           -4.39880112594845        0.76715487263030       -2.03540363654929
H           -5.22809824034162       -0.81682518095752       -1.94425994475650
H           -3.55741706700170       -0.71714836382169       -2.57947316850168
H           -1.44136815074527       -1.76712202157887        2.02921111096222
H           -3.06434110752861       -2.24848786926710        1.43283750524090
H           -2.86977629696665       -1.60752630386139        3.09576115539171
38
 energy: -64.720990388981 gnorm: 0.011075390572 xtb: 6.7.1 (edcfbbe)
C            4.93895437909846       -3.42021616853706       -1.73042038903930
C            3.95251484484847       -2.86432272533416       -0.72187575445028
O            3.16177821990670       -1.84217491214334       -1.36600738680590
C            2.30728011699388       -1.15577758808912       -0.63549451758440
O            2.12841371147517       -1.33672642791631        0.54978517343582
C            1.60742872082949       -0.09643912380905       -1.45898736626351
C            0.38357777932128        0.46079633777917       -0.73994995046704
H           -0.02170784236512        1.31963398922389       -1.28505780716823
C            0.70248263192620        0.93661313543192        0.66589119929645
O            0.06861768241779        0.64107260219609        1.65404470229134
O            1.71671814390434        1.77767712153497        0.63111058915791
C            2.17398745672863        2.39628331200231        1.85478081875925
C            3.28267639725668        3.37319352381265        1.50541332529777
S           -0.91258584168115       -0.82976029948383       -0.69629436418623
P           -2.52950452894746        0.24124428714609        0.14012912444137
S           -2.53883428448757        2.17864737854326       -0.10957069601358
O           -3.78900353602341       -0.52110787318180       -0.50208810884993
C           -4.23749862418759       -0.29705379094818       -1.84615401844595
O           -2.70986007529840       -0.19334586254211        1.65667479413678
C           -2.50887270481534       -1.55327398930499        2.07741644657029
H            5.58056074859313       -2.62899654964310       -2.10172392258500
H            5.54779355987599       -4.17816731142218       -1.25195733515188
H            4.41020781812456       -3.86246649101284       -2.56682702957152
H            4.45889202463158       -2.40962867228093        0.13445314341451
H            3.27296167454150       -3.63589959876116       -0.34966766934190
H            1.31405531367172       -0.52547897383878       -2.41703582505624
H            2.32237259878642        0.70981191373208       -1.63529340400757
H            1.32335763038692        2.89967012619963        2.32390830036711
H            2.52160175789722        1.60267058035302        2.52235502531843
H            4.09807532232925        2.85566964621462        1.01259420763694
H            2.90608495063222        4.14548533814506        0.84339277726608
H            3.65237360218013        3.83417571485255        2.41391564423807
H           -4.35775854961695        0.77075163059153       -2.02523501003841
H           -5.19625100676474       -0.80502899862559       -1.91698825060120
H           -3.52708469055391       -0.71979267655952       -2.55335735543738
H           -1.44345971617985       -1.77897707986052        2.04551427107430
H           -3.06564855054478       -2.23224037689250        1.43546087709276
H           -2.87479016314884       -1.59070202205539        3.09877007998905
38
 energy: -64.721629549422 gnorm: 0.007460276131 xtb: 6.7.1 (edcfbbe)
C            4.93094242356058       -3.41329892021699       -1.72438518755028
C            3.94551775493593       -2.85630755701918       -0.71268812188216
O            3.16161885861902       -1.83649009651199       -1.35822707981570
C            2.31266669544645       -1.13763811666408       -0.63878721760042
O            2.13273615305359       -1.29447767875473        0.55172129487608
C            1.61156035184513       -0.08903218818102       -1.47894064602656
C            0.38064629748142        0.45517627345958       -0.76492367775276
H           -0.03761220578337        1.30723102354243       -1.31115342292719
C            0.68947042614126        0.93441261872205        0.64249351725920
O            0.01616504293160        0.65628973582124        1.61360308987067
O            1.71789692397149        1.75173631469514        0.62824332678361
C            2.15724379768784        2.37495733441060        1.85168030344074
C            3.26610714915532        3.35583874502972        1.50622846131332
S           -0.90237058740740       -0.84562044535948       -0.70732020410110
P           -2.49775088687260        0.24441923945705        0.15272731037326
S           -2.49432948965340        2.18120960302074       -0.10858280077811
O           -3.76712246581316       -0.50349000654208       -0.48647764804104
C           -4.21044395020791       -0.29266195876175       -1.83108218702251
O           -2.68501863048186       -0.18858314515536        1.66159821074879
C           -2.50663398674091       -1.54914923610188        2.08552487489512
H            5.57238417189986       -2.62104759626599       -2.09462370669090
H            5.53813594057966       -4.17282843020230       -1.24683252769852
H            4.39832157836903       -3.85222354563909       -2.56051438882435
H            4.45573783645554       -2.40829302533257        0.14589142636090
H            3.26644537358964       -3.62986213288733       -0.34160846497184
H            1.32797279604635       -0.53000236872663       -2.43355453143905
H            2.31928881815313        0.72276260604324       -1.65375701894284
H            1.30248617135621        2.87895047125315        2.31428531721794
H            2.50537473828489        1.58810988113666        2.52788931223402
H            4.08538559017981        2.83816004386808        1.01954558451633
H            2.88923029782165        4.12455099911111        0.83983748209417
H            3.62695308755617        3.81885695811055        2.41709525352966
H           -4.32499024355893        0.77437633364495       -2.02347400522274
H           -5.17203154829018       -0.79572390267284       -1.89982008491844
H           -3.50117164979495       -0.72544823190095       -2.53436270444733
H           -1.44402852596122       -1.79363473410329        2.06129444359577
H           -3.06792357171593       -2.22365761410943        1.44218092926025
H           -2.87895356109699       -1.58174812470109        3.10489982700301
38
 energy: -64.721801155405 gnorm: 0.004873357791 xtb: 6.7.1 (edcfbbe)
C            4.92722509768623       -3.41147719906586       -1.71799347595932
C            3.94243688378107       -2.85397178768149       -0.70597207810430
O            3.16107573179187       -1.83658970484170       -1.35824752183117
C            2.31765783261571       -1.12643490493706       -0.64334726535090
O            2.13797352247761       -1.26690846417395        0.55043274968343
C            1.61463169462338       -0.08542353953461       -1.49171906231029
C            0.38098839204975        0.45266180322055       -0.77991147611776
H           -0.04206522130901        1.30160634608544       -1.32711913309966
C            0.68666800490693        0.93656618331121        0.62767654589333
O           -0.00228638081579        0.67092837311554        1.59121246174554
O            1.72528464183655        1.73725510994190        0.62253675120565
C            2.15021890011281        2.36293345372640        1.84982499838009
C            3.25676212064592        3.34692903791275        1.50821140098968
S           -0.90253768559897       -0.84526617183127       -0.71396462322635
P           -2.48850139970710        0.24661644371148        0.16255713792922
S           -2.47241310236281        2.18201712013911       -0.10363272167486
O           -3.76363066361729       -0.49306046529403       -0.47608285573721
C           -4.19799968082137       -0.29040505502419       -1.82495225926841
O           -2.67999191332951       -0.18755930525696        1.66780363676244
C           -2.50852009010991       -1.54960310964590        2.09304625862648
H            5.57012611040498       -2.61915552137692       -2.08850708259204
H            5.53527808512525       -4.17265133277910       -1.24150231028970
H            4.39356647329076       -3.85032272820747       -2.55492410040301
H            4.45310193365836       -2.40562433192334        0.15234996215032
H            3.26295812990514       -3.62751530550529       -0.33475625419427
H            1.33916037796482       -0.53050367992858       -2.44673549651642
H            2.31788870289216        0.73007653128439       -1.66757594732976
H            1.28968046801275        2.86350236192004        2.30577131323569
H            2.49846626472692        1.57918708495566        2.52975842198981
H            4.08067185471084        2.83015113057239        1.02612384767128
H            2.88075582465938        4.11435286765871        0.83838234334804
H            3.61272472466051        3.81306509019981        2.42067579477210
H           -4.30741089030818        0.77634670720715       -2.02686829885325
H           -5.16168405650914       -0.78984045101033       -1.89663747268522
H           -3.48606886018132       -0.73123693065477       -2.52231644433778
H           -1.44688509883834       -1.80026926140723        2.07212966474400
H           -3.07094059719592       -2.22299872189570        1.44813779560441
H           -2.88445916009220       -1.58155854747057        3.11175913386930
38
 energy: -64.721849707773 gnorm: 0.002552760389 xtb: 6.7.1 (edcfbbe)
C            4.92653536884648       -3.41211779370290       -1.71308966431220
C            3.94115716835982       -2.85389964494680       -0.70306351030994
O            3.15792162899886       -1.83932436449088       -1.36096474741948
C            2.31798237938203       -1.12359910703243       -0.64671335910142
O            2.14176320557839       -1.25576184669221        0.54847033826789
C            1.61303615110419       -0.08579683391492       -1.49646432535335
C            0.37913824538489        0.45140995287920       -0.78548196117881
H           -0.04368795708311        1.30008569497946       -1.33329967912406
C            0.68766056502196        0.93716841361065        0.62180512864131
O           -0.00656195151270        0.68137877315931        1.58350221252069
O            1.73117012146034        1.72998838945160        0.61839171715532
C            2.14907648146270        2.35799774516982        1.84835280000690
C            3.25277958381446        3.34466876525091        1.51002787450240
S           -0.90437295635454       -0.84673411679650       -0.71651936034459
P           -2.48499771522572        0.25072872658682        0.16595886038682
S           -2.47293961266400        2.18651470360127       -0.09699238633783
O           -3.76202235856175       -0.48742161538364       -0.47205267892236
C           -4.19193971186676       -0.28906379668903       -1.82382318314292
O           -2.67851352382697       -0.18685423094491        1.66998379088530
C           -2.50839891262250       -1.55055352413902        2.09552299231420
H            5.57060061413691       -2.62035652219511       -2.08431235010982
H            5.53541436605039       -4.17349645116489       -1.23629136405368
H            4.39388206978923       -3.85258923192260       -2.55052320460178
H            4.44984578473646       -2.40157053888793        0.15410435384863
H            3.26185825515490       -3.62704118647914       -0.33089078492353
H            1.34207507659692       -0.53043315956371       -2.45311731127310
H            2.31402871583498        0.73201439452782       -1.67313520111405
H            1.28386951747245        2.85385955905810        2.30014121450206
H            2.49770020290802        1.57498760902787        2.52865322302606
H            4.07988775125624        2.82971173783066        1.03023447753534
H            2.87744696219386        4.11179444510466        0.83877646666840
H            3.60654755112087        3.81275713423212        2.42308426474108
H           -4.29997936756991        0.77712274727031       -2.02964015727248
H           -5.15596882369244       -0.78797898888966       -1.89778661578053
H           -3.47750283145298       -0.73298595536560       -2.51709629932919
H           -1.44717388114275       -1.80224646705903        2.07572539792115
H           -3.07130029776033       -2.22377358109379        1.45018390299562
H           -2.88611089358594       -1.58277070886972        3.11396346680505
38
 energy: -64.721865332509 gnorm: 0.001341971352 xtb: 6.7.1 (edcfbbe)
C            4.92698854229812       -3.41385223144314       -1.70942541625435
C            3.94019292665854       -2.85501831404998       -0.70197758315186
O            3.15420596790164       -1.84304436002077       -1.36342576774890
C            2.31723200100445       -1.12369510151933       -0.64909912743833
O            2.14411864211886       -1.25154772887762        0.54667223756999
C            1.61261022815590       -0.08659003400302       -1.49911785113080
C            0.37974887969647        0.45242706859780       -0.78835154071179
H           -0.04230677269856        1.30150043374371       -1.33609241478646
C            0.68867733576321        0.93880605962741        0.61894676825978
O           -0.00893034356765        0.68917253373029        1.57983133108248
O            1.73588401027169        1.72671502844297        0.61658131245730
C            2.15087986992202        2.35613656099010        1.84789767661359
C            3.25206624656417        3.34519562433196        1.51167131962479
S           -0.90640371560079       -0.84273242498781       -0.71607674065837
P           -2.48745899149799        0.25186416919621        0.16751921117941
S           -2.47418624177233        2.18791641320993       -0.09406435827412
O           -3.76556917310819       -0.48534094678913       -0.47078497050439
C           -4.19093884630720       -0.28850073272759       -1.82460961014870
O           -2.68085366682640       -0.18819552516475        1.67149748150037
C           -2.50814340492699       -1.55217357695134        2.09650967567871
H            5.57149359570500       -2.62267100957482       -2.08118054130776
H            5.53591440630948       -4.17444499839290       -1.23119818987514
H            4.39591723114373       -3.85597057528614       -2.54701555824976
H            4.44638480105007       -2.39805132009146        0.15396520026001
H            3.26145915808272       -3.62777736335808       -0.32850479068568
H            1.34269928138570       -0.53018253564698       -2.45669078441515
H            2.31367959453510        0.73153488487228       -1.67563472735348
H            1.28266663310127        2.84822746335278        2.29748738610618
H            2.49992065477744        1.57296884535906        2.52751443884835
H            4.08089787248302        2.83235241483749        1.03252261197114
H            2.87649152923458        4.11214297795219        0.84035505232416
H            3.60444397075164        3.81388475912658        2.42499533630406
H           -4.29813273923881        0.77729596616017       -2.03149808098115
H           -5.15458667661958       -0.78764058563963       -1.90111268784864
H           -3.47383077027393       -0.73334102440522       -2.51428776833594
H           -1.44675577856380       -1.80146419322226        2.07622856171720
H           -3.07049913689387       -2.22535920696300        1.45074242207254
H           -2.88607014927580       -1.58472828889988        3.11483482500975
38
 energy: -64.721870213475 gnorm: 0.001075846590 xtb: 6.7.1 (edcfbbe)
C            4.92730709912383       -3.41537450774020       -1.70665770405344
C            3.93847592397740       -2.85644400441590       -0.70165508612535
O            3.14946198438269       -1.84668259756780       -1.36464970435066
C            2.31556068573410       -1.12468790972465       -0.64959929423928
O            2.14516921384286       -1.25100680944880        0.54642140081898
C            1.61102488086373       -0.08749321060326       -1.49939272004206
C            0.37879807178813        0.45304098286852       -0.78828728855244
H           -0.04309325523413        1.30255638603490       -1.33569374579595
C            0.68830478610831        0.94046042390359        0.61842218278552
O           -0.00871834094669        0.69253635347537        1.57955955895666
O            1.73773903988900        1.72572170056488        0.61620524055441
C            2.15368180037072        2.35573123676992        1.84754767923862
C            3.25266696277721        3.34710850795704        1.51218265721445
S           -0.90747891638812       -0.84251666584221       -0.71678641068169
P           -2.48807962406130        0.25307485049680        0.16664755125075
S           -2.47898055921893        2.18945845055305       -0.09298639131902
O           -3.76646048181718       -0.48462271082080       -0.47157330823108
C           -4.19050118881530       -0.28785321780844       -1.82588110599396
O           -2.68113320840937       -0.18892464421181        1.67103875712990
C           -2.50634929097943       -1.55305501893413        2.09505182632735
H            5.57192438828931       -2.62457656217010       -2.07838618581114
H            5.53557778118052       -4.17473756717574       -1.22618098824976
H            4.39815280532573       -3.85893310404417       -2.54442486812563
H            4.44238405721052       -2.39549331475637        0.15341656892827
H            3.26102026786544       -3.62952281506931       -0.32701568836145
H            1.34023084528109       -0.53032648691953       -2.45713931228335
H            2.31308974782057        0.73014041166494       -1.67511050963931
H            1.28451129806181        2.84517757087305        2.29767580448636
H            2.50435173333175        1.57228678834833        2.52588606067045
H            4.08231929328592        2.83661263135815        1.03243656590312
H            2.87581371076773        4.11414249841602        0.84200805834316
H            3.60408342266387        3.81515006851862        2.42591025573720
H           -4.29891754381002        0.77760732934989       -2.03215069745092
H           -5.15317371533835       -0.78848505030959       -1.90349740454869
H           -3.47202992798354       -0.73149808116475       -2.51422221519068
H           -1.44469029084732       -1.80055059003904        2.07392680515946
H           -3.06835962971307       -2.22611328415259        1.44922237499455
H           -2.88377685463646       -1.58608891271784        3.11335561926570
38
 energy: -64.721871997871 gnorm: 0.000589065717 xtb: 6.7.1 (edcfbbe)
C            4.92697745180428       -3.41547069341016       -1.70596444346629
C            3.93734396923316       -2.85706617446374       -0.70120742403135
O            3.14786296334564       -1.84808906534610       -1.36418743844301
C            2.31484740068715       -1.12522533265299       -0.64933481102919
O            2.14532926351544       -1.25053478022557        0.54708140307639
C            1.61139252674412       -0.08731974692303       -1.49951010202042
C            0.37935715067723        0.45373861039433       -0.78843037974518
H           -0.04251849147714        1.30332431716078       -1.33571711717973
C            0.68889522243280        0.93981548665638        0.61847078967462
O           -0.01040004141039        0.69306607004586        1.57894319692486
O            1.73808411346601        1.72522972111707        0.61679575458181
C            2.15407828425397        2.35571149762704        1.84767499617668
C            3.25262132722439        3.34778351320234        1.51172146528732
S           -0.90711859151622       -0.84158609449834       -0.71695169984723
P           -2.48815984736657        0.25286063872812        0.16638189267133
S           -2.47821346660890        2.18912756744718       -0.09395970143897
O           -3.76662603176798       -0.48475316241768       -0.47186227616810
C           -4.19064365265288       -0.28768196093491       -1.82593786432700
O           -2.68094404501573       -0.18912816322121        1.67082133051665
C           -2.50570328075529       -1.55312012983902        2.09413646253021
H            5.57144659716337       -2.62440273716494       -2.07718428065321
H            5.53490566790851       -4.17459369696777       -1.22490004007147
H            4.39831693967489       -3.85901579879772       -2.54398940590329
H            4.44082530707358       -2.39593012052484        0.15409421519213
H            3.26059077577790       -3.63084492943902       -0.32671435504102
H            1.33965560424237       -0.53039667490389       -2.45674303490859
H            2.31429113346049        0.72952759329454       -1.67484574668087
H            1.28523086601481        2.84498920000456        2.29879344619190
H            2.50601473787774        1.57263374105626        2.52590938283628
H            4.08235401241946        2.83786588429538        1.03162693830511
H            2.87491447544458        4.11464141631139        0.84187998093002
H            3.60373839346477        3.81555437842309        2.42562134726443
H           -4.29978222732174        0.77785733103857       -2.03189004730153
H           -5.15301659344253       -0.78886835636072       -1.90373177430017
H           -3.47197848037124       -0.73052080412401       -2.51462745717253
H           -1.44390451493859       -1.80052538949784        2.07260624641438
H           -3.06755584811527       -2.22614029310087        1.44819799099039
H           -2.88260209940318       -1.58669373647248        3.11255689888365
38
 energy: -64.721872637762 gnorm: 0.000285011385 xtb: 6.7.1 (edcfbbe)
C            4.92651925189658       -3.41537215262513       -1.70549871286452
C            3.93644390774524       -2.85757579749305       -0.70063929144210
O            3.14738390008381       -1.84861828187052       -1.36358343896777
C            2.31513522057872       -1.12476289953839       -0.64888201947145
O            2.14531276601399       -1.24969500949102        0.54760354633935
C            1.61182176090769       -0.08695260133464       -1.49948395030161
C            0.37963029648316        0.45388893133509       -0.78839293990265
H           -0.04250647799515        1.30323205669583       -1.33581790762458
C            0.68849912156602        0.94036460355447        0.61847211709869
O           -0.01004203309593        0.69234308207199        1.57885677693329
O            1.73778602595257        1.72552005415636        0.61703699385981
C            2.15420814015018        2.35550182524356        1.84776966843147
C            3.25242909623996        3.34797079946228        1.51115364182339
S           -0.90681040983400       -0.84150704844295       -0.71713114001256
P           -2.48790047461561        0.25278523813766        0.16632194137634
S           -2.47749731437645        2.18894503646598       -0.09460831304810
O           -3.76619071389611       -0.48498642403114       -0.47202722260583
C           -4.19061546996283       -0.28759326923196       -1.82587015187776
O           -2.68089455693142       -0.18906072577833        1.67072144174333
C           -2.50549912233399       -1.55307342710797        2.09355413826098
H            5.57101344464636       -2.62397428378163       -2.07613116488349
H            5.53442408687091       -4.17471981857528       -1.22461110388943
H            4.39806666148278       -3.85856924092610       -2.54392889980337
H            4.43981521162992       -2.39703491401313        0.15510230150694
H            3.25990972848319       -3.63187703313776       -0.32670701929746
H            1.34019003007183       -0.53043091424917       -2.45652184020477
H            2.31481363063925        0.72972074973763       -1.67480152388964
H            1.28573852711793        2.84485101764757        2.29968498488560
H            2.50689792127958        1.57256201663498        2.52582711278249
H            4.08209248684150        2.83821485303517        1.03067704461497
H            2.87414117368153        4.11476244160371        0.84147514794938
H            3.60378143132027        3.81580666310404        2.42500813716971
H           -4.30040232489876        0.77807135902264       -2.03150551550650