38
 energy: -1981.480441078152 gnorm: 0.003001386187 xtb: 6.7.1 (edcfbbe)
C            5.16056627441249       -2.97193672696312       -1.02154600455112
C            4.65850933858657       -2.03279492801483        0.05134492409782
O            3.19408187224254       -2.00463712765412        0.06883364421043
C            2.58926809779035       -1.18814585639066       -0.80458661733593
O            3.17520439554659       -0.44476587782227       -1.57367422549363
C            1.08935209414533       -1.34625966323166       -0.75602439439945
C            0.38520973263982       -0.02252600390173       -1.02087089333646
H            0.73838806128492        0.40188847182272       -1.97043616408762
C            0.72399272890615        1.01201950179450        0.04456998948658
O            1.62480458732581        0.84659566399899        0.84567112086747
O           -0.02161312206296        2.10761623428052       -0.05794880408447
C            0.22150909143930        3.17767317420177        0.91717632618010
C            1.34607621454158        4.07386018610278        0.45577700065387
S           -1.42956502381759       -0.25101002548064       -1.33754877139666
P           -2.32913979603274       -0.19465875438711        0.58622121767499
S           -1.31101378706764       -0.93033713423576        2.06402887527292
O           -2.78825124258275        1.31001274840006        0.89866130859519
C           -3.46955257806455        2.12803690121707       -0.09755400594711
O           -3.74747020622235       -0.87094746090470        0.21964429228713
C           -3.86042321400924       -2.31525910325161        0.07621866875693
H            4.88122061923487       -2.62273665961504       -2.01936889344472
H            6.25230018737255       -3.02319131402705       -0.96778921815671
H            4.76153991502203       -3.97934849009307       -0.87090880493030
H            5.02790587396790       -1.01306308817120       -0.08321435751721
H            4.92469654103139       -2.38461306092480        1.04962667303664
H            0.77991088255934       -1.77336747171586        0.19872946546287
H            0.82769487270795       -2.05719964335457       -1.54802080017380
H           -0.73145771832779        3.70866494875901        0.95754795360338
H            0.42517681713051        2.71937518982932        1.88796182508806
H            1.11658772001397        4.51610451679440       -0.51734071612145
H            1.47159860695735        4.88424375410624        1.18047310862697
H            2.28933664301438        3.52589907782085        0.38714127606923
H           -4.36079028733742        1.61617160395724       -0.47014772353653
H           -2.78697932543855        2.36061757459687       -0.91908932575345
H           -3.75423379086981        3.04143729883475        0.42540849383098
H           -3.21379105223120       -2.67220248220438       -0.73022867581032
H           -4.90473612186494       -2.50178432058207       -0.17196685370148
H           -3.60116855842687       -2.80366405717247        1.01848531593623
38
 energy: -1981.480454158449 gnorm: 0.001451855918 xtb: 6.7.1 (edcfbbe)
C            5.16164514355635       -2.97129832154354       -1.02233790630457
C            4.65937664715685       -2.03393604698736        0.05114019782340
O            3.19424741073579       -2.00626044221635        0.06928648876685
C            2.58894675370008       -1.18930825069392       -0.80434538698372
O            3.17517556731035       -0.44667085229593       -1.57336183664710
C            1.08933276895660       -1.34695218305576       -0.75502742734980
C            0.38554952091989       -0.02298713496861       -1.02040873296636
H            0.73818226132518        0.40070626800628       -1.97038966515461
C            0.72486200091659        1.01276527779131        0.04326169713414
O            1.62621104160611        0.84881422373010        0.84420637986378
O           -0.02367514635873        2.10695169262367       -0.05780588711828
C            0.21939342117248        3.17754265337792        0.91690077206598
C            1.34479247286550        4.07244514179027        0.45587453718209
S           -1.42913125534646       -0.25132508570871       -1.33643302992155
P           -2.33065181833352       -0.19454348118124        0.58599376887660
S           -1.31075667350771       -0.92904638183825        2.06338523145709
O           -2.78774889676821        1.31069621385190        0.89885854018705
C           -3.46861302690330        2.12977007300530       -0.09709450919976
O           -3.74928952111877       -0.87014287998072        0.22095597938462
C           -3.86022216461611       -2.31453952267341        0.07589415394216
H            4.88194310643466       -2.62174501889613       -2.01983950496396
H            6.25360016718742       -3.02154155786085       -0.96888783981265
H            4.76395064913572       -3.97920545838984       -0.87263878009042
H            5.02755299897576       -1.01386580605905       -0.08237684746470
H            4.92545678623994       -2.38627264345059        1.04916757743767
H            0.77995838107399       -1.77351692570097        0.20013755884727
H            0.82754261447219       -2.05841634008671       -1.54660973660030
H           -0.73321201085603        3.70930144935349        0.95631456254657
H            0.42147480953004        2.71935424455933        1.88808931996620
H            1.11657073346185        4.51305677200108       -0.51855015267976
H            1.46907957055720        4.88419713195638        1.17951348834280
H            2.28842368257379        3.52451712235568        0.38931539981014
H           -4.35988509892417        1.61869222629711       -0.46934511170574
H           -2.78588764876000        2.36148403111773       -0.91811914306108
H           -3.75193976811104        3.04319456126203        0.42583999572453
H           -3.21226501572914       -2.67004821581447       -0.72999910064010
H           -4.90420722566524       -2.50271602804105       -0.17343292316745
H           -3.60103439475213       -2.80338289637479        1.01812635421763
38
 energy: -1981.480466156131 gnorm: 0.003068151025 xtb: 6.7.1 (edcfbbe)
C            5.16524515332388       -2.96858106172926       -1.02572454153674
C            4.66157671570024       -2.03746909174766        0.05029009940779
O            3.19420623975623       -2.01188753137622        0.07077832737119
C            2.58705629922737       -1.19308168396291       -0.80274239411290
O            3.17403481635212       -0.45220727720946       -1.57172616044981
C            1.08814453103913       -1.34930524644251       -0.75084147005121
C            0.38276700742001       -0.02595843845642       -1.01821775243825
H            0.73499504968770        0.39587072536683       -1.96909499006620
C            0.72163376389267        1.01177229015973        0.04262843630771
O            1.62821661208348        0.85434278633671        0.83935413376024
O           -0.03255660989161        2.10339467904724       -0.05668779784010
C            0.21199396109859        3.17664111294273        0.91514289385528
C            1.34058515537147        4.06708468608915        0.45574847361279
S           -1.43143240141719       -0.25366688509711       -1.33698207775135
P           -2.33026130246700       -0.19240251608268        0.58683178263508
S           -1.31217780445267       -0.92634073396153        2.06663924971646
O           -2.78401699569571        1.31399172074198        0.90013078962448
C           -3.46392660015944        2.13564908923171       -0.09555933471415
O           -3.74893242835778       -0.86604604556757        0.22344557924445
C           -3.85588937166107       -2.31084355417989        0.07407592990726
H            4.88435034199911       -2.61738390854184       -2.02211717137433
H            6.25783464333193       -3.01485631762558       -0.97330669705226
H            4.77260318981710       -3.97868379356069       -0.87959333075967
H            5.02601371147661       -1.01598180842906       -0.07905637588967
H            4.92773378882066       -2.39244246480140        1.04718040026849
H            0.77930538260129       -1.77430978667099        0.20543723694049
H            0.82594110166765       -2.06246413332139       -1.54093702546912
H           -0.73897948132574        3.71181357599725        0.94991823230634
H            0.40763231444701        2.71998970945983        1.88852392948968
H            1.11782788369931        4.50120783519379       -0.52345097012716
H            1.46015693877089        4.88418809827043        1.17473700890265
H            2.28512439445002        3.51908465380010        0.39800922211455
H           -4.35581813255860        1.62691953536564       -0.46683979157006
H           -2.78068612158621        2.36530667829757       -0.91550215430433
H           -3.74380742659203        3.04916427337329        0.42772664830990
H           -3.20328936002160       -2.66313021619363       -0.72913408850276
H           -4.89853859613089       -2.50234514970849       -0.18052728967100
H           -3.59990795098088       -2.80126662268307        1.01671000178003
38
 energy: -1981.480475105878 gnorm: 0.002085404446 xtb: 6.7.1 (edcfbbe)
C            5.16631635916600       -2.96737462465377       -1.02739175033193
C            4.66166214852757       -2.03836292425173        0.05017838015061
O            3.19416819442962       -2.01389770895210        0.07109090369566
C            2.58692886526356       -1.19468753852208       -0.80202875721780
O            3.17385795469067       -0.45407920086430       -1.57162882766887
C            1.08794726833855       -1.35039148435792       -0.74905131969235
C            0.38335043043375       -0.02691502463934       -1.01802417491732
H            0.73624187782629        0.39391910383625       -1.96918352789727
C            0.72179819862526        1.01168335186216        0.04195628703407
O            1.62944864782253        0.85596749557012        0.83762359036454
O           -0.03440338639226        2.10186429450738       -0.05663973380699
C            0.20944763400927        3.17591620445375        0.91441144491007
C            1.33924350951127        4.06528005467923        0.45571892602902
S           -1.43111441589788       -0.25470893951045       -1.33437234814331
P           -2.33158126249299       -0.19098451128943        0.58865241878146
S           -1.31121542111170       -0.92593209734506        2.06619073624396
O           -2.78487498846553        1.31549984456897        0.90143673494480
C           -3.46275215226707        2.13774480022957       -0.09515390790913
O           -3.74989658011375       -0.86537238260926        0.22519328275740
C           -3.85505310506155       -2.31017321007807        0.07367284349824
H            4.88487796377904       -2.61517216463453       -2.02333879932366
H            6.25895727769157       -3.01201416357442       -0.97523552733675
H            4.77540018633945       -3.97846143109131       -0.88261817631439
H            5.02537783949561       -1.01625905397068       -0.07750454727653
H            4.92832577615231       -2.39487913637106        1.04645110304554
H            0.77938563217863       -1.77416955793889        0.20777546045310
H            0.82476848786702       -2.06428452687166       -1.53814811779795
H           -0.74117465167654        3.71185899570564        0.94681716554110
H            0.40306776198944        2.72040890709207        1.88875800675500
H            1.11922203821235        4.49671883398871       -0.52514324357386
H            1.45659862187613        4.88440527432972        1.17258135041037
H            2.28399563689448        3.51753188015772        0.40218991129969
H           -4.35530063865614        1.63004861126049       -0.46708773056515
H           -2.77859342164030        2.36667687479428       -0.91497163975432
H           -3.74205449807150        3.05172154035023        0.42810959972935
H           -3.20009427814936       -2.66035575492748       -0.72866052590456
H           -4.89681639187884       -2.50181218404289       -0.18366221958055
H           -3.60070001385991       -2.80119138249626        1.01630686482303
38
 energy: -1981.480481999597 gnorm: 0.001243686587 xtb: 6.7.1 (edcfbbe)
C            5.16699338943616       -2.96571498014161       -1.02966182258402
C            4.66108676055983       -2.03890612297124        0.05017946686672
O            3.19403275672367       -2.01562435837513        0.07092747399219
C            2.58658365568752       -1.19639102403470       -0.80138792111663
O            3.17273472950893       -0.45526838335004       -1.57151688212604
C            1.08721762315182       -1.35168085817802       -0.74697530325674
C            0.38373484524392       -0.02801421043956       -1.01761108434959
H            0.73824008292443        0.39140227959884       -1.96889311841318
C            0.72271231471390        1.01167034498819        0.04137775286482
O            1.62906487405879        0.85574243650518        0.83811016634436
O           -0.03442022580324        2.10068862626231       -0.05721471409449
C            0.20723186924966        3.17530235263883        0.91344557959854
C            1.33833866477841        4.06400554441318        0.45578479072961
S           -1.43108077782697       -0.25387500785450       -1.33362493394514
P           -2.33115010154976       -0.19025577949557        0.58985450038331
S           -1.31094661597087       -0.92376956069654        2.06790919444323
O           -2.78514536280057        1.31595568095579        0.90220486007574
C           -3.46103963360785        2.13895648696000       -0.09493690441263
O           -3.74962065264005       -0.86518104566039        0.22677981109651
C           -3.85437021270379       -2.30979874217881        0.07354943998611
H            4.88479115381960       -2.61202894848479       -2.02496107768602
H            6.25953022162635       -3.00862113592761       -0.97763378170808
H            4.77749189984210       -3.97776341056722       -0.88635766709760
H            5.02437447123163       -1.01614811909898       -0.07553418300471
H            4.92831524415751       -2.39754806258278        1.04567430935294
H            0.77939127639527       -1.77371546295282        0.21069464386703
H            0.82265214230051       -2.06657322872681       -1.53462395487951
H           -0.74341032632671        3.71134712708209        0.94280973468715
H            0.39894863722433        2.72103231936283        1.88874213112001
H            1.12155806771345        4.49227412385609       -0.52685988281747
H            1.45277025182323        4.88523857540275        1.17030965737950
H            2.28324015196249        3.51660523336917        0.40742909015680
H           -4.35441640517935        1.63225424605897       -0.46785357944299
H           -2.77583821164970        2.36734549110371       -0.91478059624744
H           -3.74018498634228        3.05343712424439        0.42845032724967
H           -3.19701237680798       -2.65863637825706       -0.72756350059149
H           -4.89511507060523       -2.50034491730183       -0.18712914911849
H           -3.60251644479699       -2.80163115030808        1.01616119416872
38
 energy: -1981.480487120146 gnorm: 0.001339776520 xtb: 6.7.1 (edcfbbe)
C            5.16815635298785       -2.96261856240600       -1.03372296202228
C            4.66018241631979       -2.03991151700985        0.04984225911307
O            3.19411048374487       -2.01818457065262        0.07049929757195
C            2.58588070827787       -1.19912546490819       -0.79993282114599
O            3.17031920387776       -0.45672079084649       -1.57056481272010
C            1.08609077653739       -1.35389980836277       -0.74346479033570
C            0.38386138322737       -0.03017750037293       -1.01604961132041
H            0.73967057169570        0.38765032092283       -1.96764296731139
C            0.72183306253729        1.01017579741256        0.04321998207149
O            1.62854444075876        0.85517342818199        0.83976163190127
O           -0.03448244150407        2.09871445048145       -0.05775766303667
C            0.20441909450776        3.17486383422690        0.91125568653919
C            1.33768610740505        4.06264487862779        0.45609340706546
S           -1.43089765851199       -0.25511096037590       -1.33243200308443
P           -2.33022643778752       -0.18849224369315        0.59142308713260
S           -1.31004015322109       -0.92130450801229        2.06979901855680
O           -2.78574448518434        1.31717787311000        0.90281926192516
C           -3.45853611087713        2.14096498707019       -0.09504794866329
O           -3.74896880524658       -0.86457249946704        0.22890433573331
C           -3.85339688102608       -2.30899241886199        0.07322230187061
H            4.88445920229301       -2.60621408837360       -2.02766688809546
H            6.26065715868746       -3.00306432639961       -0.98207044091960
H            4.78051510574447       -3.97584386883787       -0.89312776069534
H            5.02297776220835       -1.01638314306931       -0.07242532816683
H            4.92841093651000       -2.40206557759233        1.04386925336850
H            0.77976759741586       -1.77318536872216        0.21580232467061
H            0.81966914554144       -2.07058051020394       -1.52878770094449
H           -0.74608853184912        3.71123812923500        0.93616558464396
H            0.39285563266669        2.72252644087552        1.88808904609520
H            1.12611951694533        4.48548276382076       -0.52982065360453
H            1.44703403230519        4.88744596450077        1.16706829622411
H            2.28299239539513        3.51558192610246        0.41634045446697
H           -4.35247508837765        1.63572619782249       -0.46965156662043
H           -2.77192071189594        2.36827014813347       -0.91438509014896
H           -3.73749485749754        3.05617169878428        0.42764668575971
H           -3.19216841679460       -2.65712128884162       -0.72509580127478
H           -4.89267843384767       -2.49837554236355       -0.19316703250836
H           -3.60631690344861       -2.80209675586949        1.01627354889544
38
 energy: -1981.480490804174 gnorm: 0.000894629262 xtb: 6.7.1 (edcfbbe)
C            5.16946478765548       -2.95979468151563       -1.03747467137939
C            4.66061485315767       -2.04140148925823        0.04911560883217
O            3.19458311023330       -2.02104432412987        0.07058863195096
C            2.58508127708909       -1.20121464274328       -0.79813429389873
O            3.16859808683323       -0.45841867273436       -1.56891801573158
C            1.08539828802969       -1.35570637410759       -0.73988581341267
C            0.38325883855777       -0.03232767805089       -1.01411766643678
H            0.73932112219759        0.38432276800063       -1.96604931235868
C            0.72170923219187        1.00950985249064        0.04357092614334
O            1.62847887272446        0.85559371335477        0.84043858840820
O           -0.03530529826339        2.09747215325514       -0.05849263126668
C            0.20174728257122        3.17478171418415        0.90954328804034
C            1.33688069881178        4.06116349240506        0.45650659086488
S           -1.43152256700049       -0.25604528306515       -1.33088804672439
P           -2.33056762284280       -0.18785142941970        0.59263662920666
S           -1.31054040427867       -0.91954397943226        2.07190115306021
O           -2.78557410285046        1.31820960230928        0.90283474376489
C           -3.45603156062581        2.14290072048901       -0.09569963255239
O           -3.74957841468387       -0.86359254180973        0.23058128811821
C           -3.85288950820456       -2.30785283307074        0.07287208293040
H            4.88455332659797       -2.60086992659022       -2.03007945613889
H            6.26213068385711       -2.99822671298234       -0.98652988242798
H            4.78392110868808       -3.97413817702494       -0.89989227497555
H            5.02216641785278       -1.01711156631973       -0.06965574423099
H            4.92938647830789       -2.40659471755452        1.04181022022601
H            0.78005092238682       -1.77298454121435        0.22066454088051
H            0.81801047125398       -2.07403066863841       -1.52338554605096
H           -0.74838594944671        3.71200967703905        0.93075024369082
H            0.38651715211124        2.72373330468090        1.88774292763455
H            1.13027931835146        4.47925630003328       -0.53273061309947
H            1.44146517009381        4.88947740542339        1.16434839120498
H            2.28300099834956        3.51468106686959        0.42436755260792
H           -4.35018863777353        1.63914911183512       -0.47098605407652
H           -2.76837060938645        2.36899727773631       -0.91410222956018
H           -3.73388059399089        3.05848039664626        0.42649583481662
H           -3.18767021474520       -2.65552095491495       -0.72233774817567
H           -4.89091355581009       -2.49772963161801       -0.19888021378433
H           -3.61041130915088       -2.80196940734852        1.01676001544299
38
 energy: -1981.480490804174 gnorm: 0.000894629262 xtb: 6.7.1 (edcfbbe)
C            5.16946478765548       -2.95979468151563       -1.03747467137939
C            4.66061485315767       -2.04140148925823        0.04911560883217
O            3.19458311023330       -2.02104432412987        0.07058863195096
C            2.58508127708909       -1.20121464274328       -0.79813429389873
O            3.16859808683323       -0.45841867273436       -1.56891801573158
C            1.08539828802969       -1.35570637410759       -0.73988581341267
C            0.38325883855777       -0.03232767805089       -1.01411766643678
H            0.73932112219759        0.38432276800063       -1.96604931235868
C            0.72170923219187        1.00950985249064        0.04357092614334
O            1.62847887272446        0.85559371335477        0.84043858840820
O           -0.03530529826339        2.09747215325514       -0.05849263126668
C            0.20174728257122        3.17478171418415        0.90954328804034
C            1.33688069881178        4.06116349240506        0.45650659086488
S           -1.43152256700049       -0.25604528306515       -1.33088804672439
P           -2.33056762284280       -0.18785142941970        0.59263662920666
S           -1.31054040427867       -0.91954397943226        2.07190115306021
O           -2.78557410285046        1.31820960230928        0.90283474376489
C           -3.45603156062581        2.14290072048901       -0.09569963255239
O           -3.74957841468387       -0.86359254180973        0.23058128811821
C           -3.85288950820456       -2.30785283307074        0.07287208293040
H            4.88455332659797       -2.60086992659022       -2.03007945613889
H            6.26213068385711       -2.99822671298234       -0.98652988242798
H            4.78392110868808       -3.97413817702494       -0.89989227497555
H            5.02216641785278       -1.01711156631973       -0.06965574423099
H            4.92938647830789       -2.40659471755452        1.04181022022601
H            0.78005092238682       -1.77298454121435        0.22066454088051
H            0.81801047125398       -2.07403066863841       -1.52338554605096
H           -0.74838594944671        3.71200967703905        0.93075024369082
H            0.38651715211124        2.72373330468090        1.88774292763455
H            1.13027931835146        4.47925630003328       -0.53273061309947
H            1.44146517009381        4.88947740542339        1.16434839120498
H            2.28300099834956        3.51468106686959        0.42436755260792
H           -4.35018863777353        1.63914911183512       -0.47098605407652
H           -2.76837060938645        2.36899727773631       -0.91410222956018
H           -3.73388059399089        3.05848039664626        0.42649583481662
H           -3.18767021474520       -2.65552095491495       -0.72233774817567
H           -4.89091355581009       -2.49772963161801       -0.19888021378433
H           -3.61041130915088       -2.80196940734852        1.01676001544299
