      -----------------------------------------------------------      
     |                   =====================                   |     
     |                           x T B                           |     
     |                   =====================                   |     
     |                         S. Grimme                         |     
     |          Mulliken Center for Theoretical Chemistry        |     
     |                    University of Bonn                     |     
      -----------------------------------------------------------      

   * xtb version 6.7.1 (edcfbbe) compiled by 'albert@albert-system' on 2024-07-22

   xtb is free software: you can redistribute it and/or modify it under
   the terms of the GNU Lesser General Public License as published by
   the Free Software Foundation, either version 3 of the License, or
   (at your option) any later version.
   
   xtb is distributed in the hope that it will be useful,
   but WITHOUT ANY WARRANTY; without even the implied warranty of
   MERCHANTABILITY or FITNESS FOR A PARTICULAR PURPOSE.  See the
   GNU Lesser General Public License for more details.
   
   Cite this work as:
   * C. Bannwarth, E. Caldeweyher, S. Ehlert, A. Hansen, P. Pracht,
     J. Seibert, S. Spicher, S. Grimme, WIREs Comput. Mol. Sci., 2020, 11,
     e01493. DOI: 10.1002/wcms.1493
   
   for GFN2-xTB:
   * C. Bannwarth, S. Ehlert and S. Grimme., J. Chem. Theory Comput., 2019,
     15, 1652-1671. DOI: 10.1021/acs.jctc.8b01176
   for GFN1-xTB:
   * S. Grimme, C. Bannwarth, P. Shushkov, J. Chem. Theory Comput., 2017,
     13, 1989-2009. DOI: 10.1021/acs.jctc.7b00118
   for GFN0-xTB:
   * P. Pracht, E. Caldeweyher, S. Ehlert, S. Grimme, ChemRxiv, 2019, preprint.
     DOI: 10.26434/chemrxiv.8326202.v1
   for GFN-FF:
   * S. Spicher and S. Grimme, Angew. Chem. Int. Ed., 2020, 59, 15665-15673.
     DOI: 10.1002/anie.202004239
   
   for ALPB and GBSA implicit solvation:
   * S. Ehlert, M. Stahn, S. Spicher, S. Grimme, J. Chem. Theory Comput.,
     2021, 17, 4250-4261. DOI: 10.1021/acs.jctc.1c00471
   
   for ddCOSMO and CPCM-X implicit solvation:
   * M. Stahn, S. Ehlert, S. Grimme, J. Phys. Chem. A,
     2023, XX, XXXX-XXXX. DOI: 10.1021/acs.jpca.3c04382
   
   for DFT-D4:
   * E. Caldeweyher, C. Bannwarth and S. Grimme, J. Chem. Phys., 2017,
     147, 034112. DOI: 10.1063/1.4993215
   * E. Caldeweyher, S. Ehlert, A. Hansen, H. Neugebauer, S. Spicher,
     C. Bannwarth and S. Grimme, J. Chem. Phys., 2019, 150, 154122.
     DOI: 10.1063/1.5090222
   * E. Caldeweyher, J.-M. Mewes, S. Ehlert and S. Grimme, Phys. Chem. Chem. Phys.
     2020, 22, 8499-8512. DOI: 10.1039/D0CP00502A
   
   for sTDA-xTB:
   * S. Grimme and C. Bannwarth, J. Chem. Phys., 2016, 145, 054103.
     DOI: 10.1063/1.4959605
   
   in the mass-spec context:
   * V. Asgeirsson, C. Bauer and S. Grimme, Chem. Sci., 2017, 8, 4879.
     DOI: 10.1039/c7sc00601b
   * J. Koopman and S. Grimme, ACS Omega 2019, 4, 12, 15120-15133.
     DOI: 10.1021/acsomega.9b02011
   
   for metadynamics refer to:
   * S. Grimme, J. Chem. Theory Comput., 2019, 155, 2847-2862
     DOI: 10.1021/acs.jctc.9b00143
   
   for SPH calculations refer to:
   * S. Spicher and S. Grimme, J. Chem. Theory Comput., 2021, 17, 1701-1714
     DOI: 10.1021/acs.jctc.0c01306
   
   for ONIOM refer to:
   * C. Plett, A. Katbashev, S. Ehlert, S. Grimme, M. Bursch,
     Phys. Chem. Chem. Phys., 2023, 25, 17860-17868. DOI: 10.1039/D3CP02178E
   
   for DIPRO refer to:
   * J. Kohn, N. Gildemeister, S. Grimme, D. Fazzi, A. Hansen,
     J. Chem. Phys., 2023, just accepted.
   
   for PTB refer to:
   * S. Grimme, M. Mueller, A. Hansen, J. Chem. Phys., 2023, 158, 124111.
     DOI: 10.1063/5.0137838
   
   with help from (in alphabetical order)
   P. Atkinson, C. Bannwarth, F. Bohle, G. Brandenburg, E. Caldeweyher
   M. Checinski, S. Dohm, S. Ehlert, S. Ehrlich, I. Gerasimov, C. Hölzer
   A. Katbashev, J. Kohn, J. Koopman, C. Lavigne, S. Lehtola, F. März, M. Müller,
   F. Musil, H. Neugebauer, J. Pisarek, C. Plett, P. Pracht, F. Pultar,
   J. Seibert, P. Shushkov, S. Spicher, M. Stahn, M. Steiner, T. Strunk,
   J. Stückrath, T. Rose, and J. Unsleber
   
 * started run on 2025/04/10 at 17:25:27.339     
   ID    Z sym.   atoms
    1    6 C      1, 2, 7, 8, 10, 15, 16, 18, 19
    2    8 O      3, 6, 14, 17
    3   15 P      4, 12
    4   16 S      5, 9, 11, 13
    5    1 H      20-41

           -------------------------------------------------
          |                Calculation Setup                |
           -------------------------------------------------

          program call               : /srv/scratch/z5358697/.xtb/bin/xtb xtb_opt.coord --opt normal --orca -I xtb_opt-xcontrol-inp
          hostname                   : k163
          coordinate file            : xtb_opt.coord
          omp threads                :                    24

           -------------------------------------------------
          |                   Orca driver                   |
           -------------------------------------------------
orca executable           : /apps/z_install_tree/linux-rocky8-ivybridge/gcc-12.2.0/orca-6.0.0-srtngmq3qlimg2qxbl6avaaiffipurdx/bin/orca
orca input file           : xtb_opt.inp
orca input line           : 
orca parallel             : true
orca number of threads    : 24
                         * ORCA takes the control...
  ------------------------------------------------------------------------

                                 *****************
                                 * O   R   C   A *
                                 *****************

                                            #,                                       
                                            ###                                      
                                            ####                                     
                                            #####                                    
                                            ######                                   
                                           ########,                                 
                                     ,,################,,,,,                         
                               ,,#################################,,                 
                          ,,##########################################,,             
                       ,#########################################, ''#####,          
                    ,#############################################,,   '####,        
                  ,##################################################,,,,####,       
                ,###########''''           ''''###############################       
              ,#####''   ,,,,##########,,,,          '''####'''          '####       
            ,##' ,,,,###########################,,,                        '##       
           ' ,,###''''                  '''############,,,                           
         ,,##''                                '''############,,,,        ,,,,,,###''
      ,#''                                            '''#######################'''  
     '                                                          ''''####''''         
             ,#######,   #######,   ,#######,      ##                                
            ,#'     '#,  ##    ##  ,#'     '#,    #''#        ,####,   ,####,        
            ##       ##  ##   ,#'  ##            #'  '#       #'       #'  '#        
            ##       ##  #######   ##           ,######,      #####,   #    #        
            '#,     ,#'  ##    ##  '#,     ,#' ,#      #,     #,   #   #,  ,#        
             '#######'   ##     ##  '#######'  #'      '#     '####' # '####'        



                #########################################################
                #                        -***-                          #
                #          Department of theory and spectroscopy        #
                #                                                       #
                #                      Frank Neese                      #
                #                                                       #
                #     Directorship, Architecture, Infrastructure        #
                #                    SHARK, DRIVERS                     #
                #        Core code/Algorithms in most modules           #
                #                                                       #
                #        Max Planck Institute fuer Kohlenforschung      #
                #                Kaiser Wilhelm Platz 1                 #
                #                 D-45470 Muelheim/Ruhr                 #
                #                      Germany                          #
                #                                                       #
                #                  All rights reserved                  #
                #                        -***-                          #
                #########################################################


                         Program Version 6.0.0  -   RELEASE  -


 With contributions from (in alphabetic order):
   Daniel Aravena         : Magnetic Suceptibility
   Michael Atanasov       : Ab Initio Ligand Field Theory (pilot matlab implementation)
   Alexander A. Auer      : GIAO ZORA, VPT2 properties, NMR spectrum
   Ute Becker             : All parallelization in ORCA, NUMFREQ, NUMCALC
   Giovanni Bistoni       : ED, misc. LED, open-shell LED, HFLD
   Martin Brehm           : Molecular dynamics
   Dmytro Bykov           : pre 5.0 version of the SCF Hessian
   Marcos Casanova-Páez   : Triplet and SCS-CIS(D). UHF-(DLPNO)-IP/EA/STEOM-CCSD. UHF-CVS-IP/STEOM-CCSD
   Vijay G. Chilkuri      : MRCI spin determinant printing, contributions to CSF-ICE
   Pauline Colinet        : FMM embedding
   Dipayan Datta          : RHF DLPNO-CCSD density
   Achintya Kumar Dutta   : EOM-CC, STEOM-CC
   Nicolas Foglia         : Exact transition moments, OPA infrastructure, MCD improvements
   Dmitry Ganyushin       : Spin-Orbit,Spin-Spin,Magnetic field MRCI
   Miquel Garcia          : C-PCM and meta-GGA Hessian, CCSD/C-PCM, Gaussian charge scheme
   Tiago L. C. Gouveia    : GS-ROHF, GS-ROCIS
   Yang Guo               : DLPNO-NEVPT2, F12-NEVPT2, CIM, IAO-localization
   Andreas Hansen         : Spin unrestricted coupled pair/coupled cluster methods
   Ingolf Harden          : AUTO-CI MPn and infrastructure 
   Benjamin Helmich-Paris : MC-RPA, TRAH-(SCF,CASSCF), AVAS, COSX integrals, SCF dyn. polar.
   Lee Huntington         : MR-EOM, pCC
   Robert Izsak           : Overlap fitted RIJCOSX, COSX-SCS-MP3, EOM
   Riya Kayal             : Wick's Theorem for AUTO-CI, AUTO-CI UHF-CCSDT
   Emily Kempfer          : AUTO-CI, RHF CISDT and CCSDT
   Christian Kollmar      : KDIIS, OOCD, Brueckner-CCSD(T), CCSD density, CASPT2, CASPT2-K, improved NEVPT2
   Axel Koslowski         : Symmetry handling
   Simone Kossmann        : Meta GGA functionals, TD-DFT gradient, OOMP2, (MP2 Hessian; deprecated post 5.0)
   Lucas Lang             : DCDCAS
   Marvin Lechner         : AUTO-CI (C++ implementation), FIC-MRCC
   Spencer Leger          : CASSCF response
   Dagmar Lenk            : GEPOL surface, SMD, ORCA-2-JSON
   Dimitrios Liakos       : Extrapolation schemes; Compound Job, initial MDCI parallelization
   Dimitrios Manganas     : Further ROCIS development; embedding schemes. LFT, Crystal Embedding
   Dimitrios Pantazis     : SARC Basis sets
   Anastasios Papadopoulos: AUTO-CI, single reference methods and gradients
   Taras Petrenko         : pre 6.0 DFT Hessian and TD-DFT gradient, (ASA, deprecated), ECA, 1-Electron XAS/XES, NRVS
   Peter Pinski           : DLPNO-MP2, DLPNO-MP2 Gradient
   Christoph Reimann      : Effective Core Potentials
   Marius Retegan         : Local ZFS, SOC
   Christoph Riplinger    : Optimizer, TS searches, QM/MM, DLPNO-CCSD(T), (RO)-DLPNO pert. Triples
   Michael Roemelt        : Original ROCIS implementation
   Masaaki Saitow         : Open-shell DLPNO-CCSD energy and density
   Barbara Sandhoefer     : DKH picture change effects
   Kantharuban Sivalingam : CASSCF convergence/infrastructure, NEVPT2 and variants, FIC-MRCI
   Bernardo de Souza      : ESD, SOC TD-DFT
   Georgi Stoychev        : AutoAux, RI-MP2 NMR, DLPNO-MP2 response, X2C
   Van Anh Tran           : RI-MP2 g-tensors
   Willem Van den Heuvel  : Paramagnetic NMR
   Zikuan Wang            : NOTCH, Electric field optimization 
   Frank Wennmohs         : Technical directorship and infrastructure
   Hang Xu                : AUTO-CI-Response properties 


 We gratefully acknowledge several colleagues who have allowed us to
 interface, adapt or use parts of their codes:
   Stefan Grimme, W. Hujo, H. Kruse, P. Pracht,  : VdW corrections, initial TS optimization,
                  C. Bannwarth, S. Ehlert,         DFT functionals, gCP, sTDA/sTD-DF
                  L. Wittmann, M. Mueller
   Ed Valeev, F. Pavosevic, A. Kumar             : LibInt (2-el integral package), F12 methods
   Garnet Chan, S. Sharma, J. Yang, R. Olivares  : DMRG
   Ulf Ekstrom                                   : XCFun DFT Library
   Mihaly Kallay                                 : mrcc  (arbitrary order and MRCC methods)
   Frank Weinhold                                : gennbo (NPA and NBO analysis)
   Simon Mueller                                 : openCOSMO-RS
   Christopher J. Cramer and Donald G. Truhlar   : smd solvation model
   Lars Goerigk                                  : TD-DFT with DH, B97 family of functionals
   V. Asgeirsson, H. Jonsson                     : NEB implementation
   FAccTs GmbH                                   : IRC, NEB, NEB-TS, DLPNO-Multilevel, CI-OPT
                                                   MM, QMMM, 2- and 3-layer-ONIOM, Crystal-QMMM,
                                                   LR-CPCM, SF, NACMEs, symmetry and pop. for TD-DFT,
                                                   nearIR, NL-DFT gradient (VV10), updates on ESD,
                                                   ML-optimized integration grids, MBIS, APM,
                                                   GOAT, DOCKER, SOLVATOR, interface openCOSMO-RS
   S Lehtola, MJT Oliveira, MAL Marques          : LibXC Library
   Liviu Ungur et al                             : ANISO software


 Your calculation uses the libint2 library for the computation of 2-el integrals
 For citations please refer to: http://libint.valeyev.net

 Your ORCA version has been built with support for libXC version: 6.2.2
 For citations please refer to: https://libxc.gitlab.io

 This ORCA versions uses:
   CBLAS   interface :  Fast vector & matrix operations
   LAPACKE interface :  Fast linear algebra routines
   SCALAPACK package :  Parallel linear algebra routines
   Shared memory     :  Shared parallel matrices
   BLAS/LAPACK       :  OpenBLAS 0.3.27  USE64BITINT DYNAMIC_ARCH NO_AFFINITY SapphireRapids SINGLE_THREADED
        Core in use  :  SapphireRapids
   Copyright (c) 2011-2014, The OpenBLAS Project




***************************************
The coordinates will be read from file: xtb_opt.xyz
***************************************


Your calculation utilizes the geometrical counterpoise correction gCP
Please cite in your paper:
H.Kruse, S. Grimme J.Chem.Phys., 136, (2012), 154101 
   

Your calculation utilizes the atom-pairwise dispersion correction
based on EEQ partial charges (D4)


Your calculation utilizes the SMD solvation module
Please cite in your paper:
A.V. Marenich, C.J. Cramer, D.G. Truhlar J. Phys. Chem. B, 113, (2009), 6378 

================================================================================

----- Orbital basis set information -----
Your calculation utilizes the basis: def2-mTZVPP
   Stefan Grimme, Andreas Hansen, Sebastian Ehlert, and Jan-Michael Mewes 
   J. Chem. Phys. 154, 064103 (2021). DOI: 10.1063/5.0040021

----- AuxJ basis set information -----
Your calculation utilizes the auxiliary basis: def2/J
   F. Weigend, Phys. Chem. Chem. Phys. 8, 1057 (2006).

================================================================================
                                        WARNINGS
                       Please study these warnings very carefully!
================================================================================

WARNING: Old DensityContainer found on disk!
         Will remove this file - 
         If you want to keep old densities, please start your calculation with a different basename. 

Using LibXC functional ID 497 : Re-regularized SCAN exchange by Furness et al
[ 1]  J. W. Furness, A. D. Kaplan, J. Ning, J. P. Perdew, and J. Sun.,  J. Phys. Chem. Lett. 11, 8208-8215 (2020)
[ 2]  J. W. Furness, A. D. Kaplan, J. Ning, J. P. Perdew, and J. Sun.,  J. Phys. Chem. Lett. 11, 9248-9248 (2020)
Using LibXC functional ID 498 : Re-regularized SCAN correlation by Furness et al
[ 1]  J. W. Furness, A. D. Kaplan, J. Ning, J. P. Perdew, and J. Sun.,  J. Phys. Chem. Lett. 11, 8208-8215 (2020)
[ 2]  J. W. Furness, A. D. Kaplan, J. Ning, J. P. Perdew, and J. Sun.,  J. Phys. Chem. Lett. 11, 9248-9248 (2020)
Using LibXC functional ID 497 : Re-regularized SCAN exchange by Furness et al
[ 1]  J. W. Furness, A. D. Kaplan, J. Ning, J. P. Perdew, and J. Sun.,  J. Phys. Chem. Lett. 11, 8208-8215 (2020)
[ 2]  J. W. Furness, A. D. Kaplan, J. Ning, J. P. Perdew, and J. Sun.,  J. Phys. Chem. Lett. 11, 9248-9248 (2020)
Using LibXC functional ID 498 : Re-regularized SCAN correlation by Furness et al
[ 1]  J. W. Furness, A. D. Kaplan, J. Ning, J. P. Perdew, and J. Sun.,  J. Phys. Chem. Lett. 11, 8208-8215 (2020)
[ 2]  J. W. Furness, A. D. Kaplan, J. Ning, J. P. Perdew, and J. Sun.,  J. Phys. Chem. Lett. 11, 9248-9248 (2020)

================================================================================
                                       INPUT FILE
================================================================================
NAME = xtb_opt.inp
|  1> ! r2scan-3c def2/J RI DEFGRID2 scfconv7 ENGRAD tightSCF miniprint
|  2> %cpcm
|  3>     smd true
|  4>     smdsolvent "water"
|  5> end
|  6> * xyzfile 0 1 xtb_opt.xyz
|  7> 
|  8>                          ****END OF INPUT****
================================================================================

                     *******************************
                     * Energy+Gradient Calculation *
                     *******************************

---------------------------------
CARTESIAN COORDINATES (ANGSTROEM)
---------------------------------
  C      5.243034   -1.842216   -2.022836
  C      4.403479   -0.680968   -1.555606
  O      3.454545   -1.204162   -0.564543
  P      2.384463   -0.223534    0.139109
  S      3.040970    1.485374    0.801126
  O      1.734366   -1.222582    1.215231
  C      2.230679   -1.301319    2.599244
  C      3.560538   -2.008918    2.679202
  S      0.878069   -0.132306   -1.350323
  C     -0.009212    1.397994   -0.860515
  S     -1.003007    1.334460    0.677122
  P     -2.795169    0.353917    0.049180
  S     -3.065112    0.309202   -1.878554
  O     -3.927173    1.069650    0.938524
  C     -4.751806    2.170775    0.424286
  C     -4.006455    3.482249    0.393343
  O     -2.821881   -1.036680    0.858115
  C     -1.731490   -2.016867    0.776236
  C     -1.913287   -2.968027   -0.380886
  H      4.624959   -2.607636   -2.500375
  H      5.971206   -1.479239   -2.754189
  H      5.787228   -2.290074   -1.186590
  H      3.836740   -0.233467   -2.379816
  H      5.009500    0.091999   -1.072771
  H      2.278561   -0.285773    3.003652
  H      1.444970   -1.854801    3.117184
  H      3.836206   -2.114260    3.733850
  H      3.501509   -3.007066    2.235471
  H      4.349855   -1.440980    2.177820
  H     -0.659952    1.646513   -1.703950
  H      0.719806    2.199283   -0.707826
  H     -5.125360    1.888741   -0.564611
  H     -5.589660    2.203853    1.123476
  H     -3.592776    3.723846    1.376596
  H     -3.197350    3.471759   -0.342094
  H     -4.711689    4.271293    0.112590
  H     -0.777910   -1.482833    0.719776
  H     -1.778501   -2.538689    1.734653
  H     -1.844798   -2.451407   -1.341405
  H     -1.117264   -3.719184   -0.336927
  H     -2.876469   -3.482782   -0.318931

----------------------------
CARTESIAN COORDINATES (A.U.)
----------------------------
  NO LB      ZA    FRAG     MASS         X           Y           Z
   0 C     6.0000    0    12.011    9.907898   -3.481285   -3.822606
   1 C     6.0000    0    12.011    8.321370   -1.286842   -2.939668
   2 O     8.0000    0    15.999    6.528143   -2.275536   -1.066832
   3 P    15.0000    0    30.974    4.505983   -0.422419    0.262878
   4 S    16.0000    0    32.060    5.746600    2.806951    1.513909
   5 O     8.0000    0    15.999    3.277477   -2.310346    2.296453
   6 C     6.0000    0    12.011    4.215372   -2.459136    4.911859
   7 C     6.0000    0    12.011    6.728442   -3.796304    5.062958
   8 S    16.0000    0    32.060    1.659309   -0.250023   -2.551740
   9 C     6.0000    0    12.011   -0.017407    2.641826   -1.626137
  10 S    16.0000    0    32.060   -1.895408    2.521763    1.279575
  11 P    15.0000    0    30.974   -5.282105    0.668807    0.092937
  12 S    16.0000    0    32.060   -5.792222    0.584307   -3.549952
  13 O     8.0000    0    15.999   -7.421281    2.021346    1.773553
  14 C     6.0000    0    12.011   -8.979612    4.102171    0.801785
  15 C     6.0000    0    12.011   -7.571102    6.580497    0.743310
  16 O     8.0000    0    15.999   -5.332582   -1.959042    1.621603
  17 C     6.0000    0    12.011   -3.272042   -3.811325    1.466874
  18 C     6.0000    0    12.011   -3.615589   -5.608758   -0.719770
  19 H     1.0000    0     1.008    8.739906   -4.927718   -4.725024
  20 H     1.0000    0     1.008   11.283945   -2.795356   -5.204664
  21 H     1.0000    0     1.008   10.936276   -4.327613   -2.242331
  22 H     1.0000    0     1.008    7.250388   -0.441189   -4.497200
  23 H     1.0000    0     1.008    9.466583    0.173853   -2.027244
  24 H     1.0000    0     1.008    4.305857   -0.540033    5.676080
  25 H     1.0000    0     1.008    2.730597   -3.505067    5.890624
  26 H     1.0000    0     1.008    7.249379   -3.995372    7.055953
  27 H     1.0000    0     1.008    6.616893   -5.682531    4.224427
  28 H     1.0000    0     1.008    8.220034   -2.723057    4.115483
  29 H     1.0000    0     1.008   -1.247129    3.111459   -3.219999
  30 H     1.0000    0     1.008    1.360237    4.156042   -1.337598
  31 H     1.0000    0     1.008   -9.685527    3.569202   -1.066961
  32 H     1.0000    0     1.008  -10.562926    4.164678    2.123062
  33 H     1.0000    0     1.008   -6.789363    7.037049    2.601389
  34 H     1.0000    0     1.008   -6.042115    6.560674   -0.646465
  35 H     1.0000    0     1.008   -8.903801    8.071574    0.212763
  36 H     1.0000    0     1.008   -1.470038   -2.802147    1.360179
  37 H     1.0000    0     1.008   -3.360880   -4.797427    3.278018
  38 H     1.0000    0     1.008   -3.486163   -4.632487   -2.534889
  39 H     1.0000    0     1.008   -2.111323   -7.028239   -0.636700
  40 H     1.0000    0     1.008   -5.435738   -6.581505   -0.602693

------------------------------------------------------------------------------
                   ___                                                        
                  /   \      - P O W E R E D   B Y -                         
                 /     \                                                     
                 |  |  |   _    _      __       _____    __    __             
                 |  |  |  | |  | |    /  \     |  _  \  |  |  /  |          
                  \  \/   | |  | |   /    \    | | | |  |  | /  /          
                 / \  \   | |__| |  /  /\  \   | |_| |  |  |/  /          
                |  |  |   |  __  | /  /__\  \  |    /   |      \           
                |  |  |   | |  | | |   __   |  |    \   |  |\   \          
                \     /   | |  | | |  |  |  |  | |\  \  |  | \   \       
                 \___/    |_|  |_| |__|  |__|  |_| \__\ |__|  \__/        
                                                                              
                      - O R C A' S   B I G   F R I E N D -                    
                                      &                                       
                       - I N T E G R A L  F E E D E R -                       
                                                                              
 v1 FN, 2020, v2 2021, v3 2022-2024                                           
------------------------------------------------------------------------------


----------------------
SHARK INTEGRAL PACKAGE
----------------------

Number of atoms                             ...     41
Number of basis functions                   ...    539
Number of shells                            ...    253
Maximum angular momentum                    ...      2
Integral batch strategy                     ... SHARK/LIBINT Hybrid
RI-J (if used) integral strategy            ... SPLIT-RIJ (Revised 2003 algorithm where possible)
Printlevel                                  ...      1
Contraction scheme used                     ... SEGMENTED contraction
Prescreening option                         ... SCHWARTZ
   Thresh                                   ... 3.000e-11
   Tcut                                     ... 1.000e-12
   Tpresel                                  ... 1.000e-12 
Coulomb Range Separation                    ... NOT USED
Exchange Range Separation                   ... NOT USED
Multipole approximations                    ... NOT USED
Finite Nucleus Model                        ... NOT USED
CABS basis                                  ... NOT available
Auxiliary Coulomb fitting basis             ... AVAILABLE
   # of basis functions in Aux-J            ...   1185
   # of shells in Aux-J                     ...    407
   Maximum angular momentum in Aux-J        ...      4
Auxiliary J/K fitting basis                 ... NOT available
Auxiliary Correlation fitting basis         ... NOT available
Auxiliary 'external' fitting basis          ... NOT available

Checking pre-screening integrals            ... done (  0.0 sec) Dimension = 253
Check shell pair data                       ... done (  0.0 sec)
Shell pair information
Shell pair cut-off parameter TPreSel        ...   1.0e-12
Total number of shell pairs                 ...     32131
Shell pairs after pre-screening             ...     20984
Total number of primitive shell pairs       ...    124843
Primitive shell pairs kept                  ...     49276
          la=0 lb=0:   5909 shell pairs
          la=1 lb=0:   7616 shell pairs
          la=1 lb=1:   2509 shell pairs
          la=2 lb=0:   2798 shell pairs
          la=2 lb=1:   1808 shell pairs
          la=2 lb=2:    344 shell pairs

Calculating one electron integrals          ... done (  0.1 sec)
Calculating RI/J V-Matrix + Cholesky decomp.... done (  0.1 sec)
Calculating Nuclear repulsion               ... done (  0.0 sec) ENN=   2679.461503602509 Eh

Diagonalization of the overlap matrix:
Smallest eigenvalue                        ... 3.278e-04
Time for diagonalization                   ...    0.031 sec
Threshold for overlap eigenvalues          ... 1.000e-07
Number of eigenvalues below threshold      ... 0
Time for construction of square roots      ...    0.058 sec
Total time needed                          ...    0.101 sec

-------------------
DFT GRID GENERATION
-------------------

General Integration Accuracy     IntAcc      ... 4.388
Radial Grid Type                 RadialGrid  ... OptM3 with GC (2021)
Angular Grid (max. ang.)         AngularGrid ... 4 (Lebedev-302)
Angular grid pruning method      GridPruning ... 4 (adaptive)
Weight generation scheme         WeightScheme... mBecke (2022)
Basis function cutoff            BFCut       ... 1.0000e-11
Integration weight cutoff        WCut        ... 1.0000e-14
Partially contracted basis set               ... off
Rotationally invariant grid construction     ... off
Angular grids for H and He will be reduced by one unit
Diffuse basis detected: some atoms will have their outermost
                        angular grid increased by 1.

Total number of grid points                  ...   193060
Total number of batches                      ...     3037
Average number of points per batch           ...       63
Average number of grid points per atom       ...     4709
Initializing property integral containers    ... done (  0.0 sec)

SHARK setup successfully completed in   3.2 seconds

Maximum memory used throughout the entire STARTUP-calculation: 101.1 MB
Occupation numbers will be reassigned to an Aufbau configuration
             **** ENERGY FILE WAS UPDATED (xtb_opt.en.tmp) ****
Finished Guess after   1.2 sec
Maximum memory used throughout the entire GUESS-calculation: 54.8 MB
--------------------
CPCM SOLVATION MODEL
--------------------
CPCM parameters:
  Epsilon                                         ...      78.3550
  Refrac                                          ...       1.3328
  Rsolv                                           ...       1.3000
  Surface type                                    ... GAUSSIAN VDW
  Discretization scheme                           ... Constant charge density
    Threshold for H atoms                         ...       5.0000 (charges/Ang^2)
    Threshold for non-H atoms                     ...       5.0000 (charges/Ang^2)
  Epsilon function type                           ...         CPCM
Solvent:                                          ... WATER
SMD-CDS solvent descriptors:
  Soln                                            ...       1.3328
  Soln25                                          ...       1.3323
  Sola                                            ...       0.0000
  Solb                                            ...       0.0000
  Solg                                            ...       0.0000
  Solc                                            ...       0.0000
  Solh                                            ...       0.0000
Radii:
  Scheme                                          ... Element-dependent radii
  Radius for C  used is    3.4960 Bohr (=   1.8500 Ang.)
  Radius for O  used is    2.8724 Bohr (=   1.5200 Ang.)
  Radius for P  used is    4.0062 Bohr (=   2.1200 Ang.)
  Radius for S  used is    4.7054 Bohr (=   2.4900 Ang.)
  Radius for H  used is    2.2677 Bohr (=   1.2000 Ang.)
Calculating surface                               ...        done! (  0.0s)
Cavity surface points                             ...         3437
Cavity Volume                                     ...    2812.3247
Cavity Surface-area                               ...    1408.1246
Calculating surface distance matrix               ...        done! (  0.1s)
Performing Cholesky decomposition & store         ...        done! (  0.5s)
Overall time for CPCM initialization              ...                 0.6s

----------------------------------------D-I-I-S--------------------------------------------
Iteration    Energy (Eh)           Delta-E    RMSDP     MaxDP     DIISErr   Damp  Time(sec)
-------------------------------------------------------------------------------------------
               ***  Starting incremental Fock matrix formation  ***
                              *** Initializing SOSCF ***
---------------------------------------S-O-S-C-F--------------------------------------
Iteration    Energy (Eh)           Delta-E    RMSDP     MaxDP     MaxGrad    Time(sec)
--------------------------------------------------------------------------------------
    1    -2932.5200753037333925     0.00e+00  2.29e-06  1.76e-04  1.34e-05    13.5
               *** Restarting incremental Fock matrix formation ***
    2    -2932.5200752246955744     7.90e-08  3.98e-06  3.03e-04  5.54e-05    13.0
    3    -2932.5200744555186247     7.69e-07  2.89e-06  2.01e-04  1.10e-04     8.7
    4    -2932.5200754580628200    -1.00e-06  2.90e-07  2.96e-05  2.14e-06     8.5
                  *** Gradient check signals convergence ***

               *****************************************************
               *                     SUCCESS                       *
               *           SCF CONVERGED AFTER   4 CYCLES          *
               *****************************************************


SMD CDS free energy correction energy :                 7.73365     Kcal/mol
Total Energy after SMD CDS correction =             -2932.507751098 Eh
             **** ENERGY FILE WAS UPDATED (xtb_opt.en.tmp) ****

----------------
TOTAL SCF ENERGY
----------------

Total Energy       :      -2932.50775109767483 Eh          -79797.59274 eV

Components:
Nuclear Repulsion  :       2679.46150360250886 Eh           72911.85428 eV
Electronic Energy  :      -5611.95692515119845 Eh         -152709.11151 eV
One Electron Energy:      -9381.03272855246723 Eh         -255270.87826 eV
Two Electron Energy:       3769.07580340126879 Eh          102561.76675 eV
CPCM Dielectric    :         -0.02465390937323 Eh              -0.67087 eV
SMD CDS (Gcds)     :          0.01232436038819 Eh               0.33536 eV

Virial components:
Potential Energy   :      -5855.61394971347545 Eh         -159339.35623 eV
Kinetic Energy     :       2923.10619861580108 Eh           79541.76349 eV
Virial Ratio       :          2.00321628837376

DFT components:
N(Alpha)           :      101.000075219753 electrons
N(Beta)            :      101.000075219753 electrons
N(Total)           :      202.000150439507 electrons
E(X)               :     -233.398295704737 Eh       
E(C)               :       -7.105109890059 Eh       
E(XC)              :     -240.503405594796 Eh       

CPCM Solvation Model Properties:
Surface-charge          :         -0.04779781863990
Corrected charge        :         -0.00000000000000
Outlying charge corr.   :          0.00011527071854 Eh               0.00314 eV
Free-energy (cav+disp)  :          0.01232436038819 Eh               0.33536 eV

---------------
SCF CONVERGENCE
---------------

  Last Energy change         ...    1.0025e-06  Tolerance :   1.0000e-07
  Last MAX-Density change    ...    2.9598e-05  Tolerance :   1.0000e-07
  Last RMS-Density change    ...    2.8986e-07  Tolerance :   5.0000e-09
  Last DIIS Error            ...    2.6167e-04  Tolerance :   1.0000e-07
  Last Orbital Gradient      ...    2.1386e-06  Tolerance :   1.0000e-04
  Last Orbital Rotation      ...    7.9759e-06  Tolerance :   1.0000e-04


----------------
ORBITAL ENERGIES
----------------

  NO   OCC          E(Eh)            E(eV) 
   0   2.0000     -88.583755     -2410.4865 
   1   2.0000     -88.582285     -2410.4465 
   2   2.0000     -88.533784     -2409.1267 
   3   2.0000     -88.533309     -2409.1138 
   4   2.0000     -76.922644     -2093.1716 
   5   2.0000     -76.922043     -2093.1552 
   6   2.0000     -18.995608      -516.8968 
   7   2.0000     -18.995192      -516.8854 
   8   2.0000     -18.994461      -516.8656 
   9   2.0000     -18.993982      -516.8525 
  10   2.0000     -10.110112      -275.1101 
  11   2.0000     -10.092505      -274.6310 
  12   2.0000     -10.092480      -274.6303 
  13   2.0000     -10.092311      -274.6258 
  14   2.0000     -10.090885      -274.5869 
  15   2.0000     -10.022522      -272.7267 
  16   2.0000     -10.022300      -272.7206 
  17   2.0000     -10.021459      -272.6978 
  18   2.0000     -10.019956      -272.6569 
  19   2.0000      -7.877287      -214.3519 
  20   2.0000      -7.875762      -214.3104 
  21   2.0000      -7.829100      -213.0406 
  22   2.0000      -7.828575      -213.0264 
  23   2.0000      -6.600302      -179.6034 
  24   2.0000      -6.599884      -179.5920 
  25   2.0000      -5.824242      -158.4857 
  26   2.0000      -5.822791      -158.4462 
  27   2.0000      -5.821025      -158.3982 
  28   2.0000      -5.819405      -158.3541 
  29   2.0000      -5.814612      -158.2236 
  30   2.0000      -5.813107      -158.1827 
  31   2.0000      -5.776499      -157.1865 
  32   2.0000      -5.775974      -157.1722 
  33   2.0000      -5.769451      -156.9947 
  34   2.0000      -5.769176      -156.9873 
  35   2.0000      -5.768878      -156.9791 
  36   2.0000      -5.768710      -156.9746 
  37   2.0000      -4.745547      -129.1329 
  38   2.0000      -4.745496      -129.1315 
  39   2.0000      -4.745180      -129.1229 
  40   2.0000      -4.744788      -129.1122 
  41   2.0000      -4.744163      -129.0952 
  42   2.0000      -4.743956      -129.0896 
  43   2.0000      -1.042153       -28.3584 
  44   2.0000      -1.041051       -28.3284 
  45   2.0000      -1.001954       -27.2646 
  46   2.0000      -1.000234       -27.2177 
  47   2.0000      -0.795119       -21.6363 
  48   2.0000      -0.755119       -20.5478 
  49   2.0000      -0.743950       -20.2439 
  50   2.0000      -0.725071       -19.7302 
  51   2.0000      -0.720750       -19.6126 
  52   2.0000      -0.713910       -19.4265 
  53   2.0000      -0.694950       -18.9106 
  54   2.0000      -0.678262       -18.4564 
  55   2.0000      -0.628647       -17.1063 
  56   2.0000      -0.619096       -16.8465 
  57   2.0000      -0.598057       -16.2740 
  58   2.0000      -0.589394       -16.0382 
  59   2.0000      -0.588339       -16.0095 
  60   2.0000      -0.528550       -14.3826 
  61   2.0000      -0.517231       -14.0746 
  62   2.0000      -0.489639       -13.3238 
  63   2.0000      -0.483030       -13.1439 
  64   2.0000      -0.473513       -12.8849 
  65   2.0000      -0.457096       -12.4382 
  66   2.0000      -0.447946       -12.1892 
  67   2.0000      -0.442346       -12.0369 
  68   2.0000      -0.434820       -11.8321 
  69   2.0000      -0.429750       -11.6941 
  70   2.0000      -0.420259       -11.4358 
  71   2.0000      -0.419292       -11.4095 
  72   2.0000      -0.406043       -11.0490 
  73   2.0000      -0.396846       -10.7987 
  74   2.0000      -0.394598       -10.7376 
  75   2.0000      -0.386589       -10.5196 
  76   2.0000      -0.383797       -10.4436 
  77   2.0000      -0.370678       -10.0867 
  78   2.0000      -0.358186        -9.7467 
  79   2.0000      -0.356295        -9.6953 
  80   2.0000      -0.354252        -9.6397 
  81   2.0000      -0.350468        -9.5367 
  82   2.0000      -0.348031        -9.4704 
  83   2.0000      -0.347827        -9.4649 
  84   2.0000      -0.341814        -9.3012 
  85   2.0000      -0.330827        -9.0023 
  86   2.0000      -0.319654        -8.6982 
  87   2.0000      -0.318684        -8.6718 
  88   2.0000      -0.309280        -8.4159 
  89   2.0000      -0.303797        -8.2667 
  90   2.0000      -0.300408        -8.1745 
  91   2.0000      -0.291383        -7.9289 
  92   2.0000      -0.287416        -7.8210 
  93   2.0000      -0.280662        -7.6372 
  94   2.0000      -0.277375        -7.5478 
  95   2.0000      -0.254939        -6.9372 
  96   2.0000      -0.241597        -6.5742 
  97   2.0000      -0.239128        -6.5070 
  98   2.0000      -0.231388        -6.2964 
  99   2.0000      -0.227618        -6.1938 
 100   2.0000      -0.226306        -6.1581 
 101   0.0000      -0.052727        -1.4348 
 102   0.0000      -0.032591        -0.8869 
 103   0.0000      -0.017665        -0.4807 
 104   0.0000      -0.009706        -0.2641 
 105   0.0000       0.001497         0.0407 
 106   0.0000       0.013380         0.3641 
 107   0.0000       0.024395         0.6638 
 108   0.0000       0.026951         0.7334 
 109   0.0000       0.051002         1.3878 
 110   0.0000       0.063994         1.7414 
 111   0.0000       0.072253         1.9661 
*Only the first 10 virtual orbitals were printed.
Total SCF time: 0 days 0 hours 0 min 45 sec 
Finished LeanSCF after  45.9 sec

Maximum memory used throughout the entire LEANSCF-calculation: 136.5 MB


-------------------------------------------------------------------------------
                          DFT DISPERSION CORRECTION                            
                                                                               
                                DFTD4 V3.4.0                                   
-------------------------------------------------------------------------------
-------------------------   ----------------
Dispersion correction           -0.020433566
-------------------------   ----------------

------------------   -----------------
gCP correction             0.045131247
------------------   -----------------

-------------------------   --------------------
FINAL SINGLE POINT ENERGY     -2932.483053416663
-------------------------   --------------------

------------------------------------------------------------------------------
                         ORCA SCF GRADIENT CALCULATION
------------------------------------------------------------------------------

Nuc. rep. gradient        (SHARK) ... done (  0.0 sec)
HCore & Overlap gradient  (SHARK) ... done (  2.0 sec)
Split-RIJ-J gradient      (SHARK) ... done (  9.2 sec)
XC gradient                       ... done ( 21.5 sec)
CPCM gradient                     ... done (  7.7 sec)
SMD gradient                      ... done (  0.0 sec)
Dispersion correction             ... done (  0.0 sec)

-------------------
DISPERSION GRADIENT
-------------------

   1   C   :    0.000099598   -0.000059465   -0.000085324
   2   C   :    0.000096495   -0.000002952   -0.000091066
   3   O   :    0.000081270   -0.000033870   -0.000060429
   4   P   :    0.000183354    0.000082039    0.000006379
   5   S   :    0.000159569    0.000248586    0.000078296
   6   O   :    0.000066623   -0.000059172    0.000098438
   7   C   :    0.000056065   -0.000046384    0.000147184
   8   C   :    0.000060569   -0.000078433    0.000123493
   9   S   :    0.000080527    0.000078732   -0.000243014
  10   C   :    0.000034652    0.000124749   -0.000090218
  11   S   :   -0.000038737    0.000197275    0.000070822
  12   P   :   -0.000202394   -0.000001627    0.000001607
  13   S   :   -0.000173392   -0.000007723   -0.000258825
  14   O   :   -0.000101670    0.000031109    0.000057164
  15   C   :   -0.000100800    0.000060960    0.000017301
  16   C   :   -0.000068750    0.000118728    0.000025514
  17   O   :   -0.000076541   -0.000088777    0.000064965
  18   C   :   -0.000091017   -0.000141229    0.000050211
  19   C   :   -0.000058829   -0.000177500   -0.000024830
  20   H   :    0.000031387   -0.000028849   -0.000031834
  21   H   :    0.000025810   -0.000011899   -0.000022718
  22   H   :    0.000040671   -0.000025682   -0.000029322
  23   H   :    0.000036200   -0.000009605   -0.000046973
  24   H   :    0.000049155    0.000006628   -0.000027446
  25   H   :    0.000022708   -0.000004938    0.000061744
  26   H   :    0.000016586   -0.000035259    0.000068268
  27   H   :    0.000015772   -0.000023386    0.000039404
  28   H   :    0.000016255   -0.000044219    0.000044952
  29   H   :    0.000022719   -0.000027570    0.000055616
  30   H   :    0.000010329    0.000035303   -0.000054217
  31   H   :    0.000020732    0.000057061   -0.000018810
  32   H   :   -0.000044152    0.000018209   -0.000003937
  33   H   :   -0.000041677    0.000019534    0.000022255
  34   H   :   -0.000026583    0.000050524    0.000023580
  35   H   :   -0.000035079    0.000063030    0.000003768
  36   H   :   -0.000023057    0.000044534    0.000003049
  37   H   :   -0.000045606   -0.000057876    0.000022339
  38   H   :   -0.000039625   -0.000063510    0.000037747
  39   H   :   -0.000028034   -0.000072799   -0.000025337
  40   H   :   -0.000019892   -0.000076351   -0.000008965
  41   H   :   -0.000011209   -0.000057925   -0.000000833

Difference to translation invariance:
           :    0.0000000000   -0.0000000000   -0.0000000000

Difference to rotation invariance:
           :    0.0000000000    0.0000000000    0.0000000000

Norm of the Dispersion gradient    ...    0.0008693534
RMS gradient                       ...    0.0000783870
MAX gradient                       ...    0.0002588254
gCP correction                   ... done

------------------
CARTESIAN GRADIENT
------------------

   1   C   :    0.000292410   -0.000294670   -0.000113319
   2   C   :   -0.000836276   -0.000258524    0.000860407
   3   O   :    0.000985856   -0.000130568   -0.000542913
   4   P   :    0.000150288    0.000286058   -0.000062236
   5   S   :   -0.000185005   -0.000139675   -0.000152829
   6   O   :   -0.000109847   -0.000306966    0.000474618
   7   C   :   -0.000155163    0.000128008   -0.000197127
   8   C   :    0.000021999    0.000067237   -0.000073080
   9   S   :    0.000046877    0.000371273    0.000469577
  10   C   :   -0.000278874    0.000034834   -0.000496884
  11   S   :   -0.000059743   -0.000031186    0.000038031
  12   P   :    0.000097666   -0.000205218   -0.000142097
  13   S   :    0.000110410    0.000153007   -0.000122372
  14   O   :   -0.000316252    0.000401951    0.000137576
  15   C   :    0.000204766   -0.000372660    0.000147102
  16   C   :    0.000016220    0.000155668    0.000023502
  17   O   :    0.000046338   -0.000320958    0.000189778
  18   C   :   -0.000274471    0.000353819    0.000061978
  19   C   :   -0.000001212   -0.000040880   -0.000000849
  20   H   :    0.000016685   -0.000038570   -0.000062496
  21   H   :   -0.000045150   -0.000004476    0.000079285
  22   H   :   -0.000009330    0.000030298   -0.000007324
  23   H   :   -0.000158674    0.000131250   -0.000302849
  24   H   :    0.000147026    0.000205980    0.000043086
  25   H   :   -0.000020156   -0.000011046    0.000053417
  26   H   :   -0.000031480   -0.000029169    0.000012941
  27   H   :    0.000085061    0.000090740    0.000110952
  28   H   :   -0.000027022   -0.000164359   -0.000010670
  29   H   :   -0.000038388   -0.000003720   -0.000100291
  30   H   :   -0.000058132    0.000042899   -0.000030769
  31   H   :    0.000100296   -0.000076304   -0.000005843
  32   H   :   -0.000041907    0.000029246   -0.000014933
  33   H   :    0.000002779    0.000028555   -0.000012384
  34   H   :   -0.000022784    0.000021132    0.000016187
  35   H   :    0.000009212   -0.000012729    0.000060844
  36   H   :    0.000053869   -0.000047398   -0.000009007
  37   H   :    0.000103303   -0.000008012   -0.000058347
  38   H   :    0.000087712   -0.000045167   -0.000018548
  39   H   :   -0.000062532    0.000084868   -0.000137748
  40   H   :    0.000130288   -0.000041645   -0.000095625
  41   H   :    0.000023337   -0.000032922   -0.000008742

Difference to translation invariance:
           :    0.0000000000    0.0000000000   -0.0000000000

Difference to rotation invariance:
           :    0.0009791080    0.0000168357   -0.0001332028

Norm of the Cartesian gradient     ...    0.0023790469
RMS gradient                       ...    0.0002145114
MAX gradient                       ...    0.0009858564

-------
TIMINGS
-------

Total SCF gradient time     ....       46.109 sec

Densities                   ....       0.007 sec  (  0.0%)
One electron gradient       ....       1.953 sec  (  4.2%)
RI-J Coulomb gradient       ....       9.213 sec  ( 20.0%)
XC gradient                 ....      21.505 sec  ( 46.6%)
CPCM gradient               ....       7.665 sec  ( 16.6%)
   A-Matrix (El+Nuc)        ....       0.264 sec  (  0.6%)
   Potential                ....       7.402 sec  ( 16.1%)
SMD gradient                ....       0.022 sec  (  0.0%)

Maximum memory used throughout the entire SCFGRAD-calculation: 83.4 MB

------------------------------------------------------------------------------
                              ORCA PROPERTY CALCULATIONS
------------------------------------------------------------------------------

GBWName                                 ... xtb_opt.gbw
Number of atoms                         ...     41
Number of basis functions               ...    539
Max core memory                         ...   1024 MB

Electric properties:
Dipole moment                           ... YES
Quadrupole moment                       ...  NO
Static polarizability (Dipole/Dipole)   ...  NO
Static polarizability (Dipole/Quad.)    ...  NO
Static polarizability (Quad./Quad.)     ...  NO
Static polarizability (Velocity)        ...  NO

Atomic electric properties:
Dipole moment                           ...  NO
Quadrupole moment                       ...  NO
Static polarizability                   ...  NO

Choice of electric origin               ... Center of mass
Position of electric origin             ...     0.019893     0.034406     0.086865

General magnetic properties:
Magnetizability                         ...  NO

EPR properties:
g-Tensor (aka g-matrix)                 ...  NO
Zero-Field splitting spin-orbit         ...  NO
Zero-field splitting spin-spin          ...  NO
Hyperfine couplings                     ...  NO (   0 nuclei)
Quadrupole couplings                    ...  NO (   0 nuclei)
Contact density                         ...  NO (   0 nuclei)

NMR properties:
Chemical shifts                         ...  NO (   0 nuclei)
Spin-rotation constants                 ...  NO (   0 nuclei)
Spin-spin couplings                     ...  NO (   0 nuclei,    0 pairs)

Choice of magnetic origin               ... GIAO
Position of magnetic origin             ...     0.000000     0.000000     0.000000

Properties with geometric perturbations:
SCF Hessian                             ...  NO
IR spectrum                             ...  NO
VCD spectrum                            ...  NO
X-ray spectroscopy properties:
SCF XES/XAS/RIXS spectra                ...  NO


-------------
DIPOLE MOMENT
-------------

Method             : SCF
Type of density    : Electron Density
Multiplicity       :   1
Irrep              :   0
Energy             : -2932.5077510976748272 Eh
Relativity type    : 
Basis              : AO
                                X                 Y                 Z
Electronic contribution:     -8.580323617       9.073466644      -2.530046128
Nuclear contribution   :      9.615425861      -9.485016184       2.925147996
                        -----------------------------------------
Total Dipole Moment    :      1.035102244      -0.411549541       0.395101868
                        -----------------------------------------
Magnitude (a.u.)       :      1.181911658
Magnitude (Debye)      :      3.004180687



--------------------
Rotational spectrum 
--------------------
 
Rotational constants in cm-1:             0.013062             0.004128             0.004051 
Rotational constants in MHz :           391.597535           123.754949           121.432679 

Dipole components along the rotational axes: 
x,y,z [a.u.] :     1.107581    -0.149460    -0.384501 
x,y,z [Debye]:     2.815247    -0.379898    -0.977325 

 

Dipole moment calculation done in   0.3 sec 

Maximum memory used throughout the entire PROP-calculation: 51.1 MB

--------------------------------
SUGGESTED CITATIONS FOR THIS RUN
--------------------------------

Below you find a list of papers that are relevant to this ORCA run
We neither can nor want to force you to cite these papers, but we appreciate if you do
You receive ORCA, which is the product of decades of hard work by many enthusiastic individuals, for free
The only thing we kindly ask in return is that you cite our papers,
We deeply appreciate it, if you show your appreciation for ORCA by not just citing the generic ORCA reference.

Please note that relegating all ORCA citations to the supporting information does *not* help us.
SI sections are not indexed - citations you put there will not count into any citation statistics
But we need these citations in order to attract the funding resources that allow us to do what we are doing

Therefore, if you are a happy ORCA user, please consider citing a few of the papers listed below in the main body of your paper

In addition to the list printed below, the program has created the file xtb_opt.bibtex that contains the list in bibtex format
You can import this file easily into all common literature databanks and citation aid programs


List of essential papers. We consider these as the minimum necessary citations

  1. Neese,F.
     Software update: the ORCA program system, version 5.0
     WIRES Comput. Molec. Sci., 2022 12(1)e1606
     doi.org/10.1002/wcms.1606
  2. Grimme,S.; Hansen,A.; Ehlert,S.; Mewes,J.
     r2SCAN-3c: A 'Swiss army knife' composite electronic-structure method
     J. Chem. Phys., 2021 154 064103
     doi.org/10.1063/5.0040021

List of papers to cite with high priority. The work reported in these papers was absolutely
necessary for this run to complete.
Our perspective: the developers of density functionals and basis sets usually get cited in chemistry papers
Good! But without the algorithms to do something with them, the functionals or basis sets would not do anything.
Hence, in our opinion, the algorithm design and method developments papers are equally worthy of getting cited

  1. Neese,F.
     An improvement of the resolution of the identity approximation for the formation of the Coulomb matrix
     J. Comp. Chem., 2003 24(14)1740-1747
     doi.org/10.1002/jcc.10318
  2. Garcia-Rates,M.; Neese,F.
     Effect of the Solute Cavity on the Solvation Energy and its Derivatives within the Framework of the Gaussian Charge Scheme
     J. Comput. Chem., 2020 41 922-939
     doi.org/10.1002/jcc.26139
  3. Neese,F.
     The SHARK Integral Generation and Digestion System
     J. Comp. Chem., 2022  1-16
     doi.org/10.1002/jcc.26942
  4. Lehtola,S.; Steigemann,C.; Oliveira,M.; Marques,M.
     Recent developments in Libxc - A comprehensive library of functionals for density functional theory
     Software X, 2018 7 
     doi.org/10.1016/j.softx.2017.11.002
  5. Caldeweyher,E.; Bannwarth,C.; Grimme,S.
     Extension of the D3 dispersion coefficient model
     J. Chem. Phys., 2017 147 034112-XXXX
     doi.org/10.1063/1.4993215
  6. Caldeweyher,E.; Ehlert,S.; Hansen,A.; Neugebauer,H.; Spicher,S.; Bannwarth,C.; Grimme,S.
     A generally applicable atomic-charge dependent London dispersion correction
     J. Chem. Phys., 2019 150 154122-XXXX
     doi.org/10.1063/1.5090222
  7. Caldeweyher,E.; Mewes,J.; Ehlert,S.; Grimme,S.
     Extension and evaluation of the D4 London-dispersion model for periodic systems
     Phys. Chem. Chem. Phys., 2020 22(16)8499-8512
     doi.org/10.1039/D0CP00502A

List of suggested additional citations. These are papers that are important in the 'surrounding' of 
of this run, or papers that preceded the highly important papers. If you like your results we are grateful for a citation.

  1. Neese,F.
     The ORCA program system
     WIRES Comput. Molec. Sci., 2012 2(1)73-78
     doi.org/10.1002/wcms.81
  2. Neese,F.
     Software update: the ORCA program system, version 4.0
     WIRES Comput. Molec. Sci., 2018 8(1)1-6
     doi.org/10.1002/wcms.1327
  3. Neese,F.; Wennmohs,F.; Becker,U.; Riplinger,C.
     The ORCA quantum chemistry program package
     J. Chem. Phys., 2020 152 Art. No. L224108
     doi.org/10.1063/5.0004608

List of optional additional citations

  1. Neese,F.
     Approximate second-order SCF convergence for spin unrestricted wavefunctions
     Chem. Phys. Lett., 2000 325(1-3)93-98
     doi.org/10.1016/s0009-2614(00)00662-x

Timings for individual modules:

Sum of individual times          ...       97.131 sec (=   1.619 min)
Startup calculation              ...        3.252 sec (=   0.054 min)   3.3 %
SCF iterations                   ...       47.132 sec (=   0.786 min)  48.5 %
Property calculations            ...        0.472 sec (=   0.008 min)   0.5 %
SCF Gradient evaluation          ...       46.276 sec (=   0.771 min)  47.6 %
                             ****ORCA TERMINATED NORMALLY****
TOTAL RUN TIME: 0 days 0 hours 1 minutes 38 seconds 40 msec
  ------------------------------------------------------------------------
          * successful ORCA run, taking over control again...

         :::::::::::::::::::::::::::::::::::::::::::::::::::::
         ::                  ORCA SUMMARY                   ::
         :::::::::::::::::::::::::::::::::::::::::::::::::::::
         :: total energy           -2932.483053416663 Eh    ::
         :: gradient norm              0.002379046862 Eh/a0 ::
         :: HOMO-LUMO gap              0.000000000000 eV    ::
         :::::::::::::::::::::::::::::::::::::::::::::::::::::

      ----------------------------------------------------------- 
     |                       L-ANC optimizer                     |
      ----------------------------------------------------------- 
          low memory version by Sebastian Ehlert

          ...................................................
          :                      SETUP                      :
          :.................................................:
          :   energy convergence        0.5000000E-05 Eh    :
          :   grad. convergence         0.1000000E-02 Eh/a0 :
          :   optimization log               true           :
          :   writing optlog all                1     steps :
          :   Hessian reset                     8     steps :
          :   maximium step len.        1.0000000     a0    :
          :   LBFGS images                      8           :
          ...................................................
 * calculating model hessian...
Using Lindh-Hessian (1995)
 Shifting diagonal of input Hessian by   1.003729762465809E-002
 Lowest  eigenvalues of input Hessian
    0.010000    0.010023    0.000000    0.000000    0.000000    0.000000
    0.000000    0.000000    0.010270    0.010466    0.010787    0.011206
    0.011347    0.011766    0.011964    0.012178    0.012490    0.013071
 Highest eigenvalues
    1.295230    1.306158    1.719831    1.798887    1.808914    1.860679
 

........................................................................
.............................. CYCLE    1 ..............................
........................................................................
                         * ORCA takes the control...
  ------------------------------------------------------------------------

                                 *****************
                                 * O   R   C   A *
                                 *****************

                                            #,                                       
                                            ###                                      
                                            ####                                     
                                            #####                                    
                                            ######                                   
                                           ########,                                 
                                     ,,################,,,,,                         
                               ,,#################################,,                 
                          ,,##########################################,,             
                       ,#########################################, ''#####,          
                    ,#############################################,,   '####,        
                  ,##################################################,,,,####,       
                ,###########''''           ''''###############################       
              ,#####''   ,,,,##########,,,,          '''####'''          '####       
            ,##' ,,,,###########################,,,                        '##       
           ' ,,###''''                  '''############,,,                           
         ,,##''                                '''############,,,,        ,,,,,,###''
      ,#''                                            '''#######################'''  
     '                                                          ''''####''''         
             ,#######,   #######,   ,#######,      ##                                
            ,#'     '#,  ##    ##  ,#'     '#,    #''#        ,####,   ,####,        
            ##       ##  ##   ,#'  ##            #'  '#       #'       #'  '#        
            ##       ##  #######   ##           ,######,      #####,   #    #        
            '#,     ,#'  ##    ##  '#,     ,#' ,#      #,     #,   #   #,  ,#        
             '#######'   ##     ##  '#######'  #'      '#     '####' # '####'        



                #########################################################
                #                        -***-                          #
                #          Department of theory and spectroscopy        #
                #                                                       #
                #                      Frank Neese                      #
                #                                                       #
                #     Directorship, Architecture, Infrastructure        #
                #                    SHARK, DRIVERS                     #
                #        Core code/Algorithms in most modules           #
                #                                                       #
                #        Max Planck Institute fuer Kohlenforschung      #
                #                Kaiser Wilhelm Platz 1                 #
                #                 D-45470 Muelheim/Ruhr                 #
                #                      Germany                          #
                #                                                       #
                #                  All rights reserved                  #
                #                        -***-                          #
                #########################################################


                         Program Version 6.0.0  -   RELEASE  -


 With contributions from (in alphabetic order):
   Daniel Aravena         : Magnetic Suceptibility
   Michael Atanasov       : Ab Initio Ligand Field Theory (pilot matlab implementation)
   Alexander A. Auer      : GIAO ZORA, VPT2 properties, NMR spectrum
   Ute Becker             : All parallelization in ORCA, NUMFREQ, NUMCALC
   Giovanni Bistoni       : ED, misc. LED, open-shell LED, HFLD
   Martin Brehm           : Molecular dynamics
   Dmytro Bykov           : pre 5.0 version of the SCF Hessian
   Marcos Casanova-Páez   : Triplet and SCS-CIS(D). UHF-(DLPNO)-IP/EA/STEOM-CCSD. UHF-CVS-IP/STEOM-CCSD
   Vijay G. Chilkuri      : MRCI spin determinant printing, contributions to CSF-ICE
   Pauline Colinet        : FMM embedding
   Dipayan Datta          : RHF DLPNO-CCSD density
   Achintya Kumar Dutta   : EOM-CC, STEOM-CC
   Nicolas Foglia         : Exact transition moments, OPA infrastructure, MCD improvements
   Dmitry Ganyushin       : Spin-Orbit,Spin-Spin,Magnetic field MRCI
   Miquel Garcia          : C-PCM and meta-GGA Hessian, CCSD/C-PCM, Gaussian charge scheme
   Tiago L. C. Gouveia    : GS-ROHF, GS-ROCIS
   Yang Guo               : DLPNO-NEVPT2, F12-NEVPT2, CIM, IAO-localization
   Andreas Hansen         : Spin unrestricted coupled pair/coupled cluster methods
   Ingolf Harden          : AUTO-CI MPn and infrastructure 
   Benjamin Helmich-Paris : MC-RPA, TRAH-(SCF,CASSCF), AVAS, COSX integrals, SCF dyn. polar.
   Lee Huntington         : MR-EOM, pCC
   Robert Izsak           : Overlap fitted RIJCOSX, COSX-SCS-MP3, EOM
   Riya Kayal             : Wick's Theorem for AUTO-CI, AUTO-CI UHF-CCSDT
   Emily Kempfer          : AUTO-CI, RHF CISDT and CCSDT
   Christian Kollmar      : KDIIS, OOCD, Brueckner-CCSD(T), CCSD density, CASPT2, CASPT2-K, improved NEVPT2
   Axel Koslowski         : Symmetry handling
   Simone Kossmann        : Meta GGA functionals, TD-DFT gradient, OOMP2, (MP2 Hessian; deprecated post 5.0)
   Lucas Lang             : DCDCAS
   Marvin Lechner         : AUTO-CI (C++ implementation), FIC-MRCC
   Spencer Leger          : CASSCF response
   Dagmar Lenk            : GEPOL surface, SMD, ORCA-2-JSON
   Dimitrios Liakos       : Extrapolation schemes; Compound Job, initial MDCI parallelization
   Dimitrios Manganas     : Further ROCIS development; embedding schemes. LFT, Crystal Embedding
   Dimitrios Pantazis     : SARC Basis sets
   Anastasios Papadopoulos: AUTO-CI, single reference methods and gradients
   Taras Petrenko         : pre 6.0 DFT Hessian and TD-DFT gradient, (ASA, deprecated), ECA, 1-Electron XAS/XES, NRVS
   Peter Pinski           : DLPNO-MP2, DLPNO-MP2 Gradient
   Christoph Reimann      : Effective Core Potentials
   Marius Retegan         : Local ZFS, SOC
   Christoph Riplinger    : Optimizer, TS searches, QM/MM, DLPNO-CCSD(T), (RO)-DLPNO pert. Triples
   Michael Roemelt        : Original ROCIS implementation
   Masaaki Saitow         : Open-shell DLPNO-CCSD energy and density
   Barbara Sandhoefer     : DKH picture change effects
   Kantharuban Sivalingam : CASSCF convergence/infrastructure, NEVPT2 and variants, FIC-MRCI
   Bernardo de Souza      : ESD, SOC TD-DFT
   Georgi Stoychev        : AutoAux, RI-MP2 NMR, DLPNO-MP2 response, X2C
   Van Anh Tran           : RI-MP2 g-tensors
   Willem Van den Heuvel  : Paramagnetic NMR
   Zikuan Wang            : NOTCH, Electric field optimization 
   Frank Wennmohs         : Technical directorship and infrastructure
   Hang Xu                : AUTO-CI-Response properties 


 We gratefully acknowledge several colleagues who have allowed us to
 interface, adapt or use parts of their codes:
   Stefan Grimme, W. Hujo, H. Kruse, P. Pracht,  : VdW corrections, initial TS optimization,
                  C. Bannwarth, S. Ehlert,         DFT functionals, gCP, sTDA/sTD-DF
                  L. Wittmann, M. Mueller
   Ed Valeev, F. Pavosevic, A. Kumar             : LibInt (2-el integral package), F12 methods
   Garnet Chan, S. Sharma, J. Yang, R. Olivares  : DMRG
   Ulf Ekstrom                                   : XCFun DFT Library
   Mihaly Kallay                                 : mrcc  (arbitrary order and MRCC methods)
   Frank Weinhold                                : gennbo (NPA and NBO analysis)
   Simon Mueller                                 : openCOSMO-RS
   Christopher J. Cramer and Donald G. Truhlar   : smd solvation model
   Lars Goerigk                                  : TD-DFT with DH, B97 family of functionals
   V. Asgeirsson, H. Jonsson                     : NEB implementation
   FAccTs GmbH                                   : IRC, NEB, NEB-TS, DLPNO-Multilevel, CI-OPT
                                                   MM, QMMM, 2- and 3-layer-ONIOM, Crystal-QMMM,
                                                   LR-CPCM, SF, NACMEs, symmetry and pop. for TD-DFT,
                                                   nearIR, NL-DFT gradient (VV10), updates on ESD,
                                                   ML-optimized integration grids, MBIS, APM,
                                                   GOAT, DOCKER, SOLVATOR, interface openCOSMO-RS
   S Lehtola, MJT Oliveira, MAL Marques          : LibXC Library
   Liviu Ungur et al                             : ANISO software


 Your calculation uses the libint2 library for the computation of 2-el integrals
 For citations please refer to: http://libint.valeyev.net

 Your ORCA version has been built with support for libXC version: 6.2.2
 For citations please refer to: https://libxc.gitlab.io

 This ORCA versions uses:
   CBLAS   interface :  Fast vector & matrix operations
   LAPACKE interface :  Fast linear algebra routines
   SCALAPACK package :  Parallel linear algebra routines
   Shared memory     :  Shared parallel matrices
   BLAS/LAPACK       :  OpenBLAS 0.3.27  USE64BITINT DYNAMIC_ARCH NO_AFFINITY SapphireRapids SINGLE_THREADED
        Core in use  :  SapphireRapids
   Copyright (c) 2011-2014, The OpenBLAS Project




***************************************
The coordinates will be read from file: xtb_opt.xyz
***************************************


Your calculation utilizes the geometrical counterpoise correction gCP
Please cite in your paper:
H.Kruse, S. Grimme J.Chem.Phys., 136, (2012), 154101 
   

Your calculation utilizes the atom-pairwise dispersion correction
based on EEQ partial charges (D4)


Your calculation utilizes the SMD solvation module
Please cite in your paper:
A.V. Marenich, C.J. Cramer, D.G. Truhlar J. Phys. Chem. B, 113, (2009), 6378 

================================================================================

----- Orbital basis set information -----
Your calculation utilizes the basis: def2-mTZVPP
   Stefan Grimme, Andreas Hansen, Sebastian Ehlert, and Jan-Michael Mewes 
   J. Chem. Phys. 154, 064103 (2021). DOI: 10.1063/5.0040021

----- AuxJ basis set information -----
Your calculation utilizes the auxiliary basis: def2/J
   F. Weigend, Phys. Chem. Chem. Phys. 8, 1057 (2006).

================================================================================
                                        WARNINGS
                       Please study these warnings very carefully!
================================================================================

WARNING: Old DensityContainer found on disk!
         Will remove this file - 
         If you want to keep old densities, please start your calculation with a different basename. 

Using LibXC functional ID 497 : Re-regularized SCAN exchange by Furness et al
[ 1]  J. W. Furness, A. D. Kaplan, J. Ning, J. P. Perdew, and J. Sun.,  J. Phys. Chem. Lett. 11, 8208-8215 (2020)
[ 2]  J. W. Furness, A. D. Kaplan, J. Ning, J. P. Perdew, and J. Sun.,  J. Phys. Chem. Lett. 11, 9248-9248 (2020)
Using LibXC functional ID 498 : Re-regularized SCAN correlation by Furness et al
[ 1]  J. W. Furness, A. D. Kaplan, J. Ning, J. P. Perdew, and J. Sun.,  J. Phys. Chem. Lett. 11, 8208-8215 (2020)
[ 2]  J. W. Furness, A. D. Kaplan, J. Ning, J. P. Perdew, and J. Sun.,  J. Phys. Chem. Lett. 11, 9248-9248 (2020)
Using LibXC functional ID 497 : Re-regularized SCAN exchange by Furness et al
[ 1]  J. W. Furness, A. D. Kaplan, J. Ning, J. P. Perdew, and J. Sun.,  J. Phys. Chem. Lett. 11, 8208-8215 (2020)
[ 2]  J. W. Furness, A. D. Kaplan, J. Ning, J. P. Perdew, and J. Sun.,  J. Phys. Chem. Lett. 11, 9248-9248 (2020)
Using LibXC functional ID 498 : Re-regularized SCAN correlation by Furness et al
[ 1]  J. W. Furness, A. D. Kaplan, J. Ning, J. P. Perdew, and J. Sun.,  J. Phys. Chem. Lett. 11, 8208-8215 (2020)
[ 2]  J. W. Furness, A. D. Kaplan, J. Ning, J. P. Perdew, and J. Sun.,  J. Phys. Chem. Lett. 11, 9248-9248 (2020)

================================================================================
                                       INPUT FILE
================================================================================
NAME = xtb_opt.inp
|  1> ! r2scan-3c def2/J RI DEFGRID2 scfconv7 ENGRAD tightSCF miniprint
|  2> %cpcm
|  3>     smd true
|  4>     smdsolvent "water"
|  5> end
|  6> * xyzfile 0 1 xtb_opt.xyz
|  7> 
|  8>                          ****END OF INPUT****
================================================================================

                     *******************************
                     * Energy+Gradient Calculation *
                     *******************************

---------------------------------
CARTESIAN COORDINATES (ANGSTROEM)
---------------------------------
  C      5.241785   -1.841211   -2.022939
  C      4.403557   -0.679356   -1.556205
  O      3.451571   -1.201489   -0.566221
  P      2.382853   -0.220292    0.138137
  S      3.044322    1.485864    0.803711
  O      1.733639   -1.219953    1.213915
  C      2.230798   -1.300742    2.597891
  C      3.560159   -2.009112    2.678359
  S      0.878403   -0.135258   -1.354225
  C     -0.005454    1.395249   -0.857465
  S     -1.000944    1.332671    0.679020
  P     -2.793891    0.354785    0.048447
  S     -3.067584    0.305975   -1.878415
  O     -3.926456    1.069834    0.937303
  C     -4.751898    2.170861    0.423249
  C     -4.006684    3.482245    0.392383
  O     -2.821324   -1.035649    0.857423
  C     -1.731775   -2.017204    0.776965
  C     -1.913891   -2.968606   -0.379691
  H      4.622992   -2.606102   -2.500258
  H      5.970549   -1.479253   -2.754385
  H      5.785473   -2.289726   -1.186650
  H      3.838291   -0.230783   -2.380212
  H      5.009842    0.092115   -1.072042
  H      2.279182   -0.285601    3.003197
  H      1.444850   -1.854193    3.115446
  H      3.834030   -2.117025    3.733081
  H      3.501400   -3.006195    2.232688
  H      4.350721   -1.440656    2.179588
  H     -0.656570    1.645377   -1.700158
  H      0.722836    2.197168   -0.704813
  H     -5.125358    1.888609   -0.565567
  H     -5.589515    2.203378    1.122787
  H     -3.592204    3.723211    1.375473
  H     -3.198156    3.472202   -0.343742
  H     -4.712247    4.271504    0.112784
  H     -0.777871   -1.483866    0.721351
  H     -1.780674   -2.538273    1.735672
  H     -1.842989   -2.452759   -1.340279
  H     -1.119345   -3.721009   -0.333990
  H     -2.878042   -3.481633   -0.318715

----------------------------
CARTESIAN COORDINATES (A.U.)
----------------------------
  NO LB      ZA    FRAG     MASS         X           Y           Z
   0 C     6.0000    0    12.011    9.905539   -3.479384   -3.822801
   1 C     6.0000    0    12.011    8.321516   -1.283796   -2.940802
   2 O     8.0000    0    15.999    6.522524   -2.270486   -1.070003
   3 P    15.0000    0    30.974    4.502940   -0.416292    0.261041
   4 S    16.0000    0    32.060    5.752935    2.807876    1.518793
   5 O     8.0000    0    15.999    3.276103   -2.305378    2.293967
   6 C     6.0000    0    12.011    4.215598   -2.458047    4.909303
   7 C     6.0000    0    12.011    6.727725   -3.796671    5.061364
   8 S    16.0000    0    32.060    1.659941   -0.255601   -2.559115
   9 C     6.0000    0    12.011   -0.010307    2.636638   -1.620374
  10 S    16.0000    0    32.060   -1.891510    2.518383    1.283161
  11 P    15.0000    0    30.974   -5.279688    0.670446    0.091552
  12 S    16.0000    0    32.060   -5.796895    0.578209   -3.549690
  13 O     8.0000    0    15.999   -7.419926    2.021694    1.771247
  14 C     6.0000    0    12.011   -8.979785    4.102333    0.799825
  15 C     6.0000    0    12.011   -7.571535    6.580489    0.741496
  16 O     8.0000    0    15.999   -5.331530   -1.957092    1.620294
  17 C     6.0000    0    12.011   -3.272580   -3.811963    1.468251
  18 C     6.0000    0    12.011   -3.616730   -5.609852   -0.717511
  19 H     1.0000    0     1.008    8.736189   -4.924820   -4.724804
  20 H     1.0000    0     1.008   11.282702   -2.795383   -5.205034
  21 H     1.0000    0     1.008   10.932959   -4.326955   -2.242444
  22 H     1.0000    0     1.008    7.253318   -0.436117   -4.497949
  23 H     1.0000    0     1.008    9.467229    0.174072   -2.025866
  24 H     1.0000    0     1.008    4.307031   -0.539708    5.675220
  25 H     1.0000    0     1.008    2.730371   -3.503917    5.887340
  26 H     1.0000    0     1.008    7.245266   -4.000597    7.054500
  27 H     1.0000    0     1.008    6.616686   -5.680885    4.219168
  28 H     1.0000    0     1.008    8.221672   -2.722446    4.118825
  29 H     1.0000    0     1.008   -1.240737    3.109313   -3.212832
  30 H     1.0000    0     1.008    1.365961    4.152046   -1.331903
  31 H     1.0000    0     1.008   -9.685523    3.568954   -1.068767
  32 H     1.0000    0     1.008  -10.562652    4.163781    2.121761
  33 H     1.0000    0     1.008   -6.788282    7.035849    2.599268
  34 H     1.0000    0     1.008   -6.043639    6.561510   -0.649579
  35 H     1.0000    0     1.008   -8.904856    8.071974    0.213130
  36 H     1.0000    0     1.008   -1.469962   -2.804100    1.363155
  37 H     1.0000    0     1.008   -3.364985   -4.796640    3.279946
  38 H     1.0000    0     1.008   -3.482744   -4.635043   -2.532760
  39 H     1.0000    0     1.008   -2.115255   -7.031689   -0.631149
  40 H     1.0000    0     1.008   -5.438710   -6.579333   -0.602284

------------------------------------------------------------------------------
                   ___                                                        
                  /   \      - P O W E R E D   B Y -                         
                 /     \                                                     
                 |  |  |   _    _      __       _____    __    __             
                 |  |  |  | |  | |    /  \     |  _  \  |  |  /  |          
                  \  \/   | |  | |   /    \    | | | |  |  | /  /          
                 / \  \   | |__| |  /  /\  \   | |_| |  |  |/  /          
                |  |  |   |  __  | /  /__\  \  |    /   |      \           
                |  |  |   | |  | | |   __   |  |    \   |  |\   \          
                \     /   | |  | | |  |  |  |  | |\  \  |  | \   \       
                 \___/    |_|  |_| |__|  |__|  |_| \__\ |__|  \__/        
                                                                              
                      - O R C A' S   B I G   F R I E N D -                    
                                      &                                       
                       - I N T E G R A L  F E E D E R -                       
                                                                              
 v1 FN, 2020, v2 2021, v3 2022-2024                                           
------------------------------------------------------------------------------


----------------------
SHARK INTEGRAL PACKAGE
----------------------

Number of atoms                             ...     41
Number of basis functions                   ...    539
Number of shells                            ...    253
Maximum angular momentum                    ...      2
Integral batch strategy                     ... SHARK/LIBINT Hybrid
RI-J (if used) integral strategy            ... SPLIT-RIJ (Revised 2003 algorithm where possible)
Printlevel                                  ...      1
Contraction scheme used                     ... SEGMENTED contraction
Prescreening option                         ... SCHWARTZ
   Thresh                                   ... 3.000e-11
   Tcut                                     ... 1.000e-12
   Tpresel                                  ... 1.000e-12 
Coulomb Range Separation                    ... NOT USED
Exchange Range Separation                   ... NOT USED
Multipole approximations                    ... NOT USED
Finite Nucleus Model                        ... NOT USED
CABS basis                                  ... NOT available
Auxiliary Coulomb fitting basis             ... AVAILABLE
   # of basis functions in Aux-J            ...   1185
   # of shells in Aux-J                     ...    407
   Maximum angular momentum in Aux-J        ...      4
Auxiliary J/K fitting basis                 ... NOT available
Auxiliary Correlation fitting basis         ... NOT available
Auxiliary 'external' fitting basis          ... NOT available

Checking pre-screening integrals            ... done (  0.0 sec) Dimension = 253
Check shell pair data                       ... done (  0.0 sec)
Shell pair information
Shell pair cut-off parameter TPreSel        ...   1.0e-12
Total number of shell pairs                 ...     32131
Shell pairs after pre-screening             ...     20988
Total number of primitive shell pairs       ...    124843
Primitive shell pairs kept                  ...     49276
          la=0 lb=0:   5911 shell pairs
          la=1 lb=0:   7618 shell pairs
          la=1 lb=1:   2509 shell pairs
          la=2 lb=0:   2798 shell pairs
          la=2 lb=1:   1808 shell pairs
          la=2 lb=2:    344 shell pairs

[...]
CPCM gradient                     ... done (  7.7 sec)
SMD gradient                      ... done (  0.0 sec)
Dispersion correction             ... done (  0.0 sec)

-------------------
DISPERSION GRADIENT
-------------------

   1   C   :    0.000099194   -0.000059436   -0.000085520
   2   C   :    0.000096279   -0.000002770   -0.000090586
   3   O   :    0.000081103   -0.000033592   -0.000061015
   4   P   :    0.000183126    0.000082431    0.000005594
   5   S   :    0.000159787    0.000247950    0.000078820
   6   O   :    0.000067003   -0.000059008    0.000097777
   7   C   :    0.000056398   -0.000046804    0.000146809
   8   C   :    0.000060432   -0.000079219    0.000123284
   9   S   :    0.000079941    0.000080294   -0.000243751
  10   C   :    0.000034788    0.000124873   -0.000089208
  11   S   :   -0.000039321    0.000196730    0.000072647
  12   P   :   -0.000201929   -0.000002080    0.000001722
  13   S   :   -0.000171902   -0.000008550   -0.000259503
  14   O   :   -0.000101881    0.000031243    0.000056558
  15   C   :   -0.000101000    0.000060865    0.000016654
  16   C   :   -0.000069189    0.000118817    0.000024812
  17   O   :   -0.000076234   -0.000088616    0.000065041
  18   C   :   -0.000091172   -0.000140879    0.000050995
  19   C   :   -0.000058745   -0.000177258   -0.000023984
  20   H   :    0.000031336   -0.000028868   -0.000032049
  21   H   :    0.000025667   -0.000011904   -0.000022731
  22   H   :    0.000040469   -0.000025723   -0.000029399
  23   H   :    0.000036294   -0.000009249   -0.000046837
  24   H   :    0.000049161    0.000006580   -0.000027374
  25   H   :    0.000022824   -0.000005181    0.000061702
  26   H   :    0.000016957   -0.000035479    0.000068257
  27   H   :    0.000015577   -0.000023662    0.000039093
  28   H   :    0.000016246   -0.000044628    0.000044981
  29   H   :    0.000022795   -0.000027698    0.000055591
  30   H   :    0.000010541    0.000035258   -0.000053785
  31   H   :    0.000020723    0.000057072   -0.000018251
  32   H   :   -0.000044234    0.000018214   -0.000004166
  33   H   :   -0.000041801    0.000019593    0.000021964
  34   H   :   -0.000026883    0.000050742    0.000023436
  35   H   :   -0.000035358    0.000063073    0.000003181
  36   H   :   -0.000023086    0.000044438    0.000002901
  37   H   :   -0.000045984   -0.000058202    0.000023075
  38   H   :   -0.000039179   -0.000062896    0.000037656
  39   H   :   -0.000027983   -0.000073224   -0.000025241
  40   H   :   -0.000019542   -0.000075408   -0.000008384
  41   H   :   -0.000011219   -0.000057840   -0.000000767

Difference to translation invariance:
           :   -0.0000000000   -0.0000000000   -0.0000000000

Difference to rotation invariance:
           :   -0.0000000000   -0.0000000000    0.0000000000

Norm of the Dispersion gradient    ...    0.0008690289
RMS gradient                       ...    0.0000783577
MAX gradient                       ...    0.0002595027
gCP correction                   ... done

------------------
CARTESIAN GRADIENT
------------------

   1   C   :    0.000112456   -0.000112375   -0.000032192
   2   C   :   -0.000075840    0.000012566    0.000143156
   3   O   :   -0.000026032    0.000109620    0.000016781
   4   P   :   -0.000003477   -0.000047939   -0.000154989
   5   S   :    0.000062223   -0.000030811    0.000073086
   6   O   :    0.000031171    0.000018307    0.000031203
   7   C   :   -0.000030231    0.000018922   -0.000025629
   8   C   :    0.000064304    0.000012968    0.000042844
   9   S   :    0.000019751   -0.000047481   -0.000068577
  10   C   :    0.000018643   -0.000038049   -0.000025186
  11   S   :   -0.000112212   -0.000003905   -0.000209943
  12   P   :   -0.000250524   -0.000141731    0.000217950
  13   S   :    0.000199514    0.000142077    0.000037673
  14   O   :   -0.000038702    0.000104344   -0.000030379
  15   C   :    0.000070341   -0.000100154    0.000087299
  16   C   :   -0.000019621    0.000058702    0.000003163
  17   O   :    0.000116918   -0.000112853   -0.000044346
  18   C   :   -0.000056663    0.000086255    0.000088023
  19   C   :   -0.000017716   -0.000030595   -0.000068421
  20   H   :    0.000014803   -0.000012268    0.000009585
  21   H   :   -0.000015680   -0.000020423   -0.000000239
  22   H   :    0.000009030    0.000030063   -0.000000293
  23   H   :   -0.000020732    0.000014678   -0.000054534
  24   H   :    0.000019037    0.000026470   -0.000010881
  25   H   :   -0.000002581    0.000003536    0.000006047
  26   H   :    0.000000998    0.000016017    0.000013433
  27   H   :   -0.000008738   -0.000009617   -0.000062588
  28   H   :    0.000007245    0.000046321    0.000010229
  29   H   :   -0.000066915   -0.000042292    0.000060626
  30   H   :   -0.000020287    0.000018750    0.000007746
  31   H   :    0.000019713    0.000005275   -0.000017179
  32   H   :   -0.000007991    0.000022853   -0.000002185
  33   H   :    0.000000136    0.000001159    0.000014909
  34   H   :    0.000003684   -0.000018044   -0.000002147
  35   H   :   -0.000022815    0.000022470    0.000018554
  36   H   :    0.000015132    0.000001450    0.000044762
  37   H   :    0.000003108   -0.000020529   -0.000008809
  38   H   :   -0.000008757    0.000001294   -0.000034212
  39   H   :   -0.000005661   -0.000033477    0.000003679
  40   H   :   -0.000032800    0.000029040   -0.000030332
  41   H   :    0.000055766    0.000019410   -0.000047687

Difference to translation invariance:
           :    0.0000000000   -0.0000000000   -0.0000000000

Difference to rotation invariance:
           :    0.0010454960    0.0000227727   -0.0001074142

Norm of the Cartesian gradient     ...    0.0007104667
RMS gradient                       ...    0.0000640606
MAX gradient                       ...    0.0002505240

-------
TIMINGS
-------

Total SCF gradient time     ....       46.587 sec

Densities                   ....       0.007 sec  (  0.0%)
One electron gradient       ....       2.033 sec  (  4.4%)
RI-J Coulomb gradient       ....       9.203 sec  ( 19.8%)
XC gradient                 ....      21.854 sec  ( 46.9%)
CPCM gradient               ....       7.681 sec  ( 16.5%)
   A-Matrix (El+Nuc)        ....       0.262 sec  (  0.6%)
   Potential                ....       7.418 sec  ( 15.9%)
SMD gradient                ....       0.022 sec  (  0.0%)

Maximum memory used throughout the entire SCFGRAD-calculation: 83.4 MB

------------------------------------------------------------------------------
                              ORCA PROPERTY CALCULATIONS
------------------------------------------------------------------------------

GBWName                                 ... xtb_opt.gbw
Number of atoms                         ...     41
Number of basis functions               ...    539
Max core memory                         ...   1024 MB

Electric properties:
Dipole moment                           ... YES
Quadrupole moment                       ...  NO
Static polarizability (Dipole/Dipole)   ...  NO
Static polarizability (Dipole/Quad.)    ...  NO
Static polarizability (Quad./Quad.)     ...  NO
Static polarizability (Velocity)        ...  NO

Atomic electric properties:
Dipole moment                           ...  NO
Quadrupole moment                       ...  NO
Static polarizability                   ...  NO

Choice of electric origin               ... Center of mass
Position of electric origin             ...     0.025197     0.037370     0.087602

General magnetic properties:
Magnetizability                         ...  NO

EPR properties:
g-Tensor (aka g-matrix)                 ...  NO
Zero-Field splitting spin-orbit         ...  NO
Zero-field splitting spin-spin          ...  NO
Hyperfine couplings                     ...  NO (   0 nuclei)
Quadrupole couplings                    ...  NO (   0 nuclei)
Contact density                         ...  NO (   0 nuclei)

NMR properties:
Chemical shifts                         ...  NO (   0 nuclei)
Spin-rotation constants                 ...  NO (   0 nuclei)
Spin-spin couplings                     ...  NO (   0 nuclei,    0 pairs)

Choice of magnetic origin               ... GIAO
Position of magnetic origin             ...     0.000000     0.000000     0.000000

Properties with geometric perturbations:
SCF Hessian                             ...  NO
IR spectrum                             ...  NO
VCD spectrum                            ...  NO
X-ray spectroscopy properties:
SCF XES/XAS/RIXS spectra                ...  NO


-------------
DIPOLE MOMENT
-------------

Method             : SCF
Type of density    : Electron Density
Multiplicity       :   1
Irrep              :   0
Energy             : -2932.5077799653699913 Eh
Relativity type    : 
Basis              : AO
                                X                 Y                 Z
Electronic contribution:     -8.508279250       9.123868394      -2.520835634
Nuclear contribution   :      9.528311214      -9.545272667       2.921797431
                        -----------------------------------------
Total Dipole Moment    :      1.020031964      -0.421404273       0.400961797
                        -----------------------------------------
Magnitude (a.u.)       :      1.174230442
Magnitude (Debye)      :      2.984656589



--------------------
Rotational spectrum 
--------------------
 
Rotational constants in cm-1:             0.013041             0.004129             0.004048 
Rotational constants in MHz :           390.963012           123.795540           121.368190 

Dipole components along the rotational axes: 
x,y,z [a.u.] :     1.094752    -0.176640    -0.386177 
x,y,z [Debye]:     2.782640    -0.448982    -0.981584 

 

Dipole moment calculation done in   0.1 sec 

Maximum memory used throughout the entire PROP-calculation: 51.0 MB

--------------------------------
SUGGESTED CITATIONS FOR THIS RUN
--------------------------------

Below you find a list of papers that are relevant to this ORCA run
We neither can nor want to force you to cite these papers, but we appreciate if you do
You receive ORCA, which is the product of decades of hard work by many enthusiastic individuals, for free
The only thing we kindly ask in return is that you cite our papers,
We deeply appreciate it, if you show your appreciation for ORCA by not just citing the generic ORCA reference.

Please note that relegating all ORCA citations to the supporting information does *not* help us.
SI sections are not indexed - citations you put there will not count into any citation statistics
But we need these citations in order to attract the funding resources that allow us to do what we are doing

Therefore, if you are a happy ORCA user, please consider citing a few of the papers listed below in the main body of your paper

In addition to the list printed below, the program has created the file xtb_opt.bibtex that contains the list in bibtex format
You can import this file easily into all common literature databanks and citation aid programs


List of essential papers. We consider these as the minimum necessary citations

  1. Neese,F.
     Software update: the ORCA program system, version 5.0
     WIRES Comput. Molec. Sci., 2022 12(1)e1606
     doi.org/10.1002/wcms.1606
  2. Grimme,S.; Hansen,A.; Ehlert,S.; Mewes,J.
     r2SCAN-3c: A 'Swiss army knife' composite electronic-structure method
     J. Chem. Phys., 2021 154 064103
     doi.org/10.1063/5.0040021

List of papers to cite with high priority. The work reported in these papers was absolutely
necessary for this run to complete.
Our perspective: the developers of density functionals and basis sets usually get cited in chemistry papers
Good! But without the algorithms to do something with them, the functionals or basis sets would not do anything.
Hence, in our opinion, the algorithm design and method developments papers are equally worthy of getting cited

  1. Neese,F.
     An improvement of the resolution of the identity approximation for the formation of the Coulomb matrix
     J. Comp. Chem., 2003 24(14)1740-1747
     doi.org/10.1002/jcc.10318
  2. Garcia-Rates,M.; Neese,F.
     Effect of the Solute Cavity on the Solvation Energy and its Derivatives within the Framework of the Gaussian Charge Scheme
     J. Comput. Chem., 2020 41 922-939
     doi.org/10.1002/jcc.26139
  3. Neese,F.
     The SHARK Integral Generation and Digestion System
     J. Comp. Chem., 2022  1-16
     doi.org/10.1002/jcc.26942
  4. Lehtola,S.; Steigemann,C.; Oliveira,M.; Marques,M.
     Recent developments in Libxc - A comprehensive library of functionals for density functional theory
     Software X, 2018 7 
     doi.org/10.1016/j.softx.2017.11.002
  5. Caldeweyher,E.; Bannwarth,C.; Grimme,S.
     Extension of the D3 dispersion coefficient model
     J. Chem. Phys., 2017 147 034112-XXXX
     doi.org/10.1063/1.4993215
  6. Caldeweyher,E.; Ehlert,S.; Hansen,A.; Neugebauer,H.; Spicher,S.; Bannwarth,C.; Grimme,S.
     A generally applicable atomic-charge dependent London dispersion correction
     J. Chem. Phys., 2019 150 154122-XXXX
     doi.org/10.1063/1.5090222
  7. Caldeweyher,E.; Mewes,J.; Ehlert,S.; Grimme,S.
     Extension and evaluation of the D4 London-dispersion model for periodic systems
     Phys. Chem. Chem. Phys., 2020 22(16)8499-8512
     doi.org/10.1039/D0CP00502A

List of suggested additional citations. These are papers that are important in the 'surrounding' of 
of this run, or papers that preceded the highly important papers. If you like your results we are grateful for a citation.

  1. Neese,F.
     The ORCA program system
     WIRES Comput. Molec. Sci., 2012 2(1)73-78
     doi.org/10.1002/wcms.81
  2. Neese,F.
     Software update: the ORCA program system, version 4.0
     WIRES Comput. Molec. Sci., 2018 8(1)1-6
     doi.org/10.1002/wcms.1327
  3. Neese,F.; Wennmohs,F.; Becker,U.; Riplinger,C.
     The ORCA quantum chemistry program package
     J. Chem. Phys., 2020 152 Art. No. L224108
     doi.org/10.1063/5.0004608

List of optional additional citations

  1. Neese,F.
     Approximate second-order SCF convergence for spin unrestricted wavefunctions
     Chem. Phys. Lett., 2000 325(1-3)93-98
     doi.org/10.1016/s0009-2614(00)00662-x

Timings for individual modules:

Sum of individual times          ...       79.156 sec (=   1.319 min)
Startup calculation              ...        3.157 sec (=   0.053 min)   4.0 %
SCF iterations                   ...       29.000 sec (=   0.483 min)  36.6 %
Property calculations            ...        0.250 sec (=   0.004 min)   0.3 %
SCF Gradient evaluation          ...       46.748 sec (=   0.779 min)  59.1 %
                             ****ORCA TERMINATED NORMALLY****
TOTAL RUN TIME: 0 days 0 hours 1 minutes 20 seconds 146 msec
  ------------------------------------------------------------------------
          * successful ORCA run, taking over control again...

         :::::::::::::::::::::::::::::::::::::::::::::::::::::
         ::                  ORCA SUMMARY                   ::
         :::::::::::::::::::::::::::::::::::::::::::::::::::::
         :: total energy           -2932.483093834549 Eh    ::
         :: gradient norm              0.000710466669 Eh/a0 ::
         :: HOMO-LUMO gap              0.000000000000 eV    ::
         :::::::::::::::::::::::::::::::::::::::::::::::::::::

           -------------------------------------------------
          |                Property Printout                |
           -------------------------------------------------
           -------------------------------------------------
          |                Geometry Summary                 |
           -------------------------------------------------

      molecular mass/u    :      384.4756129
   center of mass at/Å    :        0.0133268       0.0198135       0.0463340
  moments of inertia/u·Å² :        0.1292692E+04   0.4082445E+04   0.4164084E+04
rotational constants/cm⁻¹ :        0.1304071E-01   0.4129298E-02   0.4048341E-02

 * 34 selected distances

     #   Z          #   Z                                           value/Å
     1   6 C        2   6 C                                       1.5065449
     3   8 O        4  15 P                                       1.6118274
     4  15 P        5  16 S                                       1.9473548
     4  15 P        6   8 O                                       1.6050917
     7   6 C        8   6 C                                       1.5083897
     4  15 P        9  16 S                                       2.1206206
    11  16 S       12  15 P                                       2.1371275 (max)
    12  15 P       13  16 S                                       1.9468060
    12  15 P       14   8 O                                       1.6069771
    15   6 C       16   6 C                                       1.5086006
    12  15 P       17   8 O                                       1.6083128
    18   6 C       19   6 C                                       1.5087124
     1   6 C       20   1 H                                       1.0935325
     1   6 C       21   1 H                                       1.0941365
     1   6 C       22   1 H                                       1.0936401
     2   6 C       23   1 H                                       1.0952429
     2   6 C       24   1 H                                       1.0940285
     7   6 C       25   1 H                                       1.0941479
     7   6 C       26   1 H                                       1.0916916 (min)
     8   6 C       27   1 H                                       1.0948728
     8   6 C       28   1 H                                       1.0936530
     8   6 C       29   1 H                                       1.0938915
    10   6 C       30   1 H                                       1.0937632
    10   6 C       31   1 H                                       1.0940294
    15   6 C       32   1 H                                       1.0940444
    15   6 C       33   1 H                                       1.0917683
    16   6 C       34   1 H                                       1.0937276
    16   6 C       35   1 H                                       1.0934871
    16   6 C       36   1 H                                       1.0949594
    18   6 C       37   1 H                                       1.0944071
    18   6 C       38   1 H                                       1.0921960
    19   6 C       39   1 H                                       1.0925207
    19   6 C       40   1 H                                       1.0951015
    19   6 C       41   1 H                                       1.0937800

 * 4 distinct bonds (by element types)

   Z      Z             #   av. dist./Å        max./Å        min./Å
   1 H    6 C          22     1.0937555     1.0952429     1.0916916
   6 C    6 C           4     1.5080619     1.5087124     1.5065449
   8 O   15 P           4     1.6080522     1.6118274     1.6050917
  15 P   16 S           4     2.0379772     2.1371275     1.9468060


optimized geometry written to: xtbopt.coord


           -------------------------------------------------
          | TOTAL ENERGY            -2932.483093834549 Eh   |
          | GRADIENT NORM               0.000710466669 Eh/α |
           -------------------------------------------------

------------------------------------------------------------------------
 * finished run on 2025/04/10 at 17:38:57.997     
------------------------------------------------------------------------
 total:
 * wall-time:     0 d,  0 h, 13 min, 30.657 sec
 *  cpu-time:     0 d,  0 h,  0 min,  4.914 sec
 * ratio c/w:     0.006 speedup
 SCF:
 * wall-time:     0 d,  0 h,  1 min, 38.101 sec
 *  cpu-time:     0 d,  0 h,  0 min,  1.493 sec
 * ratio c/w:     0.015 speedup
 ANC optimizer:
 * wall-time:     0 d,  0 h, 11 min, 52.430 sec
 *  cpu-time:     0 d,  0 h,  0 min,  2.908 sec
 * ratio c/w:     0.004 speedup

