
                                 *****************
                                 * O   R   C   A *
                                 *****************

                                            #,                                       
                                            ###                                      
                                            ####                                     
                                            #####                                    
                                            ######                                   
                                           ########,                                 
                                     ,,################,,,,,                         
                               ,,#################################,,                 
                          ,,##########################################,,             
                       ,#########################################, ''#####,          
                    ,#############################################,,   '####,        
                  ,##################################################,,,,####,       
                ,###########''''           ''''###############################       
              ,#####''   ,,,,##########,,,,          '''####'''          '####       
            ,##' ,,,,###########################,,,                        '##       
           ' ,,###''''                  '''############,,,                           
         ,,##''                                '''############,,,,        ,,,,,,###''
      ,#''                                            '''#######################'''  
     '                                                          ''''####''''         
             ,#######,   #######,   ,#######,      ##                                
            ,#'     '#,  ##    ##  ,#'     '#,    #''#        ,####,   ,####,        
            ##       ##  ##   ,#'  ##            #'  '#       #'       #'  '#        
            ##       ##  #######   ##           ,######,      #####,   #    #        
            '#,     ,#'  ##    ##  '#,     ,#' ,#      #,     #,   #   #,  ,#        
             '#######'   ##     ##  '#######'  #'      '#     '####' # '####'        



                #########################################################
                #                        -***-                          #
                #          Department of theory and spectroscopy        #
                #                                                       #
                #                      Frank Neese                      #
                #                                                       #
                #     Directorship, Architecture, Infrastructure        #
                #                    SHARK, DRIVERS                     #
                #        Core code/Algorithms in most modules           #
                #                                                       #
                #        Max Planck Institute fuer Kohlenforschung      #
                #                Kaiser Wilhelm Platz 1                 #
                #                 D-45470 Muelheim/Ruhr                 #
                #                      Germany                          #
                #                                                       #
                #                  All rights reserved                  #
                #                        -***-                          #
                #########################################################


                         Program Version 6.0.0  -   RELEASE  -


 With contributions from (in alphabetic order):
   Daniel Aravena         : Magnetic Suceptibility
   Michael Atanasov       : Ab Initio Ligand Field Theory (pilot matlab implementation)
   Alexander A. Auer      : GIAO ZORA, VPT2 properties, NMR spectrum
   Ute Becker             : All parallelization in ORCA, NUMFREQ, NUMCALC
   Giovanni Bistoni       : ED, misc. LED, open-shell LED, HFLD
   Martin Brehm           : Molecular dynamics
   Dmytro Bykov           : pre 5.0 version of the SCF Hessian
   Marcos Casanova-Páez   : Triplet and SCS-CIS(D). UHF-(DLPNO)-IP/EA/STEOM-CCSD. UHF-CVS-IP/STEOM-CCSD
   Vijay G. Chilkuri      : MRCI spin determinant printing, contributions to CSF-ICE
   Pauline Colinet        : FMM embedding
   Dipayan Datta          : RHF DLPNO-CCSD density
   Achintya Kumar Dutta   : EOM-CC, STEOM-CC
   Nicolas Foglia         : Exact transition moments, OPA infrastructure, MCD improvements
   Dmitry Ganyushin       : Spin-Orbit,Spin-Spin,Magnetic field MRCI
   Miquel Garcia          : C-PCM and meta-GGA Hessian, CCSD/C-PCM, Gaussian charge scheme
   Tiago L. C. Gouveia    : GS-ROHF, GS-ROCIS
   Yang Guo               : DLPNO-NEVPT2, F12-NEVPT2, CIM, IAO-localization
   Andreas Hansen         : Spin unrestricted coupled pair/coupled cluster methods
   Ingolf Harden          : AUTO-CI MPn and infrastructure 
   Benjamin Helmich-Paris : MC-RPA, TRAH-(SCF,CASSCF), AVAS, COSX integrals, SCF dyn. polar.
   Lee Huntington         : MR-EOM, pCC
   Robert Izsak           : Overlap fitted RIJCOSX, COSX-SCS-MP3, EOM
   Riya Kayal             : Wick's Theorem for AUTO-CI, AUTO-CI UHF-CCSDT
   Emily Kempfer          : AUTO-CI, RHF CISDT and CCSDT
   Christian Kollmar      : KDIIS, OOCD, Brueckner-CCSD(T), CCSD density, CASPT2, CASPT2-K, improved NEVPT2
   Axel Koslowski         : Symmetry handling
   Simone Kossmann        : Meta GGA functionals, TD-DFT gradient, OOMP2, (MP2 Hessian; deprecated post 5.0)
   Lucas Lang             : DCDCAS
   Marvin Lechner         : AUTO-CI (C++ implementation), FIC-MRCC
   Spencer Leger          : CASSCF response
   Dagmar Lenk            : GEPOL surface, SMD, ORCA-2-JSON
   Dimitrios Liakos       : Extrapolation schemes; Compound Job, initial MDCI parallelization
   Dimitrios Manganas     : Further ROCIS development; embedding schemes. LFT, Crystal Embedding
   Dimitrios Pantazis     : SARC Basis sets
   Anastasios Papadopoulos: AUTO-CI, single reference methods and gradients
   Taras Petrenko         : pre 6.0 DFT Hessian and TD-DFT gradient, (ASA, deprecated), ECA, 1-Electron XAS/XES, NRVS
   Peter Pinski           : DLPNO-MP2, DLPNO-MP2 Gradient
   Christoph Reimann      : Effective Core Potentials
   Marius Retegan         : Local ZFS, SOC
   Christoph Riplinger    : Optimizer, TS searches, QM/MM, DLPNO-CCSD(T), (RO)-DLPNO pert. Triples
   Michael Roemelt        : Original ROCIS implementation
   Masaaki Saitow         : Open-shell DLPNO-CCSD energy and density
   Barbara Sandhoefer     : DKH picture change effects
   Kantharuban Sivalingam : CASSCF convergence/infrastructure, NEVPT2 and variants, FIC-MRCI
   Bernardo de Souza      : ESD, SOC TD-DFT
   Georgi Stoychev        : AutoAux, RI-MP2 NMR, DLPNO-MP2 response, X2C
   Van Anh Tran           : RI-MP2 g-tensors
   Willem Van den Heuvel  : Paramagnetic NMR
   Zikuan Wang            : NOTCH, Electric field optimization 
   Frank Wennmohs         : Technical directorship and infrastructure
   Hang Xu                : AUTO-CI-Response properties 


 We gratefully acknowledge several colleagues who have allowed us to
 interface, adapt or use parts of their codes:
   Stefan Grimme, W. Hujo, H. Kruse, P. Pracht,  : VdW corrections, initial TS optimization,
                  C. Bannwarth, S. Ehlert,         DFT functionals, gCP, sTDA/sTD-DF
                  L. Wittmann, M. Mueller
   Ed Valeev, F. Pavosevic, A. Kumar             : LibInt (2-el integral package), F12 methods
   Garnet Chan, S. Sharma, J. Yang, R. Olivares  : DMRG
   Ulf Ekstrom                                   : XCFun DFT Library
   Mihaly Kallay                                 : mrcc  (arbitrary order and MRCC methods)
   Frank Weinhold                                : gennbo (NPA and NBO analysis)
   Simon Mueller                                 : openCOSMO-RS
   Christopher J. Cramer and Donald G. Truhlar   : smd solvation model
   Lars Goerigk                                  : TD-DFT with DH, B97 family of functionals
   V. Asgeirsson, H. Jonsson                     : NEB implementation
   FAccTs GmbH                                   : IRC, NEB, NEB-TS, DLPNO-Multilevel, CI-OPT
                                                   MM, QMMM, 2- and 3-layer-ONIOM, Crystal-QMMM,
                                                   LR-CPCM, SF, NACMEs, symmetry and pop. for TD-DFT,
                                                   nearIR, NL-DFT gradient (VV10), updates on ESD,
                                                   ML-optimized integration grids, MBIS, APM,
                                                   GOAT, DOCKER, SOLVATOR, interface openCOSMO-RS
   S Lehtola, MJT Oliveira, MAL Marques          : LibXC Library
   Liviu Ungur et al                             : ANISO software


 Your calculation uses the libint2 library for the computation of 2-el integrals
 For citations please refer to: http://libint.valeyev.net

 Your ORCA version has been built with support for libXC version: 6.2.2
 For citations please refer to: https://libxc.gitlab.io

 This ORCA versions uses:
   CBLAS   interface :  Fast vector & matrix operations
   LAPACKE interface :  Fast linear algebra routines
   SCALAPACK package :  Parallel linear algebra routines
   Shared memory     :  Shared parallel matrices
   BLAS/LAPACK       :  OpenBLAS 0.3.27  USE64BITINT DYNAMIC_ARCH NO_AFFINITY SapphireRapids SINGLE_THREADED
        Core in use  :  SapphireRapids
   Copyright (c) 2011-2014, The OpenBLAS Project


Your calculation utilizes the geometrical counterpoise correction gCP
Please cite in your paper:
H.Kruse, S. Grimme J.Chem.Phys., 136, (2012), 154101 
   

Your calculation utilizes the atom-pairwise dispersion correction
based on EEQ partial charges (D4)


Your calculation utilizes the SMD solvation module
Please cite in your paper:
A.V. Marenich, C.J. Cramer, D.G. Truhlar J. Phys. Chem. B, 113, (2009), 6378 

================================================================================

----- Orbital basis set information -----
Your calculation utilizes the basis: def2-mTZVPP
   Stefan Grimme, Andreas Hansen, Sebastian Ehlert, and Jan-Michael Mewes 
   J. Chem. Phys. 154, 064103 (2021). DOI: 10.1063/5.0040021

----- AuxJ basis set information -----
Your calculation utilizes the auxiliary basis: def2/J
   F. Weigend, Phys. Chem. Chem. Phys. 8, 1057 (2006).

================================================================================
                                        WARNINGS
                       Please study these warnings very carefully!
================================================================================

Using LibXC functional ID 497 : Re-regularized SCAN exchange by Furness et al
[ 1]  J. W. Furness, A. D. Kaplan, J. Ning, J. P. Perdew, and J. Sun.,  J. Phys. Chem. Lett. 11, 8208-8215 (2020)
[ 2]  J. W. Furness, A. D. Kaplan, J. Ning, J. P. Perdew, and J. Sun.,  J. Phys. Chem. Lett. 11, 9248-9248 (2020)
Using LibXC functional ID 498 : Re-regularized SCAN correlation by Furness et al
[ 1]  J. W. Furness, A. D. Kaplan, J. Ning, J. P. Perdew, and J. Sun.,  J. Phys. Chem. Lett. 11, 8208-8215 (2020)
[ 2]  J. W. Furness, A. D. Kaplan, J. Ning, J. P. Perdew, and J. Sun.,  J. Phys. Chem. Lett. 11, 9248-9248 (2020)
Using LibXC functional ID 497 : Re-regularized SCAN exchange by Furness et al
[ 1]  J. W. Furness, A. D. Kaplan, J. Ning, J. P. Perdew, and J. Sun.,  J. Phys. Chem. Lett. 11, 8208-8215 (2020)
[ 2]  J. W. Furness, A. D. Kaplan, J. Ning, J. P. Perdew, and J. Sun.,  J. Phys. Chem. Lett. 11, 9248-9248 (2020)
Using LibXC functional ID 498 : Re-regularized SCAN correlation by Furness et al
[ 1]  J. W. Furness, A. D. Kaplan, J. Ning, J. P. Perdew, and J. Sun.,  J. Phys. Chem. Lett. 11, 8208-8215 (2020)
[ 2]  J. W. Furness, A. D. Kaplan, J. Ning, J. P. Perdew, and J. Sun.,  J. Phys. Chem. Lett. 11, 9248-9248 (2020)

================================================================================
                                       INPUT FILE
================================================================================
NAME = sp_solv.inp
|  1> ! r2scan-3c def2/J RI DEFGRID2 scfconv6 printgap
|  2> %output
|  3>     printlevel normal
|  4> end
|  5> %cpcm
|  6>     smd true
|  7>     smdsolvent "water"
|  8> end
|  9> * xyz 0 1
| 10> C 2.9642166476 2.3509028794 -1.9087867396
| 11> C 3.745605734 2.1198409825 -0.6308330595
| 12> O 3.6540540177 0.75538895 -0.1908577804
| 13> P 2.3208833771 0.1566765502 0.4388861127
| 14> S 1.4358209186 1.3997749534 1.6719768143
| 15> O 2.8558535177 -1.1901705637 1.0710659554
| 16> C 2.9854402984 -1.411974117 2.4942412984
| 17> C 1.9450675659 -2.4097425769 2.9633219258
| 18> S 1.3022091296 -0.6058730194 -1.2608462427
| 19> C 0.3009957553 -1.8781685505 -0.4428497822
| 20> S -0.9110121293 -1.2046675457 0.7197374797
| 21> P -2.1258453945 -0.2223133743 -0.734688303
| 22> S -2.2085520182 -1.1176308188 -2.4703826771
| 23> O -1.6349942415 1.2677069129 -0.8441894453
| 24> C -1.7603062594 2.2306661242 0.2373282205
| 25> C -1.0444127726 3.4923515016 -0.1921356638
| 26> O -3.5087632645 -0.0639152195 0.0301383156
| 27> C -4.362724926 -1.2049889148 0.2627637766
| 28> C -5.734400882 -0.6876814541 0.6445247326
| 29> H 3.1060517103 3.3742331111 -2.2412681716
| 30> H 3.2984117051 1.6676407022 -2.685378716
| 31> H 1.9015139711 2.1782899555 -1.7349631326
| 32> H 3.378197903 2.7682571716 0.172163783
| 33> H 4.8141520705 2.2814826853 -0.7779017465
| 34> H 3.9987007315 -1.7905784797 2.6354631258
| 35> H 2.8714059001 -0.457646049 3.0175406715
| 36> H 2.0774016774 -2.5850979168 4.025987725
| 37> H 0.9431530464 -2.0181517048 2.7914911278
| 38> H 2.054886965 -3.350655451 2.4310479459
| 39> H 0.9444559953 -2.5535421815 0.1146521753
| 40> H -0.2254536371 -2.3965472777 -1.2453744312
| 41> H -2.8230544774 2.4062619739 0.4089436541
| 42> H -1.3090213047 1.8070154548 1.1391506036
| 43> H -1.4333099648 3.8372661261 -1.1458022177
| 44> H -1.1948007715 4.2566989683 0.5630440026
| 45> H 0.0210931687 3.3023854191 -0.2900869564
| 46> H -4.3980855781 -1.8039555164 -0.6530778265
| 47> H -3.9214141275 -1.8012974715 1.0657965247
| 48> H -6.39153742 -1.5302579043 0.8325083678
| 49> H -5.6658466114 -0.0775843394 1.540462861
| 50> H -6.1443961932 -0.0862728641 -0.1619664948
| 51> *
| 52> 
| 53>                          ****END OF INPUT****
================================================================================

                       ****************************
                       * Single Point Calculation *
                       ****************************

---------------------------------
CARTESIAN COORDINATES (ANGSTROEM)
---------------------------------
  C      2.964217    2.350903   -1.908787
  C      3.745606    2.119841   -0.630833
  O      3.654054    0.755389   -0.190858
  P      2.320883    0.156677    0.438886
  S      1.435821    1.399775    1.671977
  O      2.855854   -1.190171    1.071066
  C      2.985440   -1.411974    2.494241
  C      1.945068   -2.409743    2.963322
  S      1.302209   -0.605873   -1.260846
  C      0.300996   -1.878169   -0.442850
  S     -0.911012   -1.204668    0.719737
  P     -2.125845   -0.222313   -0.734688
  S     -2.208552   -1.117631   -2.470383
  O     -1.634994    1.267707   -0.844189
  C     -1.760306    2.230666    0.237328
  C     -1.044413    3.492352   -0.192136
  O     -3.508763   -0.063915    0.030138
  C     -4.362725   -1.204989    0.262764
  C     -5.734401   -0.687681    0.644525
  H      3.106052    3.374233   -2.241268
  H      3.298412    1.667641   -2.685379
  H      1.901514    2.178290   -1.734963
  H      3.378198    2.768257    0.172164
  H      4.814152    2.281483   -0.777902
  H      3.998701   -1.790578    2.635463
  H      2.871406   -0.457646    3.017541
  H      2.077402   -2.585098    4.025988
  H      0.943153   -2.018152    2.791491
  H      2.054887   -3.350655    2.431048
  H      0.944456   -2.553542    0.114652
  H     -0.225454   -2.396547   -1.245374
  H     -2.823054    2.406262    0.408944
  H     -1.309021    1.807015    1.139151
  H     -1.433310    3.837266   -1.145802
  H     -1.194801    4.256699    0.563044
  H      0.021093    3.302385   -0.290087
  H     -4.398086   -1.803956   -0.653078
  H     -3.921414   -1.801297    1.065797
  H     -6.391537   -1.530258    0.832508
  H     -5.665847   -0.077584    1.540463
  H     -6.144396   -0.086273   -0.161966

----------------------------
CARTESIAN COORDINATES (A.U.)
----------------------------
  NO LB      ZA    FRAG     MASS         X           Y           Z
   0 C     6.0000    0    12.011    5.601558    4.442563   -3.607084
   1 C     6.0000    0    12.011    7.078169    4.005919   -1.192102
   2 O     8.0000    0    15.999    6.905161    1.427478   -0.360669
   3 P    15.0000    0    30.974    4.385834    0.296076    0.829375
   4 S    16.0000    0    32.060    2.713308    2.645191    3.159578
   5 O     8.0000    0    15.999    5.396781   -2.249096    2.024021
   6 C     6.0000    0    12.011    5.641665   -2.668244    4.713433
   7 C     6.0000    0    12.011    3.675645   -4.553754    5.599867
   8 S    16.0000    0    32.060    2.460819   -1.144934   -2.382654
   9 C     6.0000    0    12.011    0.568800   -3.549224   -0.836865
  10 S    16.0000    0    32.060   -1.721563   -2.276492    1.360107
  11 P    15.0000    0    30.974   -4.017266   -0.420111   -1.388360
  12 S    16.0000    0    32.060   -4.173558   -2.112016   -4.668347
  13 O     8.0000    0    15.999   -3.089691    2.395619   -1.595287
  14 C     6.0000    0    12.011   -3.326497    4.215348    0.448485
  15 C     6.0000    0    12.011   -1.973654    6.599588   -0.363084
  16 O     8.0000    0    15.999   -6.630602   -0.120782    0.056953
  17 C     6.0000    0    12.011   -8.244355   -2.277099    0.496552
  18 C     6.0000    0    12.011  -10.836447   -1.299530    1.217975
  19 H     1.0000    0     1.008    5.869587    6.376376   -4.235383
  20 H     1.0000    0     1.008    6.233095    3.151384   -5.074630
  21 H     1.0000    0     1.008    3.593341    4.116371   -3.278605
  22 H     1.0000    0     1.008    6.383869    5.231248    0.325342
  23 H     1.0000    0     1.008    9.097429    4.311377   -1.470021
  24 H     1.0000    0     1.008    7.556449   -3.383703    4.980304
  25 H     1.0000    0     1.008    5.426171   -0.864826    5.702325
  26 H     1.0000    0     1.008    3.925720   -4.885127    7.608014
  27 H     1.0000    0     1.008    1.782301   -3.813754    5.275154
  28 H     1.0000    0     1.008    3.883174   -6.331821    4.594015
  29 H     1.0000    0     1.008    1.784763   -4.825495    0.216661
  30 H     1.0000    0     1.008   -0.426046   -4.528818   -2.353417
  31 H     1.0000    0     1.008   -5.334800    4.547176    0.772792
  32 H     1.0000    0     1.008   -2.473692    3.414764    2.152683
  33 H     1.0000    0     1.008   -2.708563    7.251382   -2.165252
  34 H     1.0000    0     1.008   -2.257846    8.043995    1.063999
  35 H     1.0000    0     1.008    0.039860    6.240604   -0.548185
  36 H     1.0000    0     1.008   -8.311177   -3.408982   -1.234138
  37 H     1.0000    0     1.008   -7.410399   -3.403959    2.014064
  38 H     1.0000    0     1.008  -12.078255   -2.891768    1.573213
  39 H     1.0000    0     1.008  -10.706898   -0.146613    2.911053
  40 H     1.0000    0     1.008  -11.611226   -0.163032   -0.306072

--------------------------------
INTERNAL COORDINATES (ANGSTROEM)
--------------------------------
 C      0   0   0     0.000000000000     0.00000000     0.00000000
 C      1   0   0     1.515626640379     0.00000000     0.00000000
 O      2   1   0     1.436554667240   111.72721977     0.00000000
 P      3   2   1     1.591344672134   122.13653192   287.59597817
 S      4   3   2     1.961923004059   112.84681865   318.79487989
 O      4   3   2     1.581088723972   101.25976538   193.91192346
 C      6   4   3     1.446173435972   123.67276717   108.85773551
 C      7   6   4     1.515900378357   110.11904798   109.54938245
 S      4   3   2     2.123268506009   102.72417350    90.64842513
 C      9   4   3     1.813913544997    98.95824995   154.60879591
 S     10   9   4     1.809468390807   113.47709487    64.59541721
 P     11  10   9     2.134524288380    96.58774193    66.61553720
 S     12  11  10     1.954755399612   114.72804925    32.54344667
 O     12  11  10     1.572604785327   107.80967897   266.13393377
 C     14  12  11     1.453504043990   123.29827091   293.78560182
 C     15  14  12     1.512875640595   107.48703512   173.88880154
 O     12  11  10     1.588241658920   102.31783890   158.86907441
 C     17  12  11     1.444096361924   120.90838946   287.09738396
 C     18  17  12     1.514874042517   107.83118671   195.63916903
 H      1   2   3     1.085295282744   109.55323439   183.40543839
 H      1   2   3     1.087027431603   110.36862195   304.03770839
 H      1   2   3     1.090571797952   110.11205184    63.54995194
 H      2   1   3     1.095552827404   110.78682329   238.97147856
 H      2   1   3     1.090664252659   111.64211994   116.18546834
 H      7   6   4     1.090862765556   105.29941199   230.05419707
 H      7   6   4     1.094343702525   109.11676176   347.77692033
 H      8   7   6     1.085136126524   109.00799921   178.32253844
 H      8   7   6     1.089358498676   110.23082689   297.85955108
 H      8   7   6     1.086596947697   110.42680825    58.46310991
 H     10   9   4     1.086728602056   109.90313796   304.38684494
 H     10   9   4     1.090830545880   105.54146101   183.93922390
 H     15  14  12     1.090742652665   107.92237264   294.63376604
 H     15  14  12     1.093810591776   108.74177785    53.39208247
 H     16  15  14     1.086133978993   110.16066161    54.83692294
 H     16  15  14     1.084960795885   108.92584019   175.25482320
 H     16  15  14     1.086731097912   110.10633669   294.44943125
 H     18  17  12     1.094886846902   108.45859041   316.65747682
 H     18  17  12     1.093252354302   108.09585000    74.95420443
 H     19  18  17     1.084943017448   109.08053995   180.47671913
 H     19  18  17     1.086104648413   110.03254019   300.44578847
 H     19  18  17     1.086377718478   110.10139056    60.58338055

---------------------------
INTERNAL COORDINATES (A.U.)
---------------------------
 C      0   0   0     0.000000000000     0.00000000     0.00000000
 C      1   0   0     2.864119271591     0.00000000     0.00000000
 O      2   1   0     2.714694897491   111.72721977     0.00000000
 P      3   2   1     3.007205615008   122.13653192   287.59597817
 S      4   3   2     3.707497173512   112.84681865   318.79487989
 O      4   3   2     2.987824681738   101.25976538   193.91192346
 C      6   4   3     2.732871736140   123.67276717   108.85773551
 C      7   6   4     2.864636561402   110.11904798   109.54938245
 S      4   3   2     4.012395985137   102.72417350    90.64842513
 C      9   4   3     3.427799830655    98.95824995   154.60879591
 S     10   9   4     3.419399706613   113.47709487    64.59541721
 P     11  10   9     4.033666331242    96.58774193    66.61553720
 S     12  11  10     3.693952364070   114.72804925    32.54344667
 O     12  11  10     2.971792361162   107.80967897   266.13393377
 C     14  12  11     2.746724577688   123.29827091   293.78560182
 C     15  14  12     2.858920635405   107.48703512   173.88880154
 O     12  11  10     3.001341769843   102.31783890   158.86907441
 C     17  12  11     2.728946635029   120.90838946   287.09738396
 C     18  17  12     2.862697067742   107.83118671   195.63916903
 H      1   2   3     2.050910858823   109.55323439   183.40543839
 H      1   2   3     2.054184145790   110.36862195   304.03770839
 H      1   2   3     2.060882027507   110.11205184    63.54995194
 H      2   1   3     2.070294809036   110.78682329   238.97147856
 H      2   1   3     2.061056741583   111.64211994   116.18546834
 H      7   6   4     2.061431876592   105.29941199   230.05419707
 H      7   6   4     2.068009894153   109.11676176   347.77692033
 H      8   7   6     2.050610097154   109.00799921   178.32253844
 H      8   7   6     2.058589224158   110.23082689   297.85955108
 H      8   7   6     2.053370649102   110.42680825    58.46310991
 H     10   9   4     2.053619439786   109.90313796   304.38684494
 H     10   9   4     2.061370990229   105.54146101   183.93922390
 H     15  14  12     2.061204896125   107.92237264   294.63376604
 H     15  14  12     2.067002460839   108.74177785    53.39208247
 H     16  15  14     2.052495765042   110.16066161    54.83692294
 H     16  15  14     2.050278770264   108.92584019   175.25482320
 H     16  15  14     2.053624156268   110.10633669   294.44943125
 H     18  17  12     2.069036288276   108.45859041   316.65747682
 H     18  17  12     2.065947544896   108.09585000    74.95420443
 H     19  18  17     2.050245173887   109.08053995   180.47671913
 H     19  18  17     2.052440338279   110.03254019   300.44578847
 H     19  18  17     2.052956365917   110.10139056    60.58338055

---------------------
BASIS SET INFORMATION
---------------------
There are 5 groups of distinct atoms

 Group   1 Type C   : 11s6p1d contracted to 5s3p1d pattern {62111/411/1}
 Group   2 Type O   : 11s6p2d contracted to 5s3p2d pattern {62111/411/11}
 Group   3 Type P   : 14s9p2d contracted to 5s4p2d pattern {73211/6111/11}
 Group   4 Type S   : 14s9p2d contracted to 5s4p2d pattern {73211/6111/11}
 Group   5 Type H   : 4s1p contracted to 2s1p pattern {31/1}

Atom   0C    basis set group =>   1
Atom   1C    basis set group =>   1
Atom   2O    basis set group =>   2
Atom   3P    basis set group =>   3
Atom   4S    basis set group =>   4
Atom   5O    basis set group =>   2
Atom   6C    basis set group =>   1
Atom   7C    basis set group =>   1
Atom   8S    basis set group =>   4
Atom   9C    basis set group =>   1
Atom  10S    basis set group =>   4
Atom  11P    basis set group =>   3
Atom  12S    basis set group =>   4
Atom  13O    basis set group =>   2
Atom  14C    basis set group =>   1
Atom  15C    basis set group =>   1
Atom  16O    basis set group =>   2
Atom  17C    basis set group =>   1
Atom  18C    basis set group =>   1
Atom  19H    basis set group =>   5
Atom  20H    basis set group =>   5
Atom  21H    basis set group =>   5
Atom  22H    basis set group =>   5
Atom  23H    basis set group =>   5
Atom  24H    basis set group =>   5
Atom  25H    basis set group =>   5
Atom  26H    basis set group =>   5
Atom  27H    basis set group =>   5
Atom  28H    basis set group =>   5
Atom  29H    basis set group =>   5
Atom  30H    basis set group =>   5
Atom  31H    basis set group =>   5
Atom  32H    basis set group =>   5
Atom  33H    basis set group =>   5
Atom  34H    basis set group =>   5
Atom  35H    basis set group =>   5
Atom  36H    basis set group =>   5
Atom  37H    basis set group =>   5
Atom  38H    basis set group =>   5
Atom  39H    basis set group =>   5
Atom  40H    basis set group =>   5
---------------------------------
AUXILIARY/J BASIS SET INFORMATION
---------------------------------
There are 5 groups of distinct atoms

 Group   1 Type C   : 12s5p4d2f1g contracted to 6s4p3d1f1g pattern {711111/2111/211/2/1}
 Group   2 Type O   : 12s5p4d2f1g contracted to 6s4p3d1f1g pattern {711111/2111/211/2/1}
 Group   3 Type P   : 14s5p5d2f1g contracted to 8s4p3d1f1g pattern {71111111/2111/311/2/1}
 Group   4 Type S   : 14s5p5d2f1g contracted to 8s4p3d1f1g pattern {71111111/2111/311/2/1}
 Group   5 Type H   : 5s2p1d contracted to 3s1p1d pattern {311/2/1}

Atom   0C    basis set group =>   1
Atom   1C    basis set group =>   1
Atom   2O    basis set group =>   2
Atom   3P    basis set group =>   3
Atom   4S    basis set group =>   4
Atom   5O    basis set group =>   2
Atom   6C    basis set group =>   1
Atom   7C    basis set group =>   1
Atom   8S    basis set group =>   4
Atom   9C    basis set group =>   1
Atom  10S    basis set group =>   4
Atom  11P    basis set group =>   3
Atom  12S    basis set group =>   4
Atom  13O    basis set group =>   2
Atom  14C    basis set group =>   1
Atom  15C    basis set group =>   1
Atom  16O    basis set group =>   2
Atom  17C    basis set group =>   1
Atom  18C    basis set group =>   1
Atom  19H    basis set group =>   5
Atom  20H    basis set group =>   5
Atom  21H    basis set group =>   5
Atom  22H    basis set group =>   5
Atom  23H    basis set group =>   5
Atom  24H    basis set group =>   5
Atom  25H    basis set group =>   5
Atom  26H    basis set group =>   5
Atom  27H    basis set group =>   5
Atom  28H    basis set group =>   5
Atom  29H    basis set group =>   5
Atom  30H    basis set group =>   5
Atom  31H    basis set group =>   5
Atom  32H    basis set group =>   5
Atom  33H    basis set group =>   5
Atom  34H    basis set group =>   5
Atom  35H    basis set group =>   5
Atom  36H    basis set group =>   5
Atom  37H    basis set group =>   5
Atom  38H    basis set group =>   5
Atom  39H    basis set group =>   5
Atom  40H    basis set group =>   5

Checking for AutoStart:
The File: sp_solv.gbw exists
Trying to determine its content:
     ... Fine, the file contains calculation information
     ... Fine, the calculation information was read
     ... Fine, the file contains a basis set
     ... Fine, the basis set was read
     ... Fine, the file contains a geometry
     ... Fine, the geometry was read
     ... Fine, the file contains a set of orbitals
     ... Fine, the orbitals can be read
     => possible old guess file was deleted
     => GBW file was renamed to GES file
     => GES file is set as startup file
     => Guess is set to MORead
     ... now leaving AutoStart

------------------------------------------------------------------------------
                             ORCA STARTUP CALCULATIONS
                           -- RI-GTO INTEGRALS CHOSEN --
------------------------------------------------------------------------------
------------------------------------------------------------------------------
                   ___                                                        
                  /   \      - P O W E R E D   B Y -                         
                 /     \                                                     
                 |  |  |   _    _      __       _____    __    __             
                 |  |  |  | |  | |    /  \     |  _  \  |  |  /  |          
                  \  \/   | |  | |   /    \    | | | |  |  | /  /          
                 / \  \   | |__| |  /  /\  \   | |_| |  |  |/  /          
                |  |  |   |  __  | /  /__\  \  |    /   |      \           
                |  |  |   | |  | | |   __   |  |    \   |  |\   \          
                \     /   | |  | | |  |  |  |  | |\  \  |  | \   \       
                 \___/    |_|  |_| |__|  |__|  |_| \__\ |__|  \__/        
                                                                              
                      - O R C A' S   B I G   F R I E N D -                    
                                      &                                       
                       - I N T E G R A L  F E E D E R -                       
                                                                              
 v1 FN, 2020, v2 2021, v3 2022-2024                                           
------------------------------------------------------------------------------


----------------------
SHARK INTEGRAL PACKAGE
----------------------

Number of atoms                             ...     41
Number of basis functions                   ...    539
Number of shells                            ...    253
Maximum angular momentum                    ...      2
Integral batch strategy                     ... SHARK/LIBINT Hybrid
RI-J (if used) integral strategy            ... SPLIT-RIJ (Revised 2003 algorithm where possible)
Printlevel                                  ...      1
Contraction scheme used                     ... SEGMENTED contraction
Prescreening option                         ... SCHWARTZ
   Thresh                                   ... 1.000e-10
   Tcut                                     ... 1.000e-11
   Tpresel                                  ... 1.000e-11 
Coulomb Range Separation                    ... NOT USED
Exchange Range Separation                   ... NOT USED
Multipole approximations                    ... NOT USED
Finite Nucleus Model                        ... NOT USED
CABS basis                                  ... NOT available
Auxiliary Coulomb fitting basis             ... AVAILABLE
   # of basis functions in Aux-J            ...   1185
   # of shells in Aux-J                     ...    407
   Maximum angular momentum in Aux-J        ...      4
Auxiliary J/K fitting basis                 ... NOT available
Auxiliary Correlation fitting basis         ... NOT available
Auxiliary 'external' fitting basis          ... NOT available

Checking pre-screening integrals            ... done (  0.0 sec) Dimension = 253
Check shell pair data                       ... done (  0.0 sec)
Shell pair information
Shell pair cut-off parameter TPreSel        ...   1.0e-11
Total number of shell pairs                 ...     32131
Shell pairs after pre-screening             ...     21254
Total number of primitive shell pairs       ...    124843
Primitive shell pairs kept                  ...     49582
          la=0 lb=0:   5975 shell pairs
          la=1 lb=0:   7714 shell pairs
          la=1 lb=1:   2529 shell pairs
          la=2 lb=0:   2851 shell pairs
          la=2 lb=1:   1836 shell pairs
          la=2 lb=2:    349 shell pairs

Calculating one electron integrals          ... done (  0.1 sec)
Calculating RI/J V-Matrix + Cholesky decomp.... done (  0.2 sec)
Calculating Nuclear repulsion               ... done (  0.0 sec) ENN=   2772.843084183073 Eh

Diagonalization of the overlap matrix:
Smallest eigenvalue                        ... 2.424e-04
Time for diagonalization                   ...    0.031 sec
Threshold for overlap eigenvalues          ... 1.000e-07
Number of eigenvalues below threshold      ... 0
Time for construction of square roots      ...    0.055 sec
Total time needed                          ...    0.098 sec

-------------------
DFT GRID GENERATION
-------------------

General Integration Accuracy     IntAcc      ... 4.388
Radial Grid Type                 RadialGrid  ... OptM3 with GC (2021)
Angular Grid (max. ang.)         AngularGrid ... 4 (Lebedev-302)
Angular grid pruning method      GridPruning ... 4 (adaptive)
Weight generation scheme         WeightScheme... mBecke (2022)
Basis function cutoff            BFCut       ... 1.0000e-10
Integration weight cutoff        WCut        ... 1.0000e-14
Partially contracted basis set               ... off
Rotationally invariant grid construction     ... off
Angular grids for H and He will be reduced by one unit
Diffuse basis detected: some atoms will have their outermost
                        angular grid increased by 1.

Total number of grid points                  ...   192638
Total number of batches                      ...     3032
Average number of points per batch           ...       63
Average number of grid points per atom       ...     4698
Initializing property integral containers    ... done (  0.0 sec)

SHARK setup successfully completed in   3.1 seconds

Maximum memory used throughout the entire STARTUP-calculation: 101.9 MB
-------------------------------------------------------------------------------
                                 ORCA GUESS
                   Start orbitals & Density for SCF / CASSCF
-------------------------------------------------------------------------------

------------
SCF SETTINGS
------------
Hamiltonian:
 Density Functional     Method          .... DFT(GTOs)
  Functional kind                       .... Exchange
  Functional name                       .... Re-regularized SCAN exchange by Furness et al
  Functional family                     .... MGGA
  Functional refs                              
    [ 0] J. W. Furness, A. D. Kaplan, J. Ning, J. P. Perdew, and J. Sun.,  J. Phys. Chem. Lett. 11, 8208-8215 (2020), doi: 10.1021/acs.jpclett.0c02405
    [ 1] J. W. Furness, A. D. Kaplan, J. Ning, J. P. Perdew, and J. Sun.,  J. Phys. Chem. Lett. 11, 9248-9248 (2020), doi: 10.1021/acs.jpclett.0c03077
  Functional external parameters        .... 6
    Parameter  0 _c1        =  6.670000e-01 : c1 parameter        
    Parameter  1 _c2        =  8.000000e-01 : c2 parameter        
    Parameter  2 _d         =  1.240000e+00 : d parameter         
    Parameter  3 _k1        =  6.500000e-02 : k1 parameter        
    Parameter  4 _eta       =  1.000000e-03 : eta parameter       
    Parameter  5 _dp2       =  3.610000e-01 : dp2 parameter       
  Functional kind                       .... Correlation
  Functional name                       .... Re-regularized SCAN correlation by Furness et al
  Functional family                     .... MGGA
  Functional refs                              
    [ 0] J. W. Furness, A. D. Kaplan, J. Ning, J. P. Perdew, and J. Sun.,  J. Phys. Chem. Lett. 11, 8208-8215 (2020), doi: 10.1021/acs.jpclett.0c02405
    [ 1] J. W. Furness, A. D. Kaplan, J. Ning, J. P. Perdew, and J. Sun.,  J. Phys. Chem. Lett. 11, 9248-9248 (2020), doi: 10.1021/acs.jpclett.0c03077
  Functional external parameters        .... 1
    Parameter  0 _eta       =  1.000000e-03 : Regularization parameter
 Gradients option       PostSCFGGA      .... off
 RI-approximation to the Coulomb term is turned on
   Number of AuxJ basis functions       .... 1185


General Settings:
 Integral files         IntName         .... sp_solv
 Hartree-Fock type      HFTyp           .... RHF
 Total Charge           Charge          ....    0
 Multiplicity           Mult            ....    1
 Number of Electrons    NEL             ....  202
 Basis Dimension        Dim             ....  539
 Nuclear Repulsion      ENuc            ....   2772.8430841831 Eh

Convergence Acceleration:
 AO-DIIS                CNVDIIS         .... on
   Start iteration      DIISMaxIt       ....    12
   Startup error        DIISStart       ....  0.200000
   # of expansion vecs  DIISMaxEq       ....     5
   Bias factor          DIISBfac        ....   1.050
   Max. coefficient     DIISMaxC        ....  10.000
 MO-DIIS                CNVKDIIS        .... off
 Trust-Rad. Augm. Hess. CNVTRAH         .... auto
   Auto Start mean grad. ratio tolernc. ....  1.125000
   Auto Start start iteration           ....     1
   Auto Start num. interpolation iter.  ....    10
   Max. Number of Micro iterations      ....    24
   Max. Number of Macro iterations      .... Maxiter - #DIIS iter
   Number of Davidson start vectors     ....     2
   Converg. threshold    (grad. norm)   ....   3.330e-04
   Grad. Scal. Fac. for Micro threshold ....   0.100
   Minimum threshold for Micro iter.    ....   1.000e-02
   NR start threshold (gradient norm)   ....   1.000e-04
   Initial trust radius                 ....   0.400
   Minimum AH scaling param. (alpha)    ....   1.000
   Maximum AH scaling param. (alpha)    .... 1000.000
   Quad. conv. algorithm                .... NR
   White noise on init. David. guess    .... on
   Maximum white noise                  ....   0.010
   Pseudo random numbers                .... off
   Inactive MOs                         .... canonical
   Orbital update algorithm             .... Taylor
   Preconditioner                       .... Diag
   Full preconditioner red. dimension   ....   250
   COSX micro iterations for RIJONX calc.... off
 SOSCF                  CNVSOSCF        .... on
   Start iteration      SOSCFMaxIt      ....   150
   Startup grad/error   SOSCFStart      ....  0.003300
   Hessian update       SOSCFHessUp     .... L-BFGS
 Level Shifting         CNVShift        .... on
   Level shift para.    LevelShift      ....    0.2500
   Turn off err/grad.   ShiftErr        ....    0.0010
 Zerner damping         CNVZerner       .... off
 Static damping         CNVDamp         .... on
   Fraction old density DampFac         ....    0.7000
   Max. Damping (<1)    DampMax         ....    0.9800
   Min. Damping (>=0)   DampMin         ....    0.0000
   Turn off err/grad.   DampErr         ....    0.1000

SCF Procedure:
 Maximum # iterations   MaxIter         ....   125
 SCF integral mode      SCFMode         .... Direct
   Integral package                     .... SHARK and LIBINT hybrid scheme
 Reset frequency        DirectResetFreq ....    20
 Integral Threshold     Thresh          ....  1.000e-10 Eh
 Primitive CutOff       TCut            ....  1.000e-11 Eh

Convergence Tolerance:
 Convergence Check Mode ConvCheckMode   .... Total+1el-Energy
 Convergence forced     ConvForced      .... 0
 Energy Change          TolE            ....  1.000e-06 Eh
 1-El. energy change                    ....  1.000e-03 Eh
 Orbital Gradient       TolG            ....  3.330e-04
 Orbital Rotation angle TolX            ....  3.330e-04
 DIIS Error             TolErr          ....  1.000e-06

---------------------
INITIAL GUESS: MOREAD
---------------------
Guess MOs are being read from file: sp_solv.ges
Input Geometry matches current geometry (good)
Atom 0: N(Shells)= 9 and 6 - projection required
Input basis set needs projection
NBasis(read)= 334
NBasis(calc)= 539
Basis set overlap was calculated
Using GuessMode=FMatrix for the initial guess
C*T matrix was formed
Effective Fockian was calculated
Effective Fockian was diagonalized
Initial density was built
                      ------------------
                      INITIAL GUESS DONE (   0.2 sec)
                      ------------------
             **** ENERGY FILE WAS UPDATED (sp_solv.en.tmp) ****
Finished Guess after   0.6 sec
Maximum memory used throughout the entire GUESS-calculation: 58.8 MB

-------------------------------------------------------------------------------------------
                                      ORCA LEAN-SCF
                              memory conserving SCF solver
-------------------------------------------------------------------------------------------

--------------------
CPCM SOLVATION MODEL
--------------------
CPCM parameters:
  Epsilon                                         ...      78.3550
  Refrac                                          ...       1.3328
  Rsolv                                           ...       1.3000
  Surface type                                    ... GAUSSIAN VDW
  Discretization scheme                           ... Constant charge density
    Threshold for H atoms                         ...       5.0000 (charges/Ang^2)
    Threshold for non-H atoms                     ...       5.0000 (charges/Ang^2)
  Epsilon function type                           ...         CPCM
Solvent:                                          ... WATER
SMD-CDS solvent descriptors:
  Soln                                            ...       1.3328
  Soln25                                          ...       1.3323
  Sola                                            ...       0.0000
  Solb                                            ...       0.0000
  Solg                                            ...       0.0000
  Solc                                            ...       0.0000
  Solh                                            ...       0.0000
Radii:
  Scheme                                          ... Element-dependent radii
  Radius for C  used is    3.4960 Bohr (=   1.8500 Ang.)
  Radius for O  used is    2.8724 Bohr (=   1.5200 Ang.)
  Radius for P  used is    4.0062 Bohr (=   2.1200 Ang.)
  Radius for S  used is    4.7054 Bohr (=   2.4900 Ang.)
  Radius for H  used is    2.2677 Bohr (=   1.2000 Ang.)
Calculating surface                               ...        done! (  0.0s)
Cavity surface points                             ...         3301
Cavity Volume                                     ...    2741.7736
Cavity Surface-area                               ...    1335.6811
Calculating surface distance matrix               ...        done! (  0.1s)
Performing Cholesky decomposition & store         ...        done! (  0.4s)
Overall time for CPCM initialization              ...                 0.5s

----------------------------------------D-I-I-S--------------------------------------------
Iteration    Energy (Eh)           Delta-E    RMSDP     MaxDP     DIISErr   Damp  Time(sec)
-------------------------------------------------------------------------------------------
               ***  Starting incremental Fock matrix formation  ***
    1    -2932.0230978552367560     0.00e+00  2.20e-03  9.68e-02  6.34e-01  0.700  13.1
    2    -2932.1671639852679618    -1.44e-01  1.81e-03  7.91e-02  4.46e-01  0.700  10.9
    3    -2932.2691163247959594    -1.02e-01  1.33e-03  5.77e-02  3.13e-01  0.700  10.7
    4    -2932.3406995123973502    -7.16e-02  9.59e-04  4.11e-02  2.19e-01  0.700  10.6
                               ***Turning on AO-DIIS***
    5    -2932.3909126344228753    -5.02e-02  6.99e-04  2.95e-02  1.53e-01  0.700  10.5
    6    -2932.4261075860581514    -3.52e-02  4.97e-04  2.08e-02  1.07e-01  0.700  10.1
    7    -2932.4507856270779484    -2.47e-02  3.51e-04  1.46e-02  7.50e-02  0.700   9.9
    8    -2932.4680776748350581    -1.73e-02  8.26e-04  3.43e-02  5.26e-02  0.000   9.6
                              *** Initializing SOSCF ***
---------------------------------------S-O-S-C-F--------------------------------------
Iteration    Energy (Eh)           Delta-E    RMSDP     MaxDP     MaxGrad    Time(sec)
--------------------------------------------------------------------------------------
    9    -2932.5084827818177473    -4.04e-02  7.98e-06  4.86e-04  2.21e-04    10.5
               *** Restarting incremental Fock matrix formation ***
   10    -2932.5084832393918077    -4.58e-07  6.27e-06  5.17e-04  4.39e-05    12.6
                  *** Gradient check signals convergence ***

               *****************************************************
               *                     SUCCESS                       *
               *           SCF CONVERGED AFTER  10 CYCLES          *
               *****************************************************


SMD CDS free energy correction energy :                 7.72480     Kcal/mol
Total Energy after SMD CDS correction =             -2932.496172990 Eh
             **** ENERGY FILE WAS UPDATED (sp_solv.en.tmp) ****

----------------
TOTAL SCF ENERGY
----------------

Total Energy       :      -2932.49617298997691 Eh          -79797.27768 eV

Components:
Nuclear Repulsion  :       2772.84308418307273 Eh           75452.89627 eV
Electronic Energy  :      -5705.32591625473287 Eh         -155249.81093 eV
One Electron Energy:      -9567.70324700846504 Eh         -260350.44131 eV
Two Electron Energy:       3862.37733075373171 Eh          105100.63038 eV
CPCM Dielectric    :         -0.02565116773145 Eh              -0.69800 eV
SMD CDS (Gcds)     :          0.01231024941492 Eh               0.33498 eV

Virial components:
Potential Energy   :      -5856.17039580694109 Eh         -159354.49790 eV
Kinetic Energy     :       2923.67422281696417 Eh           79557.22021 eV
Virial Ratio       :          2.00301741900796

DFT components:
N(Alpha)           :      100.999995331346 electrons
N(Beta)            :      100.999995331346 electrons
N(Total)           :      201.999990662692 electrons
E(X)               :     -233.537329363938 Eh       
E(C)               :       -7.119441287907 Eh       
E(XC)              :     -240.656770651845 Eh       

CPCM Solvation Model Properties:
Surface-charge          :         -0.04694647970564
Corrected charge        :         -0.00000000000000
Outlying charge corr.   :          0.00011393187923 Eh               0.00310 eV
Free-energy (cav+disp)  :          0.01231024941492 Eh               0.33498 eV

---------------
SCF CONVERGENCE
---------------

  Last Energy change         ...    4.5757e-07  Tolerance :   1.0000e-06
  Last MAX-Density change    ...    5.1690e-04  Tolerance :   1.0000e-05
  Last RMS-Density change    ...    6.2685e-06  Tolerance :   1.0000e-06
  Last DIIS Error            ...    2.2127e-04  Tolerance :   1.0000e-06
  Last Orbital Gradient      ...    4.3880e-05  Tolerance :   3.3300e-04
  Last Orbital Rotation      ...    1.7201e-04  Tolerance :   3.3300e-04


----------------
ORBITAL ENERGIES
----------------

  NO   OCC          E(Eh)            E(eV) 
   0   2.0000     -88.579061     -2410.3588 
   1   2.0000     -88.577197     -2410.3081 
   2   2.0000     -88.529491     -2409.0099 
   3   2.0000     -88.524760     -2408.8812 
   4   2.0000     -76.919782     -2093.0937 
   5   2.0000     -76.919192     -2093.0776 
   6   2.0000     -18.996778      -516.9286 
   7   2.0000     -18.995819      -516.9025 
   8   2.0000     -18.995297      -516.8883 
   9   2.0000     -18.993712      -516.8452 
  10   2.0000     -10.104373      -274.9540 
  11   2.0000     -10.091116      -274.5932 
  12   2.0000     -10.089909      -274.5604 
  13   2.0000     -10.089870      -274.5593 
  14   2.0000     -10.089218      -274.5416 
  15   2.0000     -10.020521      -272.6723 
  16   2.0000     -10.019962      -272.6570 
  17   2.0000     -10.019863      -272.6543 
  18   2.0000     -10.018272      -272.6110 
  19   2.0000      -7.873212      -214.2410 
  20   2.0000      -7.871462      -214.1934 
  21   2.0000      -7.824704      -212.9210 
  22   2.0000      -7.820012      -212.7933 
  23   2.0000      -6.598412      -179.5519 
  24   2.0000      -6.597638      -179.5308 
  25   2.0000      -5.820300      -158.3784 
  26   2.0000      -5.818265      -158.3230 
  27   2.0000      -5.816940      -158.2870 
  28   2.0000      -5.815285      -158.2420 
  29   2.0000      -5.810284      -158.1059 
  30   2.0000      -5.808696      -158.0626 
  31   2.0000      -5.772276      -157.0716 
  32   2.0000      -5.767568      -156.9435 
  33   2.0000      -5.764895      -156.8708 
  34   2.0000      -5.764779      -156.8676 
  35   2.0000      -5.760287      -156.7454 
  36   2.0000      -5.760020      -156.7381 
  37   2.0000      -4.744223      -129.0969 
  38   2.0000      -4.743281      -129.0713 
  39   2.0000      -4.743181      -129.0685 
  40   2.0000      -4.742698      -129.0554 
  41   2.0000      -4.741965      -129.0354 
  42   2.0000      -4.741200      -129.0146 
  43   2.0000      -1.055380       -28.7183 
  44   2.0000      -1.052463       -28.6390 
  45   2.0000      -1.013766       -27.5860 
  46   2.0000      -1.012765       -27.5587 
  47   2.0000      -0.802689       -21.8423 
  48   2.0000      -0.757422       -20.6105 
  49   2.0000      -0.746541       -20.3144 
  50   2.0000      -0.727184       -19.7877 
  51   2.0000      -0.722936       -19.6721 
  52   2.0000      -0.707667       -19.2566 
  53   2.0000      -0.689529       -18.7630 
  54   2.0000      -0.675539       -18.3823 
  55   2.0000      -0.627834       -17.0842 
  56   2.0000      -0.610738       -16.6190 
  57   2.0000      -0.599909       -16.3243 
  58   2.0000      -0.597089       -16.2476 
  59   2.0000      -0.592230       -16.1154 
  60   2.0000      -0.533915       -14.5286 
  61   2.0000      -0.520591       -14.1660 
  62   2.0000      -0.499806       -13.6004 
  63   2.0000      -0.489672       -13.3246 
  64   2.0000      -0.480200       -13.0669 
  65   2.0000      -0.456709       -12.4277 
  66   2.0000      -0.454615       -12.3707 
  67   2.0000      -0.450754       -12.2657 
  68   2.0000      -0.442054       -12.0289 
  69   2.0000      -0.431754       -11.7486 
  70   2.0000      -0.422649       -11.5009 
  71   2.0000      -0.410124       -11.1600 
  72   2.0000      -0.408637       -11.1196 
  73   2.0000      -0.399490       -10.8707 
  74   2.0000      -0.389439       -10.5972 
  75   2.0000      -0.385260       -10.4834 
  76   2.0000      -0.380973       -10.3668 
  77   2.0000      -0.369555       -10.0561 
  78   2.0000      -0.366546        -9.9742 
  79   2.0000      -0.359117        -9.7721 
  80   2.0000      -0.354759        -9.6535 
  81   2.0000      -0.352335        -9.5875 
  82   2.0000      -0.349195        -9.5021 
  83   2.0000      -0.346933        -9.4405 
  84   2.0000      -0.343827        -9.3560 
  85   2.0000      -0.330083        -8.9820 
  86   2.0000      -0.321796        -8.7565 
  87   2.0000      -0.317696        -8.6450 
  88   2.0000      -0.312848        -8.5130 
  89   2.0000      -0.305666        -8.3176 
  90   2.0000      -0.300137        -8.1671 
  91   2.0000      -0.288189        -7.8420 
  92   2.0000      -0.283558        -7.7160 
  93   2.0000      -0.279296        -7.6000 
  94   2.0000      -0.274232        -7.4622 
  95   2.0000      -0.260372        -7.0851 
  96   2.0000      -0.236648        -6.4395 
  97   2.0000      -0.232025        -6.3137 
  98   2.0000      -0.230946        -6.2844 
  99   2.0000      -0.218829        -5.9546 
 100   2.0000      -0.212190        -5.7740 
 101   0.0000      -0.053290        -1.4501 
 102   0.0000      -0.031963        -0.8697 
 103   0.0000      -0.015269        -0.4155 
 104   0.0000      -0.000672        -0.0183 
 105   0.0000       0.008550         0.2327 
 106   0.0000       0.026641         0.7249 
 107   0.0000       0.036712         0.9990 
 108   0.0000       0.040804         1.1103 
 109   0.0000       0.044585         1.2132 
 110   0.0000       0.066184         1.8010 
 111   0.0000       0.077448         2.1075 
*Only the first 10 virtual orbitals were printed.

                    ********************************
                    * MULLIKEN POPULATION ANALYSIS *
                    ********************************

-----------------------
MULLIKEN ATOMIC CHARGES
-----------------------
   0 C :   -0.492341
   1 C :   -0.150808
   2 O :   -0.320715
   3 P :    0.727424
   4 S :   -0.499316
   5 O :   -0.341935
   6 C :   -0.120814
   7 C :   -0.499435
   8 S :   -0.146183
   9 C :   -0.232225
  10 S :   -0.185300
  11 P :    0.693000
  12 S :   -0.509244
  13 O :   -0.284787
  14 C :   -0.106935
  15 C :   -0.503026
  16 O :   -0.311561
  17 C :   -0.140823
  18 C :   -0.481368
  19 H :    0.176521
  20 H :    0.175364
  21 H :    0.164888
  22 H :    0.178729
  23 H :    0.174948
  24 H :    0.174531
  25 H :    0.173080
  26 H :    0.172679
  27 H :    0.162772
  28 H :    0.173398
  29 H :    0.237787
  30 H :    0.237663
  31 H :    0.173834
  32 H :    0.177370
  33 H :    0.166948
  34 H :    0.171787
  35 H :    0.168634
  36 H :    0.172746
  37 H :    0.170391
  38 H :    0.169715
  39 H :    0.166031
  40 H :    0.166574
Sum of atomic charges:   -0.0000000

--------------------------------
MULLIKEN REDUCED ORBITAL CHARGES
--------------------------------
  0 C s       :     3.339096  s :     3.339096
      pz      :     0.958816  p :     3.127556
      px      :     1.037256
      py      :     1.131484
      dz2     :     0.006174  d :     0.025689
      dxz     :     0.005285
      dyz     :     0.005487
      dx2y2   :     0.007140
      dxy     :     0.001602

  1 C s       :     3.293265  s :     3.293265
      pz      :     0.984864  p :     2.802917
      px      :     1.106126
      py      :     0.711927
      dz2     :     0.010290  d :     0.054626
      dxz     :     0.006506
      dyz     :     0.015343
      dx2y2   :     0.015430
      dxy     :     0.007057

  2 O s       :     3.739012  s :     3.739012
      pz      :     1.720750  p :     4.551587
      px      :     1.509741
      py      :     1.321096
      dz2     :     0.005069  d :     0.030116
      dxz     :     0.003571
      dyz     :     0.004796
      dx2y2   :     0.012870
      dxy     :     0.003810

  3 P s       :     5.102282  s :     5.102282
      pz      :     2.848352  p :     8.457962
      px      :     2.808883
      py      :     2.800728
      dz2     :     0.152231  d :     0.712331
      dxz     :     0.142062
      dyz     :     0.123412
      dx2y2   :     0.163773
      dxy     :     0.130854

  4 S s       :     5.912146  s :     5.912146
      pz      :     3.451814  p :    10.520150
      px      :     3.608053
      py      :     3.460283
      dz2     :     0.011468  d :     0.067020
      dxz     :     0.010756
      dyz     :     0.020468
      dx2y2   :     0.011201
      dxy     :     0.013127

  5 O s       :     3.720564  s :     3.720564
      pz      :     1.313019  p :     4.604667
      px      :     1.744640
      py      :     1.547008
      dz2     :    -0.009251  d :     0.016704
      dxz     :     0.004644
      dyz     :    -0.001475
      dx2y2   :     0.013851
      dxy     :     0.008935

  6 C s       :     3.281235  s :     3.281235
      pz      :     0.685224  p :     2.786025
      px      :     1.052898
      py      :     1.047904
      dz2     :     0.017471  d :     0.053554
      dxz     :     0.009429
      dyz     :     0.011517
      dx2y2   :     0.008525
      dxy     :     0.006612

  7 C s       :     3.348326  s :     3.348326
      pz      :     1.106711  p :     3.125464
      px      :     1.004092
      py      :     1.014662
      dz2     :     0.006472  d :     0.025645
      dxz     :     0.002089
      dyz     :     0.004246
      dx2y2   :     0.006899
      dxy     :     0.005939

  8 S s       :     5.908164  s :     5.908164
      pz      :     3.319742  p :    10.126590
      px      :     3.449343
      py      :     3.357505
      dz2     :     0.022067  d :     0.111428
      dxz     :     0.026743
      dyz     :     0.027753
      dx2y2   :     0.015644
      dxy     :     0.019222

  9 C s       :     3.180264  s :     3.180264
      pz      :     1.090007  p :     3.016296
      px      :     0.988161
      py      :     0.938128
      dz2     :     0.003418  d :     0.035665
      dxz     :     0.009884
      dyz     :     0.008819
      dx2y2   :     0.005280
      dxy     :     0.008264

 10 S s       :     5.921780  s :     5.921780
      pz      :     3.316111  p :    10.156284
      px      :     3.255124
      py      :     3.585049
      dz2     :     0.019284  d :     0.107235
      dxz     :     0.035491
      dyz     :     0.021176
      dx2y2   :     0.012814
      dxy     :     0.018469

 11 P s       :     5.156837  s :     5.156837
      pz      :     2.814241  p :     8.426435
      px      :     2.799123
      py      :     2.813072
      dz2     :     0.151123  d :     0.723728
      dxz     :     0.166277
      dyz     :     0.135717
      dx2y2   :     0.142484
      dxy     :     0.128127

 12 S s       :     5.892963  s :     5.892963
      pz      :     3.241708  p :    10.551130
      px      :     3.701292
      py      :     3.608130
      dz2     :     0.024519  d :     0.065150
      dxz     :     0.012422
      dyz     :     0.020011
      dx2y2   :     0.003771
      dxy     :     0.004428

 13 O s       :     3.729639  s :     3.729639
      pz      :     1.565978  p :     4.535106
      px      :     1.777914
      py      :     1.191214
      dz2     :     0.010721  d :     0.020041
      dxz     :     0.004346
      dyz     :    -0.008175
      dx2y2   :     0.009155
      dxy     :     0.003995

 14 C s       :     3.273762  s :     3.273762
      pz      :     0.868312  p :     2.780202
      px      :     1.089625
      py      :     0.822266
      dz2     :     0.010501  d :     0.052971
      dxz     :     0.007049
      dyz     :     0.015908
      dx2y2   :     0.011236
      dxy     :     0.008277

 15 C s       :     3.356726  s :     3.356726
      pz      :     1.091038  p :     3.120652
      px      :     1.062890
      py      :     0.966723
      dz2     :     0.004915  d :     0.025649
      dxz     :     0.002486
      dyz     :     0.006763
      dx2y2   :     0.006780
      dxy     :     0.004705

 16 O s       :     3.745695  s :     3.745695
      pz      :     1.691140  p :     4.533870
      px      :     1.311047
      py      :     1.531683
      dz2     :    -0.000374  d :     0.031996
      dxz     :     0.002722
      dyz     :     0.007313
      dx2y2   :     0.011421
      dxy     :     0.010912

 17 C s       :     3.292198  s :     3.292198
      pz      :     1.095907  p :     2.794693
      px      :     0.868405
      py      :     0.830381
      dz2     :     0.007240  d :     0.053932
      dxz     :     0.007557
      dyz     :     0.013301
      dx2y2   :     0.010434
      dxy     :     0.015400

 18 C s       :     3.333707  s :     3.333707
      pz      :     1.089830  p :     3.122011
      px      :     0.948664
      py      :     1.083517
      dz2     :     0.004355  d :     0.025650
      dxz     :     0.004248
      dyz     :     0.006621
      dx2y2   :     0.003961
      dxy     :     0.006464

 19 H s       :     0.804968  s :     0.804968
      pz      :     0.004340  p :     0.018511
      px      :     0.003720
      py      :     0.010451

 20 H s       :     0.806449  s :     0.806449
      pz      :     0.007441  p :     0.018187
      px      :     0.004194
      py      :     0.006552

 21 H s       :     0.816557  s :     0.816557
      pz      :     0.003669  p :     0.018555
      px      :     0.011048
      py      :     0.003838

 22 H s       :     0.803249  s :     0.803249
      pz      :     0.007996  p :     0.018022
      px      :     0.004536
      py      :     0.005490

 23 H s       :     0.807475  s :     0.807475
      pz      :     0.003510  p :     0.017577
      px      :     0.011623
      py      :     0.002444

 24 H s       :     0.807798  s :     0.807798
      pz      :     0.002365  p :     0.017671
      px      :     0.010830
      py      :     0.004476

 25 H s       :     0.808233  s :     0.808233
      pz      :     0.004503  p :     0.018687
      px      :     0.003632
      py      :     0.010552

 26 H s       :     0.808796  s :     0.808796
      pz      :     0.011034  p :     0.018526
      px      :     0.003632
      py      :     0.003859

 27 H s       :     0.818842  s :     0.818842
      pz      :     0.003746  p :     0.018387
      px      :     0.010221
      py      :     0.004420

 28 H s       :     0.808334  s :     0.808334
      pz      :     0.005389  p :     0.018267
      px      :     0.003553
      py      :     0.009326

 29 H s       :     0.743389  s :     0.743389
      pz      :     0.005544  p :     0.018824
      px      :     0.006562
      py      :     0.006719

 30 H s       :     0.742791  s :     0.742791
      pz      :     0.008452  p :     0.019546
      px      :     0.005870
      py      :     0.005224

 31 H s       :     0.808497  s :     0.808497
      pz      :     0.002974  p :     0.017669
      px      :     0.011570
      py      :     0.003125

 32 H s       :     0.804417  s :     0.804417
      pz      :     0.008992  p :     0.018214
      px      :     0.005277
      py      :     0.003944

 33 H s       :     0.814744  s :     0.814744
      pz      :     0.009528  p :     0.018308
      px      :     0.004488
      py      :     0.004291

 34 H s       :     0.809691  s :     0.809691
      pz      :     0.007204  p :     0.018522
      px      :     0.003783
      py      :     0.007534

 35 H s       :     0.812832  s :     0.812832
      pz      :     0.003636  p :     0.018534
      px      :     0.011228
      py      :     0.003670

 36 H s       :     0.809232  s :     0.809232
      pz      :     0.009525  p :     0.018021
      px      :     0.003044
      py      :     0.005453

 37 H s       :     0.811955  s :     0.811955
      pz      :     0.008014  p :     0.017654
      px      :     0.004190
      py      :     0.005450

 38 H s       :     0.811774  s :     0.811774
      pz      :     0.003938  p :     0.018511
      px      :     0.006511
      py      :     0.008061

 39 H s       :     0.815666  s :     0.815666
      pz      :     0.008793  p :     0.018302
      px      :     0.003452
      py      :     0.006057

 40 H s       :     0.815158  s :     0.815158
      pz      :     0.007671  p :     0.018269
      px      :     0.004617
      py      :     0.005981


------------------------
MULLIKEN OVERLAP CHARGES
------------------------
B(  0-C ,  1-C ) :   0.4089 B(  0-C ,  2-O ) :  -0.1730 B(  0-C , 19-H ) :   0.7789 
B(  0-C , 20-H ) :   0.8205 B(  0-C , 21-H ) :   0.8286 B(  0-C , 22-H ) :  -0.1084 
B(  1-C ,  2-O ) :   0.3468 B(  1-C ,  3-P ) :  -0.1692 B(  1-C , 20-H ) :  -0.0729 
B(  1-C , 21-H ) :  -0.0849 B(  1-C , 22-H ) :   0.8744 B(  1-C , 23-H ) :   0.7986 
B(  2-O ,  3-P ) :   0.5821 B(  2-O ,  4-S ) :  -0.1185 B(  2-O ,  5-O ) :  -0.2205 
B(  2-O ,  8-S ) :  -0.1039 B(  2-O , 22-H ) :  -0.0815 B(  2-O , 23-H ) :  -0.0978 
B(  3-P ,  4-S ) :   1.1998 B(  3-P ,  5-O ) :   0.7295 B(  3-P ,  6-C ) :  -0.1612 
B(  3-P ,  8-S ) :   0.7457 B(  3-P ,  9-C ) :  -0.1003 B(  4-S ,  5-O ) :  -0.0979 
B(  4-S ,  8-S ) :  -0.0846 B(  5-O ,  6-C ) :   0.2582 B(  5-O ,  7-C ) :  -0.1228 
B(  5-O ,  8-S ) :  -0.1402 B(  5-O , 24-H ) :  -0.0779 B(  5-O , 25-H ) :  -0.0717 
B(  6-C ,  7-C ) :   0.5236 B(  6-C , 24-H ) :   0.7939 B(  6-C , 25-H ) :   0.8573 
B(  6-C , 26-H ) :  -0.0655 B(  6-C , 27-H ) :  -0.0828 B(  6-C , 28-H ) :  -0.0732 
B(  7-C , 25-H ) :  -0.0789 B(  7-C , 26-H ) :   0.8021 B(  7-C , 27-H ) :   0.8378 
B(  7-C , 28-H ) :   0.8325 B(  8-S ,  9-C ) :   0.3431 B(  8-S , 10-S ) :  -0.1563 
B(  8-S , 29-H ) :  -0.0585 B(  8-S , 30-H ) :  -0.0836 B(  9-C , 10-S ) :   0.3965 
B(  9-C , 11-P ) :  -0.1157 B(  9-C , 29-H ) :   0.7975 B(  9-C , 30-H ) :   0.8106 
B( 10-S , 11-P ) :   0.5481 B( 10-S , 12-S ) :  -0.1142 B( 10-S , 13-O ) :  -0.1067 
B( 10-S , 16-O ) :  -0.0829 B( 10-S , 29-H ) :  -0.0781 B( 10-S , 30-H ) :  -0.0615 
B( 11-P , 12-S ) :   1.2949 B( 11-P , 13-O ) :   0.7483 B( 11-P , 14-C ) :  -0.2087 
B( 11-P , 16-O ) :   0.4784 B( 11-P , 17-C ) :  -0.1861 B( 12-S , 13-O ) :  -0.1177 
B( 12-S , 16-O ) :  -0.0864 B( 13-O , 14-C ) :   0.2187 B( 13-O , 15-C ) :  -0.0814 
B( 13-O , 16-O ) :  -0.2181 B( 13-O , 31-H ) :  -0.0718 B( 13-O , 32-H ) :  -0.0835 
B( 14-C , 15-C ) :   0.3791 B( 14-C , 31-H ) :   0.7735 B( 14-C , 32-H ) :   0.8011 
B( 14-C , 33-H ) :  -0.0695 B( 14-C , 34-H ) :  -0.0703 B( 14-C , 35-H ) :  -0.0669 
B( 15-C , 33-H ) :   0.8303 B( 15-C , 34-H ) :   0.8120 B( 15-C , 35-H ) :   0.8247 
B( 16-O , 17-C ) :   0.2990 B( 16-O , 18-C ) :  -0.1108 B( 16-O , 36-H ) :  -0.0857 
B( 16-O , 37-H ) :  -0.0773 B( 17-C , 18-C ) :   0.4942 B( 17-C , 36-H ) :   0.8429 
B( 17-C , 37-H ) :   0.7558 B( 17-C , 38-H ) :  -0.0620 B( 17-C , 39-H ) :  -0.0562 
B( 17-C , 40-H ) :  -0.0761 B( 18-C , 36-H ) :  -0.0537 B( 18-C , 38-H ) :   0.8042 
B( 18-C , 39-H ) :   0.8226 B( 18-C , 40-H ) :   0.8378 B( 20-H , 21-H ) :  -0.0580 
B( 27-H , 28-H ) :  -0.0538 B( 31-H , 32-H ) :  -0.0622 B( 36-H , 37-H ) :  -0.0672 



                     *******************************
                     * LOEWDIN POPULATION ANALYSIS *
                     *******************************

----------------------
LOEWDIN ATOMIC CHARGES
----------------------
   0 C :   -0.407512
   1 C :    0.022104
   2 O :   -0.676545
   3 P :    0.389032
   4 S :   -0.140067
   5 O :   -0.681518
   6 C :    0.029658
   7 C :   -0.398680
   8 S :    0.151260
   9 C :   -0.411328
  10 S :    0.130560
  11 P :    0.376560
  12 S :   -0.149429
  13 O :   -0.668585
  14 C :    0.025419
  15 C :   -0.397394
  16 O :   -0.682412
  17 C :    0.024743
  18 C :   -0.388977
  19 H :    0.170358
  20 H :    0.164067
  21 H :    0.160966
  22 H :    0.181399
  23 H :    0.190893
  24 H :    0.187567
  25 H :    0.183173
  26 H :    0.169773
  27 H :    0.161072
  28 H :    0.163766
  29 H :    0.199559
  30 H :    0.199002
  31 H :    0.182452
  32 H :    0.183193
  33 H :    0.164414
  34 H :    0.170695
  35 H :    0.162784
  36 H :    0.181898
  37 H :    0.180104
  38 H :    0.169369
  39 H :    0.163327
  40 H :    0.163281

-------------------------------
LOEWDIN REDUCED ORBITAL CHARGES
-------------------------------
  0 C s       :     2.976942  s :     2.976942
      pz      :     1.083874  p :     3.370311
      px      :     1.128584
      py      :     1.157852
      dz2     :     0.013818  d :     0.060259
      dxz     :     0.011929
      dyz     :     0.013172
      dx2y2   :     0.017898
      dxy     :     0.003442

  1 C s       :     2.875789  s :     2.875789
      pz      :     1.053824  p :     2.979582
      px      :     1.100851
      py      :     0.824908
      dz2     :     0.021432  d :     0.122525
      dxz     :     0.014353
      dyz     :     0.034428
      dx2y2   :     0.036356
      dxy     :     0.015957

  2 O s       :     3.467832  s :     3.467832
      pz      :     1.686395  p :     4.742309
      px      :     1.600819
      py      :     1.455095
      dz2     :     0.059521  d :     0.466404
      dxz     :     0.068017
      dyz     :     0.100995
      dx2y2   :     0.120096
      dxy     :     0.117775

  3 P s       :     4.655726  s :     4.655726
      pz      :     2.831428  p :     8.387207
      px      :     2.782439
      py      :     2.773339
      dz2     :     0.272721  d :     1.568036
      dxz     :     0.349598
      dyz     :     0.322525
      dx2y2   :     0.306501
      dxy     :     0.316691

  4 S s       :     5.562001  s :     5.562001
      pz      :     3.439545  p :    10.431979
      px      :     3.549224
      py      :     3.443210
      dz2     :     0.020094  d :     0.146087
      dxz     :     0.026809
      dyz     :     0.048652
      dx2y2   :     0.018953
      dxy     :     0.031579

  5 O s       :     3.462494  s :     3.462494
      pz      :     1.436612  p :     4.743910
      px      :     1.702514
      py      :     1.604784
      dz2     :     0.126905  d :     0.475114
      dxz     :     0.100956
      dyz     :     0.128438
      dx2y2   :     0.050102
      dxy     :     0.068712

  6 C s       :     2.877957  s :     2.877957
      pz      :     0.795125  p :     2.972588
      px      :     1.086231
      py      :     1.091232
      dz2     :     0.039868  d :     0.119797
      dxz     :     0.019471
      dyz     :     0.027824
      dx2y2   :     0.017421
      dxy     :     0.015213

  7 C s       :     2.976033  s :     2.976033
      pz      :     1.140622  p :     3.362511
      px      :     1.108280
      py      :     1.113609
      dz2     :     0.016282  d :     0.060135
      dxz     :     0.004196
      dyz     :     0.010039
      dx2y2   :     0.015898
      dxy     :     0.013720

  8 S s       :     5.440001  s :     5.440001
      pz      :     3.334293  p :    10.106007
      px      :     3.407189
      py      :     3.364525
      dz2     :     0.048267  d :     0.302732
      dxz     :     0.074322
      dyz     :     0.075155
      dx2y2   :     0.040833
      dxy     :     0.064155

  9 C s       :     3.008450  s :     3.008450
      pz      :     1.136004  p :     3.320018
      px      :     1.102689
      py      :     1.081324
      dz2     :     0.006924  d :     0.082860
      dxz     :     0.025043
      dyz     :     0.021995
      dx2y2   :     0.009925
      dxy     :     0.018973

 10 S s       :     5.444788  s :     5.444788
      pz      :     3.346358  p :    10.119525
      px      :     3.237149
      py      :     3.536019
      dz2     :     0.046224  d :     0.305127
      dxz     :     0.103693
      dyz     :     0.061648
      dx2y2   :     0.034683
      dxy     :     0.058879

 11 P s       :     4.649263  s :     4.649263
      pz      :     2.878957  p :     8.389864
      px      :     2.737699
      py      :     2.773208
      dz2     :     0.312179  d :     1.584314
      dxz     :     0.360558
      dyz     :     0.326940
      dx2y2   :     0.311736
      dxy     :     0.272900

 12 S s       :     5.559194  s :     5.559194
      pz      :     3.280266  p :    10.454760
      px      :     3.617435
      py      :     3.557058
      dz2     :     0.053830  d :     0.135475
      dxz     :     0.019166
      dyz     :     0.045538
      dx2y2   :     0.007731
      dxy     :     0.009209

 13 O s       :     3.466746  s :     3.466746
      pz      :     1.582386  p :     4.733562
      px      :     1.711711
      py      :     1.439465
      dz2     :     0.097903  d :     0.468277
      dxz     :     0.052882
      dyz     :     0.124832
      dx2y2   :     0.105846
      dxy     :     0.086814

 14 C s       :     2.879114  s :     2.879114
      pz      :     0.932840  p :     2.977482
      px      :     1.108775
      py      :     0.935868
      dz2     :     0.025182  d :     0.117986
      dxz     :     0.015404
      dyz     :     0.035030
      dx2y2   :     0.024584
      dxy     :     0.017785

 15 C s       :     2.973413  s :     2.973413
      pz      :     1.152551  p :     3.363782
      px      :     1.140356
      py      :     1.070875
      dz2     :     0.011947  d :     0.060199
      dxz     :     0.005809
      dyz     :     0.016769
      dx2y2   :     0.015651
      dxy     :     0.010023

 16 O s       :     3.466572  s :     3.466572
      pz      :     1.696826  p :     4.736874
      px      :     1.481102
      py      :     1.558947
      dz2     :     0.062118  d :     0.478966
      dxz     :     0.089188
      dyz     :     0.081468
      dx2y2   :     0.129388
      dxy     :     0.116804

 17 C s       :     2.877436  s :     2.877436
      pz      :     1.104267  p :     2.977551
      px      :     0.967423
      py      :     0.905861
      dz2     :     0.015772  d :     0.120269
      dxz     :     0.014523
      dyz     :     0.032292
      dx2y2   :     0.023879
      dxy     :     0.033803

 18 C s       :     2.973553  s :     2.973553
      pz      :     1.152227  p :     3.355326
      px      :     1.056470
      py      :     1.146630
      dz2     :     0.010201  d :     0.060097
      dxz     :     0.008871
      dyz     :     0.016724
      dx2y2   :     0.008233
      dxy     :     0.016068

 19 H s       :     0.784969  s :     0.784969
      pz      :     0.010004  p :     0.044673
      px      :     0.008407
      py      :     0.026262

 20 H s       :     0.791844  s :     0.791844
      pz      :     0.018209  p :     0.044089
      px      :     0.009922
      py      :     0.015958

 21 H s       :     0.794407  s :     0.794407
      pz      :     0.008360  p :     0.044627
      px      :     0.027629
      py      :     0.008638

 22 H s       :     0.775669  s :     0.775669
      pz      :     0.019994  p :     0.042932
      px      :     0.010710
      py      :     0.012228

 23 H s       :     0.768399  s :     0.768399
      pz      :     0.007887  p :     0.040708
      px      :     0.027988
      py      :     0.004832

 24 H s       :     0.771478  s :     0.771478
      pz      :     0.004503  p :     0.040956
      px      :     0.025982
      py      :     0.010470

 25 H s       :     0.772727  s :     0.772727
      pz      :     0.009582  p :     0.044100
      px      :     0.008446
      py      :     0.026073

 26 H s       :     0.785652  s :     0.785652
      pz      :     0.027644  p :     0.044576
      px      :     0.008261
      py      :     0.008670

 27 H s       :     0.794688  s :     0.794688
      pz      :     0.008494  p :     0.044240
      px      :     0.025236
      py      :     0.010510

 28 H s       :     0.792183  s :     0.792183
      pz      :     0.012826  p :     0.044051
      px      :     0.008084
      py      :     0.023141

 29 H s       :     0.752674  s :     0.752674
      pz      :     0.014251  p :     0.047767
      px      :     0.016364
      py      :     0.017152

 30 H s       :     0.751694  s :     0.751694
      pz      :     0.022303  p :     0.049304
      px      :     0.014165
      py      :     0.012836

 31 H s       :     0.775518  s :     0.775518
      pz      :     0.006736  p :     0.042030
      px      :     0.028351
      py      :     0.006943

 32 H s       :     0.773369  s :     0.773369
      pz      :     0.020915  p :     0.043438
      px      :     0.012705
      py      :     0.009817

 33 H s       :     0.791793  s :     0.791793
      pz      :     0.023730  p :     0.043793
      px      :     0.010645
      py      :     0.009418

 34 H s       :     0.784810  s :     0.784810
      pz      :     0.017760  p :     0.044496
      px      :     0.008624
      py      :     0.018112

 35 H s       :     0.792398  s :     0.792398
      pz      :     0.008192  p :     0.044818
      px      :     0.028208
      py      :     0.008418

 36 H s       :     0.775629  s :     0.775629
      pz      :     0.023507  p :     0.042473
      px      :     0.006880
      py      :     0.012086

 37 H s       :     0.778267  s :     0.778267
      pz      :     0.019364  p :     0.041629
      px      :     0.010263
      py      :     0.012002

 38 H s       :     0.786142  s :     0.786142
      pz      :     0.008848  p :     0.044488
      px      :     0.015489
      py      :     0.020151

 39 H s       :     0.792861  s :     0.792861
      pz      :     0.021745  p :     0.043812
      px      :     0.007561
      py      :     0.014506

 40 H s       :     0.792912  s :     0.792912
      pz      :     0.019116  p :     0.043807
      px      :     0.010366
      py      :     0.014326


---------------------------------
LOEWDIN BOND ORDERS (THRESH 0.050000)
---------------------------------
B(  0-C ,  1-C ) :   1.0928 B(  0-C ,  2-O ) :   0.1587 B(  0-C , 19-H ) :   0.9110 
B(  0-C , 20-H ) :   0.9203 B(  0-C , 21-H ) :   0.9107 B(  1-C ,  2-O ) :   1.3030 
B(  1-C ,  3-P ) :   0.0961 B(  1-C ,  4-S ) :   0.0543 B(  1-C , 19-H ) :   0.0504 
B(  1-C , 22-H ) :   0.8233 B(  1-C , 23-H ) :   0.8233 B(  2-O ,  3-P ) :   1.5622 
B(  2-O ,  4-S ) :   0.1959 B(  2-O ,  5-O ) :   0.2136 B(  2-O ,  8-S ) :   0.1463 
B(  2-O , 22-H ) :   0.0981 B(  2-O , 23-H ) :   0.0997 B(  3-P ,  4-S ) :   1.9974 
B(  3-P ,  5-O ) :   1.5801 B(  3-P ,  6-C ) :   0.0993 B(  3-P ,  8-S ) :   1.2277 
B(  3-P ,  9-C ) :   0.0806 B(  4-S ,  5-O ) :   0.1864 B(  4-S ,  6-C ) :   0.0597 
B(  4-S ,  8-S ) :   0.1329 B(  5-O ,  6-C ) :   1.2736 B(  5-O ,  7-C ) :   0.1643 
B(  5-O ,  8-S ) :   0.1669 B(  5-O , 24-H ) :   0.0960 B(  5-O , 25-H ) :   0.0945 
B(  6-C ,  7-C ) :   1.0942 B(  6-C , 24-H ) :   0.8272 B(  6-C , 25-H ) :   0.8215 
B(  6-C , 26-H ) :   0.0509 B(  7-C , 26-H ) :   0.9117 B(  7-C , 27-H ) :   0.9137 
B(  7-C , 28-H ) :   0.9210 B(  8-S ,  9-C ) :   1.2951 B(  8-S , 10-S ) :   0.2118 
B(  8-S , 29-H ) :   0.0599 B(  8-S , 30-H ) :   0.0583 B(  9-C , 10-S ) :   1.3085 
B(  9-C , 11-P ) :   0.0910 B(  9-C , 12-S ) :   0.0579 B(  9-C , 29-H ) :   0.8372 
B(  9-C , 30-H ) :   0.8296 B( 10-S , 11-P ) :   1.2077 B( 10-S , 12-S ) :   0.1520 
B( 10-S , 13-O ) :   0.1504 B( 10-S , 16-O ) :   0.1522 B( 10-S , 29-H ) :   0.0564 
B( 10-S , 30-H ) :   0.0621 B( 11-P , 12-S ) :   2.0268 B( 11-P , 13-O ) :   1.6022 
B( 11-P , 14-C ) :   0.0982 B( 11-P , 16-O ) :   1.5655 B( 11-P , 17-C ) :   0.1030 
B( 12-S , 13-O ) :   0.1754 B( 12-S , 16-O ) :   0.1770 B( 13-O , 14-C ) :   1.2526 
B( 13-O , 15-C ) :   0.1742 B( 13-O , 16-O ) :   0.2212 B( 13-O , 31-H ) :   0.0939 
B( 13-O , 32-H ) :   0.0935 B( 14-C , 15-C ) :   1.0919 B( 14-C , 31-H ) :   0.8275 
B( 14-C , 32-H ) :   0.8230 B( 14-C , 34-H ) :   0.0512 B( 15-C , 33-H ) :   0.9179 
B( 15-C , 34-H ) :   0.9108 B( 15-C , 35-H ) :   0.9163 B( 16-O , 17-C ) :   1.2763 
B( 16-O , 18-C ) :   0.1743 B( 16-O , 36-H ) :   0.0966 B( 16-O , 37-H ) :   0.0974 
B( 17-C , 18-C ) :   1.0918 B( 17-C , 36-H ) :   0.8250 B( 17-C , 37-H ) :   0.8299 
[...]

                    522       523       524       525       526       527   
                  18.88452  18.90198  19.05867  19.22098  21.91693  21.96495
                   0.00000   0.00000   0.00000   0.00000   0.00000   0.00000
                  --------  --------  --------  --------  --------  --------
 0 C  s               0.0       0.0       0.0       0.0       0.1       9.5
 1 C  s               0.0       0.0       0.0       0.0       0.0       0.4
 3 P  s               0.0       0.3       0.0       0.0       0.0       0.0
 4 S  s               0.2      97.8       0.8       0.1       0.0       0.0
 6 C  s               0.0       0.0       0.0       0.0       0.1       7.3
 7 C  s               0.0       0.0       0.0       0.0       0.3      62.9
 8 S  s               0.8       0.6      45.5      52.0       0.0       0.0
 9 C  s               0.0       0.0       0.0       1.2       0.4       8.3
10 S  s               1.6       0.3      52.9      43.9       0.0       0.0
11 P  s               0.1       0.0       0.1       0.1       0.0       0.0
11 P  pz              0.2       0.0       0.0       0.0       0.0       0.0
12 S  s              96.4       0.2       0.1       2.2       0.0       0.0
12 S  pz              0.1       0.0       0.0       0.0       0.0       0.0
14 C  s               0.1       0.0       0.0       0.0       0.1       0.3
15 C  s               0.0       0.0       0.0       0.0       0.5       9.2
17 C  s               0.0       0.0       0.0       0.0      12.8       0.2
18 C  s               0.0       0.0       0.0       0.0      85.3       1.5

                    528       529       530       531       532       533   
                  21.98271  22.00858  22.04197  22.06817  22.07765  22.09175
                   0.00000   0.00000   0.00000   0.00000   0.00000   0.00000
                  --------  --------  --------  --------  --------  --------
 0 C  s              38.6      34.7       0.0       5.8       5.1       0.2
 1 C  s               0.0       6.0       0.1      27.3      35.2      17.7
 6 C  s               0.9       1.2       0.0      28.4      37.1      16.8
 7 C  s              19.0       0.1       0.7       5.2       9.9       0.2
 9 C  s               0.0       7.6       0.3       0.9      10.4       2.6
14 C  s               1.8       5.6       0.7      27.4       0.6      61.6
15 C  s              39.2      43.1       0.7       4.6       1.0       0.2
17 C  s               0.0       1.0      84.7       0.1       0.3       0.2
18 C  s               0.1       0.3      12.4       0.0       0.0       0.0

                    534       535       536       537       538   
                  22.09979  43.79032  43.80381  43.84241  43.91116
                   0.00000   0.00000   0.00000   0.00000   0.00000
                  --------  --------  --------  --------  --------
 0 C  s               5.7       0.0       0.0       0.0       0.0
 1 C  s              12.8       0.0       0.0       0.0       0.0
 2 O  s               0.0      15.8      77.4       6.5       0.1
 5 O  s               0.0       4.4       3.1      91.2       1.2
 6 C  s               7.7       0.0       0.0       0.0       0.0
 7 C  s               1.4       0.0       0.0       0.0       0.0
 8 S  s               0.2       0.0       0.0       0.0       0.0
 9 C  s              68.6       0.0       0.0       0.0       0.0
10 S  s               0.2       0.0       0.0       0.0       0.0
13 O  s               0.0       2.2       0.0       0.6      97.0
14 C  s               1.5       0.0       0.0       0.0       0.0
15 C  s               1.1       0.0       0.0       0.0       0.0
16 O  s               0.0      77.4      19.4       1.6       1.5
17 C  s               0.4       0.0       0.0       0.0       0.0


                      *****************************
                      * MAYER POPULATION ANALYSIS *
                      *****************************

  NA   - Mulliken gross atomic population
  ZA   - Total nuclear charge
  QA   - Mulliken gross atomic charge
  VA   - Mayer's total valence
  BVA  - Mayer's bonded valence
  FA   - Mayer's free valence

  ATOM       NA         ZA         QA         VA         BVA        FA
  0 C      6.4923     6.0000    -0.4923     3.7323     3.7323    -0.0000
  1 C      6.1508     6.0000    -0.1508     3.6560     3.6560    -0.0000
  2 O      8.3207     8.0000    -0.3207     1.8254     1.8254    -0.0000
  3 P     14.2726    15.0000     0.7274     5.1802     5.1802     0.0000
  4 S     16.4993    16.0000    -0.4993     2.0091     2.0091     0.0000
  5 O      8.3419     8.0000    -0.3419     1.8730     1.8730     0.0000
  6 C      6.1208     6.0000    -0.1208     3.6287     3.6287    -0.0000
  7 C      6.4994     6.0000    -0.4994     3.8138     3.8138     0.0000
  8 S     16.1462    16.0000    -0.1462     2.1799     2.1799     0.0000
  9 C      6.2322     6.0000    -0.2322     3.6690     3.6690     0.0000
 10 S     16.1853    16.0000    -0.1853     2.1653     2.1653    -0.0000
 11 P     14.3070    15.0000     0.6930     5.1132     5.1132     0.0000
 12 S     16.5092    16.0000    -0.5092     2.0103     2.0103    -0.0000
 13 O      8.2848     8.0000    -0.2848     1.8577     1.8577     0.0000
 14 C      6.1069     6.0000    -0.1069     3.5549     3.5549    -0.0000
 15 C      6.5030     6.0000    -0.5030     3.8391     3.8391    -0.0000
 16 O      8.3116     8.0000    -0.3116     1.8371     1.8371    -0.0000
 17 C      6.1408     6.0000    -0.1408     3.6543     3.6543     0.0000
 18 C      6.4814     6.0000    -0.4814     3.8472     3.8472     0.0000
 19 H      0.8235     1.0000     0.1765     0.9578     0.9578    -0.0000
 20 H      0.8246     1.0000     0.1754     0.9531     0.9531     0.0000
 21 H      0.8351     1.0000     0.1649     0.9598     0.9598    -0.0000
 22 H      0.8213     1.0000     0.1787     0.9499     0.9499    -0.0000
 23 H      0.8251     1.0000     0.1749     0.9445     0.9445    -0.0000
 24 H      0.8255     1.0000     0.1745     0.9468     0.9468    -0.0000
 25 H      0.8269     1.0000     0.1731     0.9563     0.9563    -0.0000
 26 H      0.8273     1.0000     0.1727     0.9585     0.9585    -0.0000
 27 H      0.8372     1.0000     0.1628     0.9588     0.9588     0.0000
 28 H      0.8266     1.0000     0.1734     0.9533     0.9533     0.0000
 29 H      0.7622     1.0000     0.2378     0.9344     0.9344    -0.0000
 30 H      0.7623     1.0000     0.2377     0.9381     0.9381    -0.0000
 31 H      0.8262     1.0000     0.1738     0.9431     0.9431    -0.0000
 32 H      0.8226     1.0000     0.1774     0.9492     0.9492    -0.0000
 33 H      0.8331     1.0000     0.1669     0.9570     0.9570    -0.0000
 34 H      0.8282     1.0000     0.1718     0.9571     0.9571    -0.0000
 35 H      0.8314     1.0000     0.1686     0.9582     0.9582    -0.0000
 36 H      0.8273     1.0000     0.1727     0.9483     0.9483     0.0000
 37 H      0.8296     1.0000     0.1704     0.9420     0.9420    -0.0000
 38 H      0.8303     1.0000     0.1697     0.9580     0.9580     0.0000
 39 H      0.8340     1.0000     0.1660     0.9570     0.9570     0.0000
 40 H      0.8334     1.0000     0.1666     0.9569     0.9569     0.0000

  Mayer bond orders larger than 0.100000
B(  0-C ,  1-C ) :   0.9033 B(  0-C , 19-H ) :   0.9536 B(  0-C , 20-H ) :   0.9665 
B(  0-C , 21-H ) :   0.9590 B(  1-C ,  2-O ) :   0.8052 B(  1-C , 22-H ) :   0.9638 
B(  1-C , 23-H ) :   0.9484 B(  2-O ,  3-P ) :   1.0899 B(  3-P ,  4-S ) :   1.7175 
B(  3-P ,  5-O ) :   1.1722 B(  3-P ,  8-S ) :   1.0773 B(  5-O ,  6-C ) :   0.7602 
B(  6-C ,  7-C ) :   0.9373 B(  6-C , 24-H ) :   0.9462 B(  6-C , 25-H ) :   0.9568 
B(  7-C , 26-H ) :   0.9572 B(  7-C , 27-H ) :   0.9655 B(  7-C , 28-H ) :   0.9678 
B(  8-S ,  9-C ) :   0.8855 B(  9-C , 10-S ) :   0.9067 B(  9-C , 29-H ) :   0.9014 
B(  9-C , 30-H ) :   0.9050 B( 10-S , 11-P ) :   0.9741 B( 11-P , 12-S ) :   1.7892 
B( 11-P , 13-O ) :   1.2031 B( 11-P , 16-O ) :   1.0658 B( 13-O , 14-C ) :   0.7223 
B( 14-C , 15-C ) :   0.9296 B( 14-C , 31-H ) :   0.9368 B( 14-C , 32-H ) :   0.9343 
B( 15-C , 33-H ) :   0.9706 B( 15-C , 34-H ) :   0.9605 B( 15-C , 35-H ) :   0.9646 
B( 16-O , 17-C ) :   0.7774 B( 17-C , 18-C ) :   0.9525 B( 17-C , 36-H ) :   0.9479 
B( 17-C , 37-H ) :   0.9323 B( 18-C , 38-H ) :   0.9578 B( 18-C , 39-H ) :   0.9679 
B( 18-C , 40-H ) :   0.9695 

-------
TIMINGS
-------

Total SCF time: 0 days 0 hours 1 min 50 sec 

Total time                  ....     110.118 sec
Sum of individual times     ....     109.581 sec  ( 99.5%)

SCF preparation             ....       0.881 sec  (  0.8%)
Fock matrix formation       ....     105.449 sec  ( 95.8%)
  Startup                   ....       0.146 sec  (  0.1% of F)
  Split-RI-J                ....      25.135 sec  ( 23.8% of F)
  XC integration            ....      47.333 sec  ( 44.9% of F)
    XC Preparation          ....       0.000 sec  (  0.0% of XC)
    Basis function eval.    ....       7.548 sec  ( 15.9% of XC)
    Density eval.           ....      17.766 sec  ( 37.5% of XC)
    XC-Functional eval.     ....       3.443 sec  (  7.3% of XC)
    XC-Potential eval.      ....      17.289 sec  ( 36.5% of XC)
  CPCM terms                ....      31.412 sec  ( 29.8% of F)
Diagonalization             ....       0.000 sec  (  0.0%)
Density matrix formation    ....       0.824 sec  (  0.7%)
Total Energy calculation    ....       0.080 sec  (  0.1%)
Population analysis         ....       0.432 sec  (  0.4%)
Orbital Transformation      ....       0.241 sec  (  0.2%)
Orbital Orthonormalization  ....       0.000 sec  (  0.0%)
DIIS solution               ....       1.457 sec  (  1.3%)
  MO trafo                  ....       0.000 sec  (  0.0 % of DIIS)
  Orb grad                  ....       0.000 sec  (  0.0 % of DIIS)
  Energy W gradient         ....       0.000 sec  (  0.0 % of DIIS)
  DIIS error                ....       0.112 sec  (  7.7 % of DIIS)
  DIIS work                 ....       1.201 sec  ( 82.4 % of DIIS)
  Form Q                    ....       0.000 sec  (  0.0 % of DIIS)
  Form QpQm                 ....       0.000 sec  (  0.0 % of DIIS)
  Exp/Cayley                ....       0.000 sec  (  0.0 % of DIIS)
  Orb update                ....       0.000 sec  (  0.0 % of DIIS)
  Wake-sleep                ....       0.028 sec  (  1.9 % of DIIS)
SOSCF solution              ....       0.217 sec  (  0.2%)
  MO trafo                  ....       0.172 sec  ( 79.3 % of SOSCF)
  Orb grad                  ....       0.001 sec  (  0.4 % of SOSCF)
  Rot update                ....       0.000 sec  (  0.1 % of SOSCF)
  Step                      ....       0.044 sec  ( 20.1 % of SOSCF)
Finished LeanSCF after 110.3 sec

Maximum memory used throughout the entire LEANSCF-calculation: 130.0 MB


-------------------------------------------------------------------------------
                          DFT DISPERSION CORRECTION                            
                                                                               
                                DFTD4 V3.4.0                                   
-------------------------------------------------------------------------------
The R2SCAN3C composite method is recognized
Using three-body term ABC
Active option DFTDOPT                   ...         5   

-------------------------   ----------------
Dispersion correction           -0.021518965
-------------------------   ----------------

------------------   -----------------
gCP correction             0.046466154
------------------   -----------------

-------------------------   --------------------
FINAL SINGLE POINT ENERGY     -2932.471225801847
-------------------------   --------------------


------------------------------------------------------------------------------
                              ORCA PROPERTY CALCULATIONS
------------------------------------------------------------------------------

GBWName                                 ... sp_solv.gbw
Number of atoms                         ...     41
Number of basis functions               ...    539
Max core memory                         ...   1024 MB

Electric properties:
Dipole moment                           ... YES
Quadrupole moment                       ...  NO
Static polarizability (Dipole/Dipole)   ...  NO
Static polarizability (Dipole/Quad.)    ...  NO
Static polarizability (Quad./Quad.)     ...  NO
Static polarizability (Velocity)        ...  NO

Atomic electric properties:
Dipole moment                           ...  NO
Quadrupole moment                       ...  NO
Static polarizability                   ...  NO

Choice of electric origin               ... Center of mass
Position of electric origin             ...    -0.000004     0.000002     0.000004

General magnetic properties:
Magnetizability                         ...  NO

EPR properties:
g-Tensor (aka g-matrix)                 ...  NO
Zero-Field splitting spin-orbit         ...  NO
Zero-field splitting spin-spin          ...  NO
Hyperfine couplings                     ...  NO (   0 nuclei)
Quadrupole couplings                    ...  NO (   0 nuclei)
Contact density                         ...  NO (   0 nuclei)

NMR properties:
Chemical shifts                         ...  NO (   0 nuclei)
Spin-rotation constants                 ...  NO (   0 nuclei)
Spin-spin couplings                     ...  NO (   0 nuclei,    0 pairs)

Choice of magnetic origin               ... GIAO
Position of magnetic origin             ...     0.000000     0.000000     0.000000

Properties with geometric perturbations:
SCF Hessian                             ...  NO
IR spectrum                             ...  NO
VCD spectrum                            ...  NO
X-ray spectroscopy properties:
SCF XES/XAS/RIXS spectra                ...  NO


-------------
DIPOLE MOMENT
-------------

Method             : SCF
Type of density    : Electron Density
Multiplicity       :   1
Irrep              :   0
Energy             : -2932.4961729899769125 Eh
Relativity type    : 
Basis              : AO
                                X                 Y                 Z
Electronic contribution:      4.173217237      -7.202587706      -7.632006707
Nuclear contribution   :     -3.987144649       7.082966932       9.500422005
                        -----------------------------------------
Total Dipole Moment    :      0.186072588      -0.119620774       1.868415298
                        -----------------------------------------
Magnitude (a.u.)       :      1.881464287
Magnitude (Debye)      :      4.782302162



--------------------
Rotational spectrum 
--------------------
 
Rotational constants in cm-1:             0.011434             0.005277             0.004762 
Rotational constants in MHz :           342.772593           158.203922           142.775746 

Dipole components along the rotational axes: 
x,y,z [a.u.] :     0.453037    -1.124274    -1.438984 
x,y,z [Debye]:     1.151529    -2.857676    -3.657606 

 

Dipole moment calculation done in   0.1 sec 

Maximum memory used throughout the entire PROP-calculation: 51.5 MB

--------------------------------
SUGGESTED CITATIONS FOR THIS RUN
--------------------------------

Below you find a list of papers that are relevant to this ORCA run
We neither can nor want to force you to cite these papers, but we appreciate if you do
You receive ORCA, which is the product of decades of hard work by many enthusiastic individuals, for free
The only thing we kindly ask in return is that you cite our papers,
We deeply appreciate it, if you show your appreciation for ORCA by not just citing the generic ORCA reference.

Please note that relegating all ORCA citations to the supporting information does *not* help us.
SI sections are not indexed - citations you put there will not count into any citation statistics
But we need these citations in order to attract the funding resources that allow us to do what we are doing

Therefore, if you are a happy ORCA user, please consider citing a few of the papers listed below in the main body of your paper

In addition to the list printed below, the program has created the file sp_solv.bibtex that contains the list in bibtex format
You can import this file easily into all common literature databanks and citation aid programs


List of essential papers. We consider these as the minimum necessary citations

  1. Neese,F.
     Software update: the ORCA program system, version 5.0
     WIRES Comput. Molec. Sci., 2022 12(1)e1606
     doi.org/10.1002/wcms.1606
  2. Grimme,S.; Hansen,A.; Ehlert,S.; Mewes,J.
     r2SCAN-3c: A 'Swiss army knife' composite electronic-structure method
     J. Chem. Phys., 2021 154 064103
     doi.org/10.1063/5.0040021

List of papers to cite with high priority. The work reported in these papers was absolutely
necessary for this run to complete.
Our perspective: the developers of density functionals and basis sets usually get cited in chemistry papers
Good! But without the algorithms to do something with them, the functionals or basis sets would not do anything.
Hence, in our opinion, the algorithm design and method developments papers are equally worthy of getting cited

  1. Neese,F.
     An improvement of the resolution of the identity approximation for the formation of the Coulomb matrix
     J. Comp. Chem., 2003 24(14)1740-1747
     doi.org/10.1002/jcc.10318
  2. Garcia-Rates,M.; Neese,F.
     Effect of the Solute Cavity on the Solvation Energy and its Derivatives within the Framework of the Gaussian Charge Scheme
     J. Comput. Chem., 2020 41 922-939
     doi.org/10.1002/jcc.26139
  3. Neese,F.
     The SHARK Integral Generation and Digestion System
     J. Comp. Chem., 2022  1-16
     doi.org/10.1002/jcc.26942
  4. Lehtola,S.; Steigemann,C.; Oliveira,M.; Marques,M.
     Recent developments in Libxc - A comprehensive library of functionals for density functional theory
     Software X, 2018 7 
     doi.org/10.1016/j.softx.2017.11.002
  5. Caldeweyher,E.; Bannwarth,C.; Grimme,S.
     Extension of the D3 dispersion coefficient model
     J. Chem. Phys., 2017 147 034112-XXXX
     doi.org/10.1063/1.4993215
  6. Caldeweyher,E.; Ehlert,S.; Hansen,A.; Neugebauer,H.; Spicher,S.; Bannwarth,C.; Grimme,S.
     A generally applicable atomic-charge dependent London dispersion correction
     J. Chem. Phys., 2019 150 154122-XXXX
     doi.org/10.1063/1.5090222
  7. Caldeweyher,E.; Mewes,J.; Ehlert,S.; Grimme,S.
     Extension and evaluation of the D4 London-dispersion model for periodic systems
     Phys. Chem. Chem. Phys., 2020 22(16)8499-8512
     doi.org/10.1039/D0CP00502A

List of suggested additional citations. These are papers that are important in the 'surrounding' of 
of this run, or papers that preceded the highly important papers. If you like your results we are grateful for a citation.

  1. Neese,F.
     The ORCA program system
     WIRES Comput. Molec. Sci., 2012 2(1)73-78
     doi.org/10.1002/wcms.81
  2. Neese,F.
     Software update: the ORCA program system, version 4.0
     WIRES Comput. Molec. Sci., 2018 8(1)1-6
     doi.org/10.1002/wcms.1327
  3. Neese,F.; Wennmohs,F.; Becker,U.; Riplinger,C.
     The ORCA quantum chemistry program package
     J. Chem. Phys., 2020 152 Art. No. L224108
     doi.org/10.1063/5.0004608

List of optional additional citations

  1. Neese,F.
     Approximate second-order SCF convergence for spin unrestricted wavefunctions
     Chem. Phys. Lett., 2000 325(1-3)93-98
     doi.org/10.1016/s0009-2614(00)00662-x

Timings for individual modules:

Sum of individual times          ...      114.390 sec (=   1.906 min)
Startup calculation              ...        3.196 sec (=   0.053 min)   2.8 %
SCF iterations                   ...      110.992 sec (=   1.850 min)  97.0 %
Property calculations            ...        0.201 sec (=   0.003 min)   0.2 %
                             ****ORCA TERMINATED NORMALLY****
TOTAL RUN TIME: 0 days 0 hours 1 minutes 55 seconds 155 msec
