41
 energy: -65.046835325111 gnorm: 0.053809979775 xtb: 6.7.1 (edcfbbe)
C            4.51374546154651       -2.34765588280649        1.01164043486345
C            4.77223427191669       -0.90610980276692        0.64899161724905
O            3.58695303603677       -0.05949773662202        0.84477874992468
P            2.35683999340273        0.00355182137978       -0.19357334616192
S            2.74099751671387       -0.31517759915957       -2.07588306700130
O            1.72841056386013        1.43078018823865        0.19265880311078
C            1.86870163777577        2.61620909102723       -0.65961605108350
C            3.23051713174222        3.24861705489538       -0.51231563315711
S            0.97149758160100       -1.32101117937717        0.71078695324492
C           -0.28152615369211       -1.43895512144525       -0.63281310115023
S           -1.14945054315551        0.11269442091637       -1.11493419053118
P           -2.77729519060362        0.15418522375847        0.22840005578233
S           -3.81025624835295        1.76760240155371       -0.11314755361635
O           -2.16547902814960       -0.06657969122404        1.69940699728327
C           -1.36554437250771        1.00579285685337        2.30402625533805
C           -0.91878947960289        0.51655439357992        3.65682233098874
O           -3.53565095090530       -1.25826252954798        0.15630824137398
C           -4.65365002864212       -1.49845253589947       -0.76456854253931
C           -4.20006426178000       -1.64130410337838       -2.19698710205200
H            5.46688025269107       -2.88606725827673        0.97919189034315
H            4.10698842340529       -2.43165681414962        2.02415793624734
H            3.82814678586542       -2.82702541742262        0.30727801977448
H            5.10580131995340       -0.79667657749059       -0.38764136230274
H            5.51500107291005       -0.45561222120117        1.31033311820195
H            1.66160181891393        2.32677703895855       -1.69437009235660
H            1.07412909293103        3.27886139334197       -0.31054358877284
H            3.43751041148507        3.49827166250713        0.53222297354668
H            4.02051982836007        2.59084816383247       -0.88740438298072
H            3.25057555238468        4.17295412919002       -1.09866002598369
H           -1.00579786518970       -2.18896007434755       -0.30109201953194
H            0.20841156177225       -1.80342972394828       -1.54027432291755
H           -0.51451944766539        1.21811253561668        1.64805566909420
H           -1.99594465387338        1.89710252763099        2.38278314513323
H           -1.78008825569408        0.28223688965531        4.28951706882735
H           -0.28858952026125       -0.37285466342895        3.56361570056141
H           -0.33614780082771        1.30555471976542        4.14281781429894
H           -5.09288713098735       -2.42477242079444       -0.38953598617605
H           -5.37872698548805       -0.68774714511538       -0.64270136660087
H           -3.39338211855267       -2.37536487196312       -2.27885369976338
H           -5.04774507626713       -1.98862931208637       -2.79584046820097
H           -3.85799876251315       -0.68913805558404       -2.61178234012457
41
 energy: -65.051117352286 gnorm: 0.029260074990 xtb: 6.7.1 (edcfbbe)
C            4.50482386507738       -2.34116409998715        1.00783271464431
C            4.75625907244107       -0.89716112548633        0.64175492467473
O            3.58249133530520       -0.05603007426347        0.83125247861271
P            2.34521573108457       -0.00454757823310       -0.18875047089595
S            2.75719448491236       -0.29883201143939       -2.08296321655027
O            1.71801667315335        1.41950128741986        0.18825850003052
C            1.86574363578305        2.59826469351262       -0.65364313458629
C            3.22645912934678        3.23809699249583       -0.50933933940506
S            0.93892569983852       -1.27967072121575        0.73508718240474
C           -0.26360451157927       -1.46553755750545       -0.63028368965603
S           -1.09142366621722        0.09348174219923       -1.09704291548694
P           -2.76540085129690        0.16501894633460        0.21058435851012
S           -3.86955235775564        1.76567235223104       -0.04998093268519
O           -2.15315010164884       -0.06131793142835        1.67303096691579
C           -1.37027290186772        0.99989273798116        2.29222878756740
C           -0.91988114711256        0.51564093052710        3.65017557487536
O           -3.50847397557753       -1.24816836306336        0.13720780405088
C           -4.63173991512256       -1.48938291091951       -0.75772432654782
C           -4.19367496290085       -1.63617700481058       -2.19632092838024
H            5.45062894527051       -2.88090335526178        0.97323389861667
H            4.09462404665265       -2.41731760862174        2.01318870169114
H            3.81271946370310       -2.80767645900520        0.30780929977160
H            5.07958743877658       -0.80076399396325       -0.39876456184563
H            5.49788087088265       -0.44322709582321        1.30179679995002
H            1.67028783585128        2.30607154624116       -1.68962046370527
H            1.07100943025840        3.26155871279072       -0.30725512407953
H            3.43026648716496        3.47724402701476        0.53264936185765
H            4.00633462400784        2.57259921467365       -0.87951849875373
H            3.24872921695114        4.15747398834639       -1.09342481429279
H           -1.00674959705328       -2.18488302797302       -0.28680120332392
H            0.24519458297787       -1.81085889131974       -1.53076910009645
H           -0.51611269101377        1.22198899384571        1.64487555075087
H           -2.00300678444394        1.88891583937117        2.36746692367780
H           -1.78035042835125        0.27514582424307        4.27106854778952
H           -0.29653154324086       -0.37086159678413        3.54996898767929
H           -0.34229541986691        1.30089777279597        4.13498308748396
H           -5.06426997245625       -2.41572770146608       -0.37466732138936
H           -5.35019063570427       -0.67287477701377       -0.63909099986613
H           -3.39278225425494       -2.36884860334316       -2.27934656214682
H           -5.04076136706639       -1.97549353253780       -2.79031287968204
H           -3.84623804435208       -0.68427380589348       -2.59757843599653
41
 energy: -65.052809455905 gnorm: 0.011932815094 xtb: 6.7.1 (edcfbbe)
C            4.48484404124629       -2.32954561677347        1.00300165703651
C            4.73501896241940       -0.88325135812139        0.63150495706439
O            3.57372128489741       -0.04811599211916        0.81833214493206
P            2.32647097788605       -0.00730119302436       -0.17746560783850
S            2.74324699848495       -0.30847534866882       -2.07353864781664
O            1.70185108962194        1.41445958934636        0.18505694979984
C            1.85745593358240        2.58255496342441       -0.64912776241966
C            3.22199420266283        3.22041487092182       -0.50223746186569
S            0.92557496487289       -1.27744174094596        0.75467736250547
C           -0.26170272914603       -1.44689087634877       -0.61206435639744
S           -1.06177232533512        0.10557669325535       -1.12442536935259
P           -2.73577124332925        0.15156994669769        0.20134671758709
S           -3.85847113642197        1.74155578958113       -0.03508836955183
O           -2.12996289304424       -0.06664597159845        1.65812897958660
C           -1.37086670733805        0.99255708776646        2.28110729319783
C           -0.92125035483795        0.51137281120412        3.64438126423063
O           -3.47059398290774       -1.25598587898455        0.12192727164487
C           -4.60099265159938       -1.48518040170343       -0.74655692724512
C           -4.18142440451704       -1.63063445245914       -2.19435810367266
H            5.42432056590276       -2.87107640518818        0.96390137199650
H            4.07440655615019       -2.39835958959765        2.00497307653443
H            3.78556294493292       -2.78461856189839        0.30593690106603
H            5.05154385214348       -0.80146222061695       -0.41254905751893
H            5.48015799107787       -0.42922198639309        1.28702477999773
H            1.67442580449518        2.28845731848299       -1.68715071080083
H            1.06369181812724        3.25006724807953       -0.30972395139977
H            3.42235126134027        3.45093969498505        0.53893742689544
H            3.99220633040307        2.54554613005634       -0.86892076302205
H            3.24851591723767        4.13529078209810       -1.08502584048122
H           -1.01296692229043       -2.15325565860107       -0.27016889994197
H            0.26262302477349       -1.79511251711693       -1.49936055249101
H           -0.51135543101946        1.22833220897233        1.64484120055102
H           -2.01003477850536        1.87761405886528        2.35223392449234
H           -1.78343834290665        0.26486872171800        4.25399842719719
H           -0.30041159914149       -0.37188599903917        3.53678048086406
H           -0.35028964286545        1.29663007628327        4.12642158916225
H           -5.03557737085684       -2.40869736431186       -0.36002508431719
H           -5.30987921750735       -0.66026219370571       -0.62681693857653
H           -3.38963656532255       -2.36769959285146       -2.28506222466161
H           -5.03318119124936       -1.95325521513229       -2.78361692569297
H           -3.82447559156049       -0.67766608187277       -2.57997468909511
41
 energy: -65.053408881431 gnorm: 0.006668125842 xtb: 6.7.1 (edcfbbe)
C            4.46224263327405       -2.31737146949964        0.99939949099445
C            4.72127237627602       -0.87103570786029        0.62366017499661
O            3.56811220653813       -0.03629297855679        0.81073393945226
P            2.31562925409346       -0.00488224149808       -0.17002823307336
S            2.71231876956676       -0.32949037645746       -2.06512261101876
O            1.68422855420890        1.41134176970225        0.18287484819758
C            1.84567021935003        2.57366504649810       -0.64800296706908
C            3.21629447058754        3.20207788648129       -0.49328515901652
S            0.92045348026672       -1.27275723996689        0.77399913540491
C           -0.25293778896116       -1.44336858117440       -0.60170412797863
S           -1.05287927657952        0.10498957208039       -1.12229553472125
P           -2.72532668720226        0.15575197298886        0.20101983925062
S           -3.85975820137921        1.73526814058163       -0.02518049130569
O           -2.10248687347043       -0.06718828743369        1.64324022678928
C           -1.36353065772559        0.99406006707614        2.27277061331888
C           -0.91997974999987        0.50663243787721        3.63783858227105
O           -3.43395572539701       -1.25843741473438        0.10668535878916
C           -4.57306495130965       -1.48427986072268       -0.74115101879705
C           -4.16864418636357       -1.62478917537447       -2.19640773314602
H            5.39747873886283       -2.86471985373843        0.95579976008255
H            4.05418282935229       -2.38096274101953        2.00321649027406
H            3.75625355437640       -2.76581945670019        0.30360184526370
H            5.03717188551037       -0.79923782949498       -0.42203085101058
H            5.47381354030350       -0.42138660306830        1.27344452391750
H            1.67065009489648        2.28293588151038       -1.68907633729597
H            1.05392514629958        3.24780527659361       -0.31701579346761
H            3.41388440938165        3.42781275365372        0.54984829913862
H            3.98163758445771        2.52024677631134       -0.85894526355474
H            3.25074492679152        4.11673768326448       -1.07487114379045
H           -1.01077755308272       -2.14457719960341       -0.26492803626199
H            0.27828193332511       -1.80379891112479       -1.48041465289897
H           -0.49976741953494        1.24780287865802        1.64708428753618
H           -2.01216865018837        1.87300209727908        2.34719423924927
H           -1.78626255436354        0.25359915908940        4.23985400773302
H           -0.29597066710152       -0.37439931497845        3.52585631229246
H           -0.35525677809988        1.29236169958820        4.12510087268166
H           -5.00908648218379       -2.40650005798236       -0.35386844642864
H           -5.27916116587409       -0.65738841787274       -0.61490436586510
H           -3.38450894906189       -2.36946750697079       -2.29810012097527
H           -5.02901176163446       -1.93146781649290       -2.78126702378127
H           -3.80378108764950       -0.67070628224329       -2.57336740399401
41
 energy: -65.053619632141 gnorm: 0.005286885320 xtb: 6.7.1 (edcfbbe)
C            4.44380036945673       -2.30767797043428        0.99689156877189
C            4.71272250709160       -0.86313758088200        0.61814276181872
O            3.56361547648260       -0.02348904901056        0.80558118834547
P            2.30730860328869       -0.00308517201138       -0.16678085225659
S            2.69187336085014       -0.34091206124460       -2.06181377830199
O            1.66691377214623        1.40857138852600        0.17989182297497
C            1.83676163324257        2.57023002488900       -0.64964671521400
C            3.21167325390645        3.18885865846691       -0.48689268753107
S            0.91253469925336       -1.26626036849399        0.78690645399169
C           -0.25542296224048       -1.44205654342291       -0.59425103542158
S           -1.03876962904035        0.11227791182565       -1.13148208668319
P           -2.70689282945845        0.15129489103742        0.19803706818610
S           -3.84819404545914        1.72535123775610       -0.02494244197690
O           -2.07937560098633       -0.06952554772200        1.63586530511924
C           -1.35557838962098        0.99741123118114        2.27248211370652
C           -0.91732551097925        0.50565062188561        3.63767817390609
O           -3.40688950261890       -1.26456889725310        0.09760406956585
C           -4.55441583345623       -1.48600609338855       -0.73932082054756
C           -4.16044158073427       -1.62185214944923       -2.19867919842293
H            5.37523285002115       -2.86342335477832        0.95054814589509
H            4.03841691504239       -2.36709678211695        2.00338003143556
H            3.73184606552623       -2.75214126139853        0.30304282500387
H            5.02957010283073       -0.79665050515385       -0.42807911616326
H            5.47195189886144       -0.41830465512830        1.26361312297856
H            1.66445439822846        2.28370737283545       -1.69274546819591
H            1.04760815647486        3.25050002563757       -0.32462358865102
H            3.40633648900609        3.41068440285047        0.55883411873188
H            3.97428225084643        2.50183073326555       -0.85140788197398
H            3.25674916135800        4.10586182617964       -1.06622683287511
H           -1.01963334766890       -2.14147925321368       -0.26371387613429
H            0.28069542109514       -1.81350769288852       -1.46684204913029
H           -0.48918245937677        1.26256715243951        1.65448860106255
H           -2.01194295309008        1.87136012169515        2.34714355013256
H           -1.78677980824081        0.24666106129823        4.23469864492472
H           -0.28900990530210       -0.37367102272098        3.52448278644782
H           -0.35688786513392        1.29100865705738        4.13301469721535
H           -4.99327856070347       -2.40721285088737       -0.35301291080083
H           -5.25848376064976       -0.65782941060619       -0.60619216376569
H           -3.38384784067348       -2.37465028522864       -2.31102904696746
H           -5.02870966990059       -1.91465818887344       -2.78082284721080
H           -3.78735588911899       -0.66886484785421       -2.57256611980725
41
 energy: -65.053704376827 gnorm: 0.003703419935 xtb: 6.7.1 (edcfbbe)
C            4.42979179434435       -2.30098814103478        0.99525982985416
C            4.70594147023548       -0.85901305097089        0.61436485542471
O            3.55900524399691       -0.01263628577914        0.80110122170201
P            2.29962243887437       -0.00162827942920       -0.16683230375670
S            2.68223520469490       -0.34493082442201       -2.06120987112206
O            1.65239439797034        1.40782590392895        0.17575628452884
C            1.83196801440940        2.57108321486907       -0.65232400121835
C            3.20940588467816        3.18081294265650       -0.48317963443986
S            0.91402323285543       -1.27174867944312        0.79196842374326
C           -0.25158811314669       -1.44634643209715       -0.59234057171974
S           -1.03245672331501        0.10778199053584       -1.13594988114121
P           -2.69636493866050        0.15125597496976        0.19664494192060
S           -3.84296594805794        1.72235936528145       -0.02287151627659
O           -2.06514597007950       -0.06863312083305        1.63275617641535
C           -1.34880717286705        1.00147535791842        2.27602753975416
C           -0.91455190328518        0.50678228875365        3.64057264069420
O           -3.39190796731233       -1.26659152699119        0.09284763753362
C           -4.54362596325012       -1.48711128301824       -0.74082657350471
C           -4.15598331389972       -1.62031263650582       -2.20140825772858
H            5.35796732873969       -2.86348963483244        0.94786538713530
H            4.02652870999757       -2.35742841568649        2.00329475286294
H            3.71383971970069       -2.74299628196774        0.30355055224112
H            5.02312018619931       -0.79409681355842       -0.43187546005802
H            5.46810541439180       -0.41688732721193        1.25831157742950
H            1.65953816911936        2.28661162392994       -1.69597661670768
H            1.04524419266220        3.25517736043080       -0.32932614316860
H            3.40134287057444        3.39910718329812        0.56432303446877
H            3.96992512032023        2.49034916734127       -0.84658068703758
H            3.26365375236921        4.10004003616895       -1.05965193786195
H           -1.01998405070973       -2.14262986539300       -0.26274244355863
H            0.28355310379780       -1.82465184922875       -1.46280661098206
H           -0.48193403700557        1.27217496081152        1.66198948585009
H           -2.01063035436688        1.87133816092400        2.34964618837263
H           -1.78519768907068        0.24364151233630        4.23474211842583
H           -0.28314850336206       -0.37101323498893        3.52755037552819
H           -0.35689844501514        1.29105026086613        4.14245107975932
H           -4.98176487841592       -2.40866510688653       -0.35443622118360
H           -5.24697777424641       -0.65905515223246       -0.60232484283959
H           -3.38551441512819       -2.37877665688712       -2.32068730313634
H           -5.02895760486198       -1.90419389201012       -2.78162483042218
H           -3.77687104331909       -0.66927703894691       -2.57479286359782
41
 energy: -65.053749022411 gnorm: 0.001930108226 xtb: 6.7.1 (edcfbbe)
C            4.41751259831716       -2.29508148051470        0.99418647564973
C            4.70196051520898       -0.85613210255944        0.61201537736347
O            3.55821779161310       -0.00161516509231        0.79678567124747
P            2.29702806796756        0.00069815299946       -0.16917027748389
S            2.67920130960496       -0.34460165967904       -2.06352724103043
O            1.64105640291381        1.40719857515948        0.17126840211103
C            1.82897566894449        2.57304028162986       -0.65451050997859
C            3.20818084445866        3.17454904680736       -0.48031878098208
S            0.91494914633924       -1.27240566628620        0.78793992931528
C           -0.25182484887870       -1.45388512625434       -0.59412689149399
S           -1.02775435308846        0.10125023126385       -1.14013996147541
P           -2.68793428141737        0.14968027633728        0.19608701535792
S           -3.83299102942761        1.72105334555986       -0.02411708366957
O           -2.05502480371431       -0.06801125836950        1.63235218654055
C           -1.34289429540559        1.00416267369234        2.28073929395323
C           -0.91213615016528        0.50829778550629        3.64503236746006
O           -3.38416299844765       -1.26839736251397        0.09193389548535
C           -4.53707237922230       -1.48816099358098       -0.74251954861608
C           -4.15279891023777       -1.61957538200854       -2.20303111544383
H            5.34214867372511       -2.86352014962173        0.94653449091852
H            4.01537342141206       -2.34867605845120        2.00275045408955
H            3.69835845393332       -2.73416128310417        0.30415764235067
H            5.01861844160956       -0.79185907259523       -0.43422064822619
H            5.46475647046307       -0.41596623922906        1.25634069125268
H            1.65586342988774        2.29000971843976       -1.69831790585936
H            1.04454201314529        3.25927063472504       -0.33073945385582
H            3.39809918147531        3.38908283963430        0.56827661203418
H            3.96647538942624        2.48171766956930       -0.84341435479674
H            3.26936509851325        4.09536483427726       -1.05362082646271
H           -1.02135977271854       -2.14721627182959       -0.26139475888128
H            0.28271104188488       -1.83518720386586       -1.46335237358472
H           -0.47585387932454        1.27755755393462        1.66934411522388
H           -2.00874139617965        1.87068560789156        2.35248652793072
H           -1.78321880227697        0.24238512455122        4.23698860868438
H           -0.27827728337975       -0.36785173143103        3.53309577486629
H           -0.35714106619090        1.29219226283378        4.15071362192019
H           -4.97338472892165       -2.41049868242429       -0.35592265501477
H           -5.23964661373814       -0.66021569265904       -0.60048450670488
H           -3.38817100050983       -2.38276573900393       -2.32704052085008
H           -5.02885221729066       -1.89603339451575       -2.78189593149477
H           -3.76822370975216       -0.67061312455746       -2.57590827566723
41
 energy: -65.053760850423 gnorm: 0.001752442694 xtb: 6.7.1 (edcfbbe)
C            4.40918206841130       -2.29183888952796        0.99362351485937
C            4.69823687358278       -0.85484678609688        0.61089390318794
O            3.55590929220873        0.00392815941838        0.79190977726828
P            2.29486615676582        0.00120444712149       -0.17495049937633
S            2.68372764133923       -0.33852677209674       -2.06946117061675
O            1.63411769039526        1.40618833007511        0.16584038138942
C            1.82840568112512        2.57504897003528       -0.65584176301249
C            3.20872325624476        3.17128103607957       -0.47903351059337
S            0.91795480893133       -1.27481226276364        0.78744727600949
C           -0.24724930888014       -1.45807799647694       -0.59563485012182
S           -1.02538140890281        0.09350658620930       -1.14463721099910
P           -2.68376587773225        0.14816976559061        0.19505699662304
S           -3.82639378920159        1.72252506197200       -0.02411750208465
O           -2.05070657988638       -0.06840630345170        1.63228323089114
C           -1.33984439413402        1.00408226691283        2.28332330910284
C           -0.91117629603211        0.50874138596946        3.64825457860547
O           -3.38463780716182       -1.26861365484412        0.09454385188338
C           -4.53633861022523       -1.48829165151793       -0.74273211555701
C           -4.15134516471010       -1.61929849325804       -2.20248927637034
H            5.33179873851639       -2.86261150431080        0.94683908980970
H            4.00635901320927       -2.34343452908080        2.00159614858872
H            3.68920044455044       -2.72869744609067        0.30368031753852
H            5.01618194783250       -0.79124574873913       -0.43470925546520
H            5.45904994726990       -0.41522594164668        1.25764319842837
H            1.65458315667714        2.29464131839129       -1.70006402067828
H            1.04603771112722        3.26191873778690       -0.32887185970677
H            3.39829484044856        3.38213986662635        0.56997266328235
H            3.96479192997195        2.47723033451777       -0.84335205841460
H            3.27286282723664        4.09296851096637       -1.04956457404273
H           -1.01590890632304       -2.14967135057695       -0.25915742618016
H            0.28625214766859       -1.84044774598720       -1.46462805228185
H           -0.47220443465801        1.27759047689808        1.67332988417865
H           -2.00689522487870        1.86934654484915        2.35381344521299
H           -1.78251982211451        0.24187014171258        4.23864480203090
H           -0.27588186129188       -0.36609251281616        3.53779310726751
H           -0.35855294953237        1.29373228042804        4.15395656727152
H           -4.97095307809169       -2.41143217307471       -0.35619327523640
H           -5.23881365301565       -0.66066200972195       -0.60071577664813
H           -3.39046438421081       -2.38525761128533       -2.32765030871202
H           -5.02839547524172       -1.89127198551940       -2.78119943346759
H           -3.76317770673214       -0.67158507801153       -2.57418657168128
41
 energy: -65.053768070271 gnorm: 0.000899330739 xtb: 6.7.1 (edcfbbe)
C            4.40899571800132       -2.29134747914747        0.99386232828323
C            4.69937684291803       -0.85411582936182        0.61169078637853
O            3.55817376381004        0.00516822880007        0.79190893728290
P            2.29677791648641        0.00259809792214       -0.17457794288661
S            2.68321709243948       -0.33887556275963       -2.06915477005018
O            1.63591586728871        1.40757432436488        0.16610484390349
C            1.82907222017541        2.57610814848910       -0.65513240443564
C            3.20994414855167        3.17197054751656       -0.47943596984984
S            0.91909165498911       -1.27484816199560        0.78298879451857
C           -0.24881665381074       -1.46015530858408       -0.59693911651091
S           -1.02726075328900        0.09102071768135       -1.14563641474475
P           -2.68486347516912        0.14803433868030        0.19485815082384
S           -3.82553453102536        1.72378127815811       -0.02435132315830
O           -2.05089681288201       -0.06942526188767        1.63156134139087
C           -1.34000160971512        1.00261586869945        2.28198403318528
C           -0.91151558670902        0.50797357266324        3.64769874806286
O           -3.38752996781974       -1.26806017356174        0.09678385068324
C           -4.53812126204831       -1.48801427239906       -0.74134812106461
C           -4.15150656453677       -1.61921322110119       -2.20107182289389
H            5.33118487383431       -2.86261776794439        0.94749675591874
H            4.00504404427450       -2.34278407898955        2.00131120474930
H            3.68913432769834       -2.72717765667344        0.30307868536864
H            5.01840977621812       -0.79141461820620       -0.43365398807852
H            5.45996263284853       -0.41523154515936        1.25921136280374
H            1.65476682533263        2.29671398945073       -1.69952984476340
H            1.04724493703152        3.26295847587795       -0.32682551675909
H            3.40070035753452        3.38192948571425        0.56943189808472
H            3.96513483247126        2.47756897671433       -0.84491791003916
H            3.27339497727789        4.09366727563655       -1.04970855867618
H           -1.01609580263571       -2.15265016511229       -0.25956004635624
H            0.28522061542269       -1.84149905591026       -1.46601130742266
H           -0.47183240052627        1.27568285035911        1.67218187675558
H           -2.00640283895797        1.86844798691888        2.35247259942267
H           -1.78323736283067        0.24116477991848        4.23752046364902
H           -0.27604887196924       -0.36666318950370        3.53781888471982
H           -0.35972474725804        1.29390766981948        4.15255221169640
H           -4.97299573134644       -2.41117814071936       -0.35521354973640
H           -5.24096218742840       -0.66051361193331       -0.60071132586948
H           -3.39072102235399       -2.38537323172685       -2.32519792820997
H           -5.02808918170342       -1.89062361720734       -2.78070896218670
H           -3.76267662003321       -0.67133888883535       -2.57157540180619
41
 energy: -65.053771003914 gnorm: 0.000465588765 xtb: 6.7.1 (edcfbbe)
C            4.40841447892610       -2.29100939763087        0.99385823448693
C            4.69940327896355       -0.85337476758650        0.61216552646082
O            3.55825369941120        0.00540540779243        0.79094466515854
P            2.29695914321605        0.00279060371635       -0.17564844360029
S            2.68301587802848       -0.33840193692640       -2.07021817699085
O            1.63631955056077        1.40768129369977        0.16544136424220