      -----------------------------------------------------------      
     |                   =====================                   |     
     |                           x T B                           |     
     |                   =====================                   |     
     |                         S. Grimme                         |     
     |          Mulliken Center for Theoretical Chemistry        |     
     |                    University of Bonn                     |     
      -----------------------------------------------------------      

   * xtb version 6.7.1 (edcfbbe) compiled by 'albert@albert-system' on 2024-07-22

   xtb is free software: you can redistribute it and/or modify it under
   the terms of the GNU Lesser General Public License as published by
   the Free Software Foundation, either version 3 of the License, or
   (at your option) any later version.
   
   xtb is distributed in the hope that it will be useful,
   but WITHOUT ANY WARRANTY; without even the implied warranty of
   MERCHANTABILITY or FITNESS FOR A PARTICULAR PURPOSE.  See the
   GNU Lesser General Public License for more details.
   
   Cite this work as:
   * C. Bannwarth, E. Caldeweyher, S. Ehlert, A. Hansen, P. Pracht,
     J. Seibert, S. Spicher, S. Grimme, WIREs Comput. Mol. Sci., 2020, 11,
     e01493. DOI: 10.1002/wcms.1493
   
   for GFN2-xTB:
   * C. Bannwarth, S. Ehlert and S. Grimme., J. Chem. Theory Comput., 2019,
     15, 1652-1671. DOI: 10.1021/acs.jctc.8b01176
   for GFN1-xTB:
   * S. Grimme, C. Bannwarth, P. Shushkov, J. Chem. Theory Comput., 2017,
     13, 1989-2009. DOI: 10.1021/acs.jctc.7b00118
   for GFN0-xTB:
   * P. Pracht, E. Caldeweyher, S. Ehlert, S. Grimme, ChemRxiv, 2019, preprint.
     DOI: 10.26434/chemrxiv.8326202.v1
   for GFN-FF:
   * S. Spicher and S. Grimme, Angew. Chem. Int. Ed., 2020, 59, 15665-15673.
     DOI: 10.1002/anie.202004239
   
   for ALPB and GBSA implicit solvation:
   * S. Ehlert, M. Stahn, S. Spicher, S. Grimme, J. Chem. Theory Comput.,
     2021, 17, 4250-4261. DOI: 10.1021/acs.jctc.1c00471
   
   for ddCOSMO and CPCM-X implicit solvation:
   * M. Stahn, S. Ehlert, S. Grimme, J. Phys. Chem. A,
     2023, XX, XXXX-XXXX. DOI: 10.1021/acs.jpca.3c04382
   
   for DFT-D4:
   * E. Caldeweyher, C. Bannwarth and S. Grimme, J. Chem. Phys., 2017,
     147, 034112. DOI: 10.1063/1.4993215
   * E. Caldeweyher, S. Ehlert, A. Hansen, H. Neugebauer, S. Spicher,
     C. Bannwarth and S. Grimme, J. Chem. Phys., 2019, 150, 154122.
     DOI: 10.1063/1.5090222
   * E. Caldeweyher, J.-M. Mewes, S. Ehlert and S. Grimme, Phys. Chem. Chem. Phys.
     2020, 22, 8499-8512. DOI: 10.1039/D0CP00502A
   
   for sTDA-xTB:
   * S. Grimme and C. Bannwarth, J. Chem. Phys., 2016, 145, 054103.
     DOI: 10.1063/1.4959605
   
   in the mass-spec context:
   * V. Asgeirsson, C. Bauer and S. Grimme, Chem. Sci., 2017, 8, 4879.
     DOI: 10.1039/c7sc00601b
   * J. Koopman and S. Grimme, ACS Omega 2019, 4, 12, 15120-15133.
     DOI: 10.1021/acsomega.9b02011
   
   for metadynamics refer to:
   * S. Grimme, J. Chem. Theory Comput., 2019, 155, 2847-2862
     DOI: 10.1021/acs.jctc.9b00143
   
   for SPH calculations refer to:
   * S. Spicher and S. Grimme, J. Chem. Theory Comput., 2021, 17, 1701-1714
     DOI: 10.1021/acs.jctc.0c01306
   
   for ONIOM refer to:
   * C. Plett, A. Katbashev, S. Ehlert, S. Grimme, M. Bursch,
     Phys. Chem. Chem. Phys., 2023, 25, 17860-17868. DOI: 10.1039/D3CP02178E
   
   for DIPRO refer to:
   * J. Kohn, N. Gildemeister, S. Grimme, D. Fazzi, A. Hansen,
     J. Chem. Phys., 2023, just accepted.
   
   for PTB refer to:
   * S. Grimme, M. Mueller, A. Hansen, J. Chem. Phys., 2023, 158, 124111.
     DOI: 10.1063/5.0137838
   
   with help from (in alphabetical order)
   P. Atkinson, C. Bannwarth, F. Bohle, G. Brandenburg, E. Caldeweyher
   M. Checinski, S. Dohm, S. Ehlert, S. Ehrlich, I. Gerasimov, C. Hölzer
   A. Katbashev, J. Kohn, J. Koopman, C. Lavigne, S. Lehtola, F. März, M. Müller,
   F. Musil, H. Neugebauer, J. Pisarek, C. Plett, P. Pracht, F. Pultar,
   J. Seibert, P. Shushkov, S. Spicher, M. Stahn, M. Steiner, T. Strunk,
   J. Stückrath, T. Rose, and J. Unsleber
   
 * started run on 2025/04/09 at 05:20:52.479     
   ID    Z sym.   atoms
    1    6 C      1, 2, 7, 8, 10, 15, 16, 18, 19
    2    8 O      3, 6, 14, 17
    3   15 P      4, 12
    4   16 S      5, 9, 11, 13
    5    1 H      20-41

           -------------------------------------------------
          |                Calculation Setup                |
           -------------------------------------------------

          program call               : /srv/scratch/z5358697/.xtb/bin/xtb solv.coord --gfn2 --sp --chrg 0 --norestart --parallel 1 --alpb water reference -I xtb_sp-xcontrol-inp
          hostname                   : k163
          coordinate file            : solv.coord
          omp threads                :                     1


           -------------------------------------------------
          |                 G F N 2 - x T B                 |
           -------------------------------------------------

        Reference                      10.1021/acs.jctc.8b01176
      * Hamiltonian:
        H0-scaling (s, p, d)           1.850000    2.230000    2.230000
        zeta-weighting                 0.500000
      * Dispersion:
        s8                             2.700000
        a1                             0.520000
        a2                             5.000000
        s9                             5.000000
      * Repulsion:
        kExp                           1.500000    1.000000
        rExp                           1.000000
      * Coulomb:
        alpha                          2.000000
        third order                    shell-resolved
        anisotropic                    true
        a3                             3.000000
        a5                             4.000000
        cn-shift                       1.200000
        cn-exp                         4.000000
        max-rad                        5.000000

      * Solvation model:               ALPB
        Solvent                        water
        Parameter file                 internal GFN2-xTB/ALPB
        Dielectric constant                8.0200E+01
        Reference state                gsolv=reference [X=1]
        Free energy shift                  2.8945E-03 Eh       1.8164E+00 kcal/mol
        Temperature                        2.9815E+02 K
        Density                            1.0000E+00 kg/L
        Solvent mass                       1.8000E+01 g/mol
        Interaction kernel             P16
        Born radius scaling (c1)           1.4744E+00
        Born radii integrator          GBOBC
        Born offset                        0.0000E+00 a0       0.0000E+00 AA
        H-bond correction              true
        Ion screening                  false
        Surface tension                    1.0000E-05 Eh       1.5569E+01 dyn/cm
        Grid points                               974 per atom

          ...................................................
          :                      SETUP                      :
          :.................................................:
          :  # basis functions                 134          :
          :  # atomic orbitals                 128          :
          :  # shells                           66          :
          :  # electrons                       116          :
          :  max. iterations                   250          :
          :  Hamiltonian                  GFN2-xTB          :
          :  restarted?                      false          :
          :  GBSA solvation                   true          :
          :  PC potential                    false          :
          :  electronic temp.          300.0000000     K    :
          :  accuracy                    1.0000000          :
          :  -> integral cutoff          0.2500000E+02      :
          :  -> integral neglect         0.1000000E-07      :
          :  -> SCF convergence          0.1000000E-05 Eh   :
          :  -> wf. convergence          0.1000000E-03 e    :
          :  Broyden damping             0.4000000          :
          :  net charge                          0          :
          :  unpaired electrons                  0          :
          ...................................................

 iter      E             dE          RMSdq      gap      omega  full diag
   1    -65.4450651 -0.654451E+02  0.649E+00    3.96       0.0  T
   2    -65.5641721 -0.119107E+00  0.378E+00    3.39       1.0  T
   3    -65.5828224 -0.186504E-01  0.109E+00    2.93       1.0  T
   4    -65.5858855 -0.306308E-02  0.480E-01    2.90       1.0  T
   5    -65.5865685 -0.683003E-03  0.268E-01    2.95       1.0  T
   6    -65.5867630 -0.194444E-03  0.115E-01    2.95       1.0  T
   7    -65.5868073 -0.443357E-04  0.430E-02    2.97       1.0  T
   8    -65.5868116 -0.431878E-05  0.171E-02    2.97       1.0  T
   9    -65.5868125 -0.827214E-06  0.542E-03    2.96       2.9  T
  10    -65.5868124  0.105037E-07  0.257E-03    2.97       6.1  T
  11    -65.5868125 -0.497799E-07  0.666E-04    2.97      23.4  T
  12    -65.5868125 -0.950934E-09  0.351E-04    2.97      44.5  T

   *** convergence criteria satisfied after 12 iterations ***

         #    Occupation            Energy/Eh            Energy/eV
      -------------------------------------------------------------
         1        2.0000           -0.7673869             -20.8817
       ...           ...                  ...                  ...
        52        2.0000           -0.4468580             -12.1596
        53        2.0000           -0.4205593             -11.4440
        54        2.0000           -0.4085646             -11.1176
        55        2.0000           -0.3930260             -10.6948
        56        2.0000           -0.3909152             -10.6373
        57        2.0000           -0.3891335             -10.5889
        58        2.0000           -0.3884018             -10.5690 (HOMO)
        59                         -0.2794390              -7.6039 (LUMO)
        60                         -0.2538033              -6.9063
        61                         -0.2215336              -6.0282
        62                         -0.1969521              -5.3593
        63                         -0.1731635              -4.7120
       ...                                ...                  ...
       128                          1.3133235              35.7374
      -------------------------------------------------------------
                  HL-Gap            0.1089628 Eh            2.9650 eV
             Fermi-level           -0.3339204 Eh           -9.0864 eV

 SCC (total)                   0 d,  0 h,  0 min,  0.063 sec
 SCC setup                      ...        0 min,  0.003 sec (  4.095%)
 Dispersion                     ...        0 min,  0.000 sec (  0.490%)
 classical contributions        ...        0 min,  0.000 sec (  0.088%)
 integral evaluation            ...        0 min,  0.013 sec ( 19.809%)
 iterations                     ...        0 min,  0.025 sec ( 38.733%)
 molecular gradient             ...        0 min,  0.023 sec ( 36.335%)
 printout                       ...        0 min,  0.000 sec (  0.423%)

         :::::::::::::::::::::::::::::::::::::::::::::::::::::
         ::                     SUMMARY                     ::
         :::::::::::::::::::::::::::::::::::::::::::::::::::::
         :: total energy             -65.026513994291 Eh    ::
         :: total w/o Gsasa/hb       -65.029364425160 Eh    ::
         :: gradient norm              0.000177709380 Eh/a0 ::
         :: HOMO-LUMO gap              2.965027850256 eV    ::
         ::.................................................::
         :: SCC energy               -65.585620338734 Eh    ::
         :: -> isotropic ES            0.125797081422 Eh    ::
         :: -> anisotropic ES         -0.015595151901 Eh    ::
         :: -> anisotropic XC          0.030246646093 Eh    ::
         :: -> dispersion             -0.054987928112 Eh    ::
         :: -> Gsolv                  -0.019506211389 Eh    ::
         ::    -> Gelec               -0.022356642258 Eh    ::
         ::    -> Gsasa                0.003955721718 Eh    ::
         ::    -> Ghb                 -0.003999840009 Eh    ::
         ::    -> Gshift               0.002894549160 Eh    ::
         :: repulsion energy           0.559106344443 Eh    ::
         :: add. restraining           0.000000000000 Eh    ::
         :: total charge              -0.000000000000 e     ::
         :::::::::::::::::::::::::::::::::::::::::::::::::::::

           -------------------------------------------------
          |                Property Printout                |
           -------------------------------------------------

    * Orbital Energies and Occupations

         #    Occupation            Energy/Eh            Energy/eV
      -------------------------------------------------------------
         1        2.0000           -0.7673869             -20.8817
       ...           ...                  ...                  ...
        46        2.0000           -0.4671060             -12.7106
        47        2.0000           -0.4606689             -12.5354
        48        2.0000           -0.4592109             -12.4958
        49        2.0000           -0.4567325             -12.4283
        50        2.0000           -0.4525033             -12.3132
        51        2.0000           -0.4496895             -12.2367
        52        2.0000           -0.4468580             -12.1596
        53        2.0000           -0.4205593             -11.4440
        54        2.0000           -0.4085646             -11.1176
        55        2.0000           -0.3930260             -10.6948
        56        2.0000           -0.3909152             -10.6373
        57        2.0000           -0.3891335             -10.5889
        58        2.0000           -0.3884018             -10.5690 (HOMO)
        59                         -0.2794390              -7.6039 (LUMO)
        60                         -0.2538033              -6.9063
        61                         -0.2215336              -6.0282
        62                         -0.1969521              -5.3593
        63                         -0.1731635              -4.7120
        64                         -0.1688702              -4.5952
        65                         -0.1633264              -4.4443
        66                         -0.1499378              -4.0800
        67                         -0.1362860              -3.7085
        68                         -0.1261867              -3.4337
        69                         -0.0470021              -1.2790
       ...                                ...                  ...
       128                          1.3133235              35.7374
      -------------------------------------------------------------
                  HL-Gap            0.1089628 Eh            2.9650 eV
             Fermi-level           -0.3339204 Eh           -9.0864 eV

     #   Z          covCN         q      C6AA      α(0)
     1   6 C        3.751    -0.122    22.909     6.826
     2   6 C        3.830     0.085    19.147     6.226
     3   8 O        1.655    -0.270    18.492     5.805
     4  15 P        3.856     0.380   144.465    21.591
     5  16 S        0.926    -0.469   159.929    21.390
     6   8 O        1.655    -0.262    18.366     5.785
     7   6 C        3.872     0.076    19.274     6.242
     8   6 C        3.751    -0.130    23.054     6.847
     9  16 S        2.020    -0.130   146.495    20.371
    10   6 C        3.818     0.032    20.021     6.368
    11  16 S        2.015    -0.137   146.810    20.393
    12  15 P        3.855     0.372   144.759    21.613
    13  16 S        0.925    -0.468   159.886    21.387
    14   8 O        1.655    -0.270    18.486     5.804
    15   6 C        3.871     0.076    19.275     6.243
    16   6 C        3.751    -0.122    22.906     6.825
    17   8 O        1.655    -0.258    18.295     5.774
    18   6 C        3.841     0.079    19.232     6.239
    19   6 C        3.751    -0.132    23.106     6.855
    20   1 H        0.925     0.058     2.224     2.332
    21   1 H        0.925     0.083     1.944     2.180
    22   1 H        0.925     0.062     2.172     2.305
    23   1 H        0.924     0.062     2.180     2.309
    24   1 H        0.924     0.082     1.958     2.188
    25   1 H        0.924     0.091     1.874     2.141
    26   1 H        0.924     0.067     2.121     2.278
    27   1 H        0.925     0.058     2.228     2.334
    28   1 H        0.925     0.070     2.085     2.258
    29   1 H        0.925     0.087     1.905     2.159
    30   1 H        0.925     0.109     1.704     2.042
    31   1 H        0.925     0.115     1.656     2.012
    32   1 H        0.924     0.065     2.136     2.286
    33   1 H        0.924     0.092     1.859     2.132
    34   1 H        0.924     0.046     2.367     2.406
    35   1 H        0.925     0.088     1.898     2.154
    36   1 H        0.925     0.068     2.108     2.271
    37   1 H        0.924     0.082     1.964     2.191
    38   1 H        0.924     0.061     2.183     2.310
    39   1 H        0.925     0.088     1.903     2.157
    40   1 H        0.925     0.063     2.164     2.300
    41   1 H        0.925     0.074     2.041     2.234

 Mol. C6AA /au·bohr⁶  :      26396.833034
 Mol. C8AA /au·bohr⁸  :     862494.729390
 Mol. α(0) /au        :        257.564442


Wiberg/Mayer (AO) data.
largest (>0.10) Wiberg bond orders for each atom

 ---------------------------------------------------------------------------
     #   Z sym  total        # sym  WBO       # sym  WBO       # sym  WBO
 ---------------------------------------------------------------------------
     1   6 C    3.987 --     2 C    1.022    22 H    0.983    20 H    0.979
                            21 H    0.976
     2   6 C    3.890 --     1 C    1.022    23 H    0.971    24 H    0.966
                             3 O    0.872
     3   8 O    2.389 --     4 P    1.318     2 C    0.872
     4  15 P    5.289 --     5 S    1.504     6 O    1.333     3 O    1.318
                             9 S    0.983
     5  16 S    1.837 --     4 P    1.504     9 S    0.139
     6   8 O    2.411 --     4 P    1.333     7 C    0.885
     7   6 C    3.886 --     8 C    1.023    26 H    0.967    25 H    0.965
                             6 O    0.885
     8   6 C    3.986 --     7 C    1.023    28 H    0.982    29 H    0.976
                            27 H    0.975
     9  16 S    2.298 --    10 C    0.987     4 P    0.983     5 S    0.139
    10   6 C    3.947 --     9 S    0.987    11 S    0.983    31 H    0.956
                            30 H    0.951
    11  16 S    2.281 --    10 C    0.983    12 P    0.969    13 S    0.137
    12  15 P    5.275 --    13 S    1.502    17 O    1.340    14 O    1.309
                            11 S    0.969
    13  16 S    1.831 --    12 P    1.502    11 S    0.137
    14   8 O    2.393 --    12 P    1.309    15 C    0.891
    15   6 C    3.891 --    16 C    1.022    32 H    0.967    33 H    0.965
                            14 O    0.891
    16   6 C    3.988 --    15 C    1.022    36 H    0.982    35 H    0.976
                            34 H    0.971
    17   8 O    2.405 --    12 P    1.340    18 C    0.872
    18   6 C    3.885 --    19 C    1.021    37 H    0.968    38 H    0.961
                            17 O    0.872
    19   6 C    3.981 --    18 C    1.021    41 H    0.982    40 H    0.979
                            39 H    0.974
    20   1 H    0.997 --     1 C    0.979
    21   1 H    0.992 --     1 C    0.976
    22   1 H    0.996 --     1 C    0.983
    23   1 H    0.996 --     2 C    0.971
    24   1 H    0.993 --     2 C    0.966
    25   1 H    0.992 --     7 C    0.965
    26   1 H    0.996 --     7 C    0.967
    27   1 H    0.997 --     8 C    0.975
    28   1 H    0.995 --     8 C    0.982
    29   1 H    0.992 --     8 C    0.976
    30   1 H    0.988 --    10 C    0.951
    31   1 H    0.986 --    10 C    0.956
    32   1 H    0.996 --    15 C    0.967
    33   1 H    0.991 --    15 C    0.965
    34   1 H    0.998 --    16 C    0.971
    35   1 H    0.991 --    16 C    0.976
    36   1 H    0.995 --    16 C    0.982
    37   1 H    0.993 --    18 C    0.968
    38   1 H    0.996 --    18 C    0.961
    39   1 H    0.991 --    19 C    0.974
    40   1 H    0.996 --    19 C    0.979
    41   1 H    0.994 --    19 C    0.982
 ---------------------------------------------------------------------------

Topologies differ in total number of bonds
Writing topology from bond orders to xtbtopo.mol

molecular dipole:
                 x           y           z       tot (Debye)
 q only:       -0.414      -0.539      -0.304
   full:       -0.563      -0.371      -0.542       2.198
molecular quadrupole (traceless):
                xx          xy          yy          xz          yz          zz
 q only:        7.468      -2.505      23.644     -11.422     -11.182     -31.112
  q+dip:       14.430      -4.822      16.785     -15.357     -10.218     -31.215
   full:       13.883      -4.193      18.591     -14.651     -10.839     -32.475


           -------------------------------------------------
          | TOTAL ENERGY              -65.026513994291 Eh   |
          | GRADIENT NORM               0.000177709380 Eh/α |
          | HOMO-LUMO GAP               2.965027850256 eV   |
           -------------------------------------------------

------------------------------------------------------------------------
 * finished run on 2025/04/09 at 05:20:52.618     
------------------------------------------------------------------------
 total:
 * wall-time:     0 d,  0 h,  0 min,  0.138 sec
 *  cpu-time:     0 d,  0 h,  0 min,  0.072 sec
 * ratio c/w:     0.522 speedup
 SCF:
 * wall-time:     0 d,  0 h,  0 min,  0.064 sec
 *  cpu-time:     0 d,  0 h,  0 min,  0.059 sec
 * ratio c/w:     0.923 speedup

