41
 energy: -2932.483774252130 gnorm: 0.001218637546 xtb: 6.7.1 (edcfbbe)
C            2.48484067366668       -3.74853428400878        0.47357752489469
C            1.49709735783410       -2.70557351305683        0.93222561485553
O            1.17423294929852       -1.73630402121715       -0.12660466238140
P            2.22673530858174       -0.69440486865228       -0.73977049861078
S            3.17298347751635       -1.20584324866110       -2.36442053523818
O            3.11326609606964       -0.35573619197051        0.55879018360807
C            4.45970096600194        0.22482872017498        0.47825001150490
C            4.42108912532591        1.70732059180089        0.20143344347131
S            1.01354230219132        0.97585708829977       -1.16112753996365
C            0.46227006397275        1.51046513363198        0.51341716971868
S           -0.84204862178514        0.52888616724772        1.35567581812085
P           -2.48179749465615        0.84456481173383        0.04241968352906
S           -2.69411911926785        2.65396991197401       -0.63549498893058
O           -3.67148422178036        0.19632776534890        0.90972987744493
C           -4.58085750730214        0.98968054252117        1.75221000590145
C           -3.95449733665679        1.36367340899714        3.07150476090170
O           -2.33757483607298       -0.20856819773795       -1.15955326187420
C           -2.21829499393114       -1.65514568400234       -0.91131725265355
C           -1.63534446199773       -2.27789312538525       -2.15267198387786
H            3.46732045551890       -3.31336746100572        0.26868770362399
H            2.60181732485567       -4.49042258225534        1.27047714653935
H            2.12721790810115       -4.25994949876268       -0.42470884006893
H            1.85419408550958       -2.15399852675799        1.80533744243221
H            0.52675087654235       -3.14881115351573        1.16612080315016
H            4.88791543006399        0.00989063877272        1.45952670862052
H            5.02282737228813       -0.32080908489594       -0.28482347466322
H            3.80547380872312        2.22946936871861        0.93988218503911
H            5.44187827549621        2.09788948985057        0.26584896403763
H            4.03727564484047        1.92121941549986       -0.79983768130320
H            0.10951677939125        2.53792041814382        0.38389655429995
H            1.31531428258813        1.51173095797319        1.19782309094637
H           -4.89302128636086        1.86925275060419        1.18157281016413
H           -5.43943399696495        0.32917408913244        1.88742419376453
H           -3.59531080958177        0.47674918945187        3.60161333055399
H           -3.12495296232496        2.06404965336130        2.94176532578471
H           -4.71684710669439        1.84914328544565        3.68968047026354
H           -1.57256633796890       -1.81245280656307       -0.04131445366902
H           -3.21952930897756       -2.03696273616883       -0.69171245051986
H           -2.28476746908404       -2.11158146645788       -3.01689927329696
H           -0.64317431012152       -1.87019708714415       -2.36665487435903
H           -1.53932663441959       -3.35683021146803       -1.99521966579073
41
 energy: -2932.483764389905 gnorm: 0.002259537653 xtb: 6.7.1 (edcfbbe)
C            2.48545664270748       -3.74869394937543        0.47562315753532
C            1.49665267297519       -2.70527242960848        0.93270632003452
O            1.17373652673365       -1.73608227719725       -0.12653382214578
P            2.22550213856029       -0.69316934795551       -0.73861425897853
S            3.16980038717147       -1.20127847579170       -2.36519427958763
O            3.11329424576260       -0.35532637779983        0.55938994349606
C            4.46010171119034        0.22491189242067        0.47832294659185
C            4.42179664804621        1.70753390428707        0.20220585199947
S            1.01594497000413        0.97852487664780       -1.16690738771533
C            0.46684176393385        1.50853843272354        0.51020718738962
S           -0.84199870079246        0.53343413669500        1.35255778886407
P           -2.48451626219533        0.84229914477440        0.04196451982537
S           -2.69112741471044        2.65410512275455       -0.63023120585917
O           -3.67381963561487        0.19511672500642        0.91024253130584
C           -4.58158563185029        0.98930117841156        1.75307696707056
C           -3.95429698620801        1.36319318892744        3.07217262870325
O           -2.34072702096085       -0.21010913801408       -1.16068013259822
C           -2.22063757739265       -1.65658379865747       -0.91247462057148
C           -1.63576434411431       -2.27813503085491       -2.15342739807595
H            3.46825190188074       -3.31272422886614        0.27316841103146
H            2.60038031374019       -4.49122125213177        1.27223613068113
H            2.12904992872869       -4.25904462232874       -0.42372435030432
H            1.85341112625446       -2.15314107467924        1.80591673118136
H            0.52593886947113       -3.14856775489454        1.16612070432446
H            4.88858165308655        0.00932869305925        1.45926370584735
H            5.02285390438043       -0.32037442276098       -0.28527888671506
H            3.80538790618412        2.22920065838376        0.94031534040973
H            5.44244130876114        2.09834408039161        0.26772335779747
H            4.03882751287375        1.92181455121254       -0.79928676332753
H            0.11399786452444        2.53609853239584        0.38152697712983
H            1.31930086083827        1.50981257208721        1.19531514288571
H           -4.89337043117138        1.86911461208201        1.18250735235483
H           -5.44071542617798        0.32961462202715        1.88897861221394
H           -3.59479690194068        0.47639619279315        3.60227675396322
H           -3.12482841359959        2.06368476098574        2.94210391879356
H           -4.71640507106274        1.84870140303294        3.69065321857794
H           -1.57563434626626       -1.81340859123428       -0.04190507589987
H           -3.22195981929707       -2.03860727620091       -0.69413929002931
H           -2.28492972792268       -2.11295513922605       -3.01800930481669
H           -0.64416270389370       -1.86883743455454       -2.36688086469240
H           -1.53813476455963       -3.35681684919009       -1.99544809402269
41
 energy: -2932.483779107379 gnorm: 0.000892888373 xtb: 6.7.1 (edcfbbe)
C            2.48560758372429       -3.74849995959510        0.47627527306642
C            1.49650664706061       -2.70471103100579        0.93225667099749
O            1.17442485184433       -1.73634616169751       -0.12818551775614
P            2.22659508575633       -0.69402856211978       -0.74038722973723
S            3.17230852478562       -1.20402809373573       -2.36574559275332
O            3.11337650983202       -0.35543866045485        0.55810860482564
C            4.46021449247823        0.22495861868663        0.47788929641982
C            4.42189080657411        1.70765658055026        0.20225808910446
S            1.01511907582153        0.97694513132624       -1.16490438615706
C            0.46468165249790        1.50874005572213        0.51103111014222
S           -0.84221312580220        0.53115703896145        1.35361718046329
P           -2.48357625217127        0.84292136409960        0.04196371442232
S           -2.69268169371307        2.65406088252795       -0.63134683421851
O           -3.67255968948586        0.19560496099325        0.91052037101458
C           -4.58081754531113        0.98940068309705        1.75317115841424
C           -3.95388257601987        1.36324210002780        3.07245979484038
O           -2.34055957366697       -0.20957977961248       -1.16070588928700
C           -2.22105958550002       -1.65625116135203       -0.91271798599357
C           -1.63589355818848       -2.27787442535502       -2.15350094004258
H            3.46866171731801       -3.31262795861149        0.27479511515637
H            2.59951556468776       -4.49096479967655        1.27308615884452
H            2.12990213758552       -4.25882128131019       -0.42335944762551
H            1.85287741327985       -2.15206494188405        1.80533730995994
H            0.52561729595107       -3.14782897820991        1.16541109869970
H            4.88828138631764        0.00910116018420        1.45894530365403
H            5.02325945665879       -0.32009778535847       -0.28564158166867
H            3.80501106043765        2.22899220025558        0.94021098371098
H            5.44245374364554        2.09857509199007        0.26849339444247
H            4.03943509696709        1.92218456055833       -0.79936980565409
H            0.11210502243881        2.53638910853670        0.38219388200892
H            1.31756778647471        1.50976750718245        1.19562200421971
H           -4.89279413673268        1.86920775378405        1.18269332178674
H           -5.43987487982841        0.32955436452243        1.88894142422455
H           -3.59429332440794        0.47644042427835        3.60249804407465
H           -3.12456424410033        2.06394656499065        2.94257417660044
H           -4.71623302553542        1.84847621588931        3.69086497706609
H           -1.57645475577824       -1.81343241949245       -0.04193266490809
H           -3.22255410191950       -2.03811727297074       -0.69489990349625
H           -2.28496209038110       -2.11303527932734       -3.01821516360011
H           -0.64438402137680       -1.86833699564646       -2.36688033074121
H           -1.53795497320227       -3.35650887628312       -1.99535369224932
41
 energy: -2932.483782860455 gnorm: 0.000778664062 xtb: 6.7.1 (edcfbbe)
C            2.48622811596575       -3.74761520478867        0.47880913761909
C            1.49592428316210       -2.70371445481729        0.93219595794679
O            1.17554803895598       -1.73722152257916       -0.13064501111620
P            2.22764383588145       -0.69466582224171       -0.74231224026706
S            3.17436652761060       -1.20512714838313       -2.36694149450391
O            3.11369449562771       -0.35560730640443        0.55655232712180
C            4.46060875073567        0.22492403126559        0.47718663944263
C            4.42215721089624        1.70788423844410        0.20296479887190
S            1.01397016265104        0.97529412248970       -1.16516064777181
C            0.46295911261639        1.50740861561023        0.51030188480185
S           -0.84060691229846        0.52448933044500        1.35186198997875
P           -2.48252456700456        0.84402067234127        0.04199943177151
S           -2.69567261897610        2.65389207995698       -0.63398575610418
O           -3.67067959585562        0.19644786432239        0.91164418033715
C           -4.57957060733623        0.98957214343232        1.75418924607768
C           -3.95268480034330        1.36317784088102        3.07355008910384
O           -2.34155746428778       -0.20839799873006       -1.16091728573590
C           -2.22297084478737       -1.65554467516505       -0.91377793390661
C           -1.63649802066684       -2.27719995970255       -2.15396530333059
H            3.47002843345648       -3.31206289827993        0.28053812032608
H            2.59723738341610       -4.49012075190730        1.27596195036066
H            2.13321251145496       -4.25775493378762       -0.42199104764705
H            1.85061386110183       -2.14932056368538        1.80475873070436
H            0.52474620720140       -3.14663836803952        1.16418494638368
H            4.88832003280020        0.00806724253515        1.45817877171882
H            5.02372272643700       -0.31948528806735       -0.28673703907882
H            3.80414070507508        2.22833434766023        0.94058251902602
H            5.44252354206603        2.09897154889808        0.27114682153802
H            4.04114042391556        1.92338003186935       -0.79899358766621
H            0.10988692315421        2.53495365582806        0.38212907505927
H            1.31616056879614        1.50817100214720        1.19445994488089
H           -4.89165896000716        1.86941658503598        1.18384206504712
H           -5.43845035028119        0.32937670394224        1.88966874597331
H           -3.59275021026049        0.47621690262710        3.60312749095589
H           -3.12365852589965        2.06425506682255        2.94384453980017
H           -4.71527988053981        1.84776699254183        3.69214479005638
H           -1.57970800638637       -1.81371243629739       -0.04212950995591
H           -3.22492451829203       -2.03726405344611       -0.69758444971274
H           -2.28519541533668       -2.11361363283065       -3.01920367233102
H           -0.64536769603786       -1.86649989707844       -2.36684709919718
H           -1.53716529157969       -3.35568233752824       -1.99540498101649
41
 energy: -2932.483782860455 gnorm: 0.000778664062 xtb: 6.7.1 (edcfbbe)
C            2.48622811596575       -3.74761520478867        0.47880913761909
C            1.49592428316210       -2.70371445481729        0.93219595794679
O            1.17554803895598       -1.73722152257916       -0.13064501111620
P            2.22764383588145       -0.69466582224171       -0.74231224026706
S            3.17436652761060       -1.20512714838313       -2.36694149450391
O            3.11369449562771       -0.35560730640443        0.55655232712180
C            4.46060875073567        0.22492403126559        0.47718663944263
C            4.42215721089624        1.70788423844410        0.20296479887190
S            1.01397016265104        0.97529412248970       -1.16516064777181
C            0.46295911261639        1.50740861561023        0.51030188480185
S           -0.84060691229846        0.52448933044500        1.35186198997875
P           -2.48252456700456        0.84402067234127        0.04199943177151
S           -2.69567261897610        2.65389207995698       -0.63398575610418
O           -3.67067959585562        0.19644786432239        0.91164418033715
C           -4.57957060733623        0.98957214343232        1.75418924607768
C           -3.95268480034330        1.36317784088102        3.07355008910384
O           -2.34155746428778       -0.20839799873006       -1.16091728573590
C           -2.22297084478737       -1.65554467516505       -0.91377793390661
C           -1.63649802066684       -2.27719995970255       -2.15396530333059
H            3.47002843345648       -3.31206289827993        0.28053812032608
H            2.59723738341610       -4.49012075190730        1.27596195036066
H            2.13321251145496       -4.25775493378762       -0.42199104764705
H            1.85061386110183       -2.14932056368538        1.80475873070436
H            0.52474620720140       -3.14663836803952        1.16418494638368
H            4.88832003280020        0.00806724253515        1.45817877171882
H            5.02372272643700       -0.31948528806735       -0.28673703907882
H            3.80414070507508        2.22833434766023        0.94058251902602
H            5.44252354206603        2.09897154889808        0.27114682153802
H            4.04114042391556        1.92338003186935       -0.79899358766621
H            0.10988692315421        2.53495365582806        0.38212907505927
H            1.31616056879614        1.50817100214720        1.19445994488089
H           -4.89165896000716        1.86941658503598        1.18384206504712
H           -5.43845035028119        0.32937670394224        1.88966874597331
H           -3.59275021026049        0.47621690262710        3.60312749095589
H           -3.12365852589965        2.06425506682255        2.94384453980017
H           -4.71527988053981        1.84776699254183        3.69214479005638
H           -1.57970800638637       -1.81371243629739       -0.04212950995591
H           -3.22492451829203       -2.03726405344611       -0.69758444971274
H           -2.28519541533668       -2.11361363283065       -3.01920367233102
H           -0.64536769603786       -1.86649989707844       -2.36684709919718
H           -1.53716529157969       -3.35568233752824       -1.99540498101649
