      -----------------------------------------------------------      
     |                   =====================                   |     
     |                           x T B                           |     
     |                   =====================                   |     
     |                         S. Grimme                         |     
     |          Mulliken Center for Theoretical Chemistry        |     
     |                    University of Bonn                     |     
      -----------------------------------------------------------      

   * xtb version 6.7.1 (edcfbbe) compiled by 'albert@albert-system' on 2024-07-22

   xtb is free software: you can redistribute it and/or modify it under
   the terms of the GNU Lesser General Public License as published by
   the Free Software Foundation, either version 3 of the License, or
   (at your option) any later version.
   
   xtb is distributed in the hope that it will be useful,
   but WITHOUT ANY WARRANTY; without even the implied warranty of
   MERCHANTABILITY or FITNESS FOR A PARTICULAR PURPOSE.  See the
   GNU Lesser General Public License for more details.
   
   Cite this work as:
   * C. Bannwarth, E. Caldeweyher, S. Ehlert, A. Hansen, P. Pracht,
     J. Seibert, S. Spicher, S. Grimme, WIREs Comput. Mol. Sci., 2020, 11,
     e01493. DOI: 10.1002/wcms.1493
   
   for GFN2-xTB:
   * C. Bannwarth, S. Ehlert and S. Grimme., J. Chem. Theory Comput., 2019,
     15, 1652-1671. DOI: 10.1021/acs.jctc.8b01176
   for GFN1-xTB:
   * S. Grimme, C. Bannwarth, P. Shushkov, J. Chem. Theory Comput., 2017,
     13, 1989-2009. DOI: 10.1021/acs.jctc.7b00118
   for GFN0-xTB:
   * P. Pracht, E. Caldeweyher, S. Ehlert, S. Grimme, ChemRxiv, 2019, preprint.
     DOI: 10.26434/chemrxiv.8326202.v1
   for GFN-FF:
   * S. Spicher and S. Grimme, Angew. Chem. Int. Ed., 2020, 59, 15665-15673.
     DOI: 10.1002/anie.202004239
   
   for ALPB and GBSA implicit solvation:
   * S. Ehlert, M. Stahn, S. Spicher, S. Grimme, J. Chem. Theory Comput.,
     2021, 17, 4250-4261. DOI: 10.1021/acs.jctc.1c00471
   
   for ddCOSMO and CPCM-X implicit solvation:
   * M. Stahn, S. Ehlert, S. Grimme, J. Phys. Chem. A,
     2023, XX, XXXX-XXXX. DOI: 10.1021/acs.jpca.3c04382
   
   for DFT-D4:
   * E. Caldeweyher, C. Bannwarth and S. Grimme, J. Chem. Phys., 2017,
     147, 034112. DOI: 10.1063/1.4993215
   * E. Caldeweyher, S. Ehlert, A. Hansen, H. Neugebauer, S. Spicher,
     C. Bannwarth and S. Grimme, J. Chem. Phys., 2019, 150, 154122.
     DOI: 10.1063/1.5090222
   * E. Caldeweyher, J.-M. Mewes, S. Ehlert and S. Grimme, Phys. Chem. Chem. Phys.
     2020, 22, 8499-8512. DOI: 10.1039/D0CP00502A
   
   for sTDA-xTB:
   * S. Grimme and C. Bannwarth, J. Chem. Phys., 2016, 145, 054103.
     DOI: 10.1063/1.4959605
   
   in the mass-spec context:
   * V. Asgeirsson, C. Bauer and S. Grimme, Chem. Sci., 2017, 8, 4879.
     DOI: 10.1039/c7sc00601b
   * J. Koopman and S. Grimme, ACS Omega 2019, 4, 12, 15120-15133.
     DOI: 10.1021/acsomega.9b02011
   
   for metadynamics refer to:
   * S. Grimme, J. Chem. Theory Comput., 2019, 155, 2847-2862
     DOI: 10.1021/acs.jctc.9b00143
   
   for SPH calculations refer to:
   * S. Spicher and S. Grimme, J. Chem. Theory Comput., 2021, 17, 1701-1714
     DOI: 10.1021/acs.jctc.0c01306
   
   for ONIOM refer to:
   * C. Plett, A. Katbashev, S. Ehlert, S. Grimme, M. Bursch,
     Phys. Chem. Chem. Phys., 2023, 25, 17860-17868. DOI: 10.1039/D3CP02178E
   
   for DIPRO refer to:
   * J. Kohn, N. Gildemeister, S. Grimme, D. Fazzi, A. Hansen,
     J. Chem. Phys., 2023, just accepted.
   
   for PTB refer to:
   * S. Grimme, M. Mueller, A. Hansen, J. Chem. Phys., 2023, 158, 124111.
     DOI: 10.1063/5.0137838
   
   with help from (in alphabetical order)
   P. Atkinson, C. Bannwarth, F. Bohle, G. Brandenburg, E. Caldeweyher
   M. Checinski, S. Dohm, S. Ehlert, S. Ehrlich, I. Gerasimov, C. Hölzer
   A. Katbashev, J. Kohn, J. Koopman, C. Lavigne, S. Lehtola, F. März, M. Müller,
   F. Musil, H. Neugebauer, J. Pisarek, C. Plett, P. Pracht, F. Pultar,
   J. Seibert, P. Shushkov, S. Spicher, M. Stahn, M. Steiner, T. Strunk,
   J. Stückrath, T. Rose, and J. Unsleber
   
 * started run on 2025/04/09 at 05:21:22.536     
   ID    Z sym.   atoms
    1    6 C      1, 2, 7, 8, 10, 15, 16, 18, 19
    2    8 O      3, 6, 14, 17
    3   15 P      4, 12
    4   16 S      5, 9, 11, 13
    5    1 H      20-41

           -------------------------------------------------
          |                Calculation Setup                |
           -------------------------------------------------

          program call               : /srv/scratch/z5358697/.xtb/bin/xtb solv.coord --gfn2 --sp --chrg 0 --norestart --parallel 1 --alpb water reference -I xtb_sp-xcontrol-inp
          hostname                   : k163
          coordinate file            : solv.coord
          omp threads                :                     1


           -------------------------------------------------
          |                 G F N 2 - x T B                 |
           -------------------------------------------------

        Reference                      10.1021/acs.jctc.8b01176
      * Hamiltonian:
        H0-scaling (s, p, d)           1.850000    2.230000    2.230000
        zeta-weighting                 0.500000
      * Dispersion:
        s8                             2.700000
        a1                             0.520000
        a2                             5.000000
        s9                             5.000000
      * Repulsion:
        kExp                           1.500000    1.000000
        rExp                           1.000000
      * Coulomb:
        alpha                          2.000000
        third order                    shell-resolved
        anisotropic                    true
        a3                             3.000000
        a5                             4.000000
        cn-shift                       1.200000
        cn-exp                         4.000000
        max-rad                        5.000000

      * Solvation model:               ALPB
        Solvent                        water
        Parameter file                 internal GFN2-xTB/ALPB
        Dielectric constant                8.0200E+01
        Reference state                gsolv=reference [X=1]
        Free energy shift                  2.8945E-03 Eh       1.8164E+00 kcal/mol
        Temperature                        2.9815E+02 K
        Density                            1.0000E+00 kg/L
        Solvent mass                       1.8000E+01 g/mol
        Interaction kernel             P16
        Born radius scaling (c1)           1.4744E+00
        Born radii integrator          GBOBC
        Born offset                        0.0000E+00 a0       0.0000E+00 AA
        H-bond correction              true
        Ion screening                  false
        Surface tension                    1.0000E-05 Eh       1.5569E+01 dyn/cm
        Grid points                               974 per atom

          ...................................................
          :                      SETUP                      :
          :.................................................:
          :  # basis functions                 134          :
          :  # atomic orbitals                 128          :
          :  # shells                           66          :
          :  # electrons                       116          :
          :  max. iterations                   250          :
          :  Hamiltonian                  GFN2-xTB          :
          :  restarted?                      false          :
          :  GBSA solvation                   true          :
          :  PC potential                    false          :
          :  electronic temp.          300.0000000     K    :
          :  accuracy                    1.0000000          :
          :  -> integral cutoff          0.2500000E+02      :
          :  -> integral neglect         0.1000000E-07      :
          :  -> SCF convergence          0.1000000E-05 Eh   :
          :  -> wf. convergence          0.1000000E-03 e    :
          :  Broyden damping             0.4000000          :
          :  net charge                          0          :
          :  unpaired electrons                  0          :
          ...................................................

 iter      E             dE          RMSdq      gap      omega  full diag
   1    -65.4393357 -0.654393E+02  0.641E+00    4.21       0.0  T
   2    -65.5594296 -0.120094E+00  0.362E+00    3.53       1.0  T
   3    -65.5781566 -0.187270E-01  0.109E+00    3.10       1.0  T
   4    -65.5812174 -0.306074E-02  0.487E-01    3.07       1.0  T
   5    -65.5819291 -0.711742E-03  0.267E-01    3.13       1.0  T
   6    -65.5821286 -0.199482E-03  0.110E-01    3.13       1.0  T
   7    -65.5821701 -0.414593E-04  0.416E-02    3.15       1.0  T
   8    -65.5821742 -0.415843E-05  0.169E-02    3.15       1.0  T
   9    -65.5821749 -0.715303E-06  0.493E-03    3.15       3.2  T
  10    -65.5821749  0.204469E-08  0.232E-03    3.15       6.7  T
  11    -65.5821750 -0.353519E-07  0.524E-04    3.15      29.8  T
  12    -65.5821750 -0.383139E-09  0.240E-04    3.15      65.0  T

   *** convergence criteria satisfied after 12 iterations ***

         #    Occupation            Energy/Eh            Energy/eV
      -------------------------------------------------------------
         1        2.0000           -0.7644099             -20.8007
       ...           ...                  ...                  ...
        52        2.0000           -0.4463284             -12.1452
        53        2.0000           -0.4200236             -11.4294
        54        2.0000           -0.4096445             -11.1470
        55        2.0000           -0.3982638             -10.8373
        56        2.0000           -0.3936591             -10.7120
        57        2.0000           -0.3905395             -10.6271
        58        2.0000           -0.3871088             -10.5338 (HOMO)
        59                         -0.2714411              -7.3863 (LUMO)
        60                         -0.2621282              -7.1329
        61                         -0.2197030              -5.9784
        62                         -0.1883979              -5.1266
        63                         -0.1810635              -4.9270
       ...                                ...                  ...
       128                          1.2485752              33.9755
      -------------------------------------------------------------
                  HL-Gap            0.1156677 Eh            3.1475 eV
             Fermi-level           -0.3292749 Eh           -8.9600 eV

 SCC (total)                   0 d,  0 h,  0 min,  0.062 sec
 SCC setup                      ...        0 min,  0.003 sec (  4.177%)
 Dispersion                     ...        0 min,  0.000 sec (  0.495%)
 classical contributions        ...        0 min,  0.000 sec (  0.098%)
 integral evaluation            ...        0 min,  0.012 sec ( 18.765%)
 iterations                     ...        0 min,  0.025 sec ( 40.370%)
 molecular gradient             ...        0 min,  0.022 sec ( 35.740%)
 printout                       ...        0 min,  0.000 sec (  0.332%)

         :::::::::::::::::::::::::::::::::::::::::::::::::::::
         ::                     SUMMARY                     ::
         :::::::::::::::::::::::::::::::::::::::::::::::::::::
         :: total energy             -65.023285209534 Eh    ::
         :: total w/o Gsasa/hb       -65.026120967209 Eh    ::
         :: gradient norm              0.000166650292 Eh/a0 ::
         :: HOMO-LUMO gap              3.147478211626 eV    ::
         ::.................................................::
         :: SCC energy               -65.581076493978 Eh    ::
         :: -> isotropic ES            0.126160817954 Eh    ::
         :: -> anisotropic ES         -0.015845260478 Eh    ::
         :: -> anisotropic XC          0.029963794750 Eh    ::
         :: -> dispersion             -0.054699422492 Eh    ::
         :: -> Gsolv                  -0.020462124272 Eh    ::
         ::    -> Gelec               -0.023297881948 Eh    ::
         ::    -> Gsasa                0.003975380974 Eh    ::
         ::    -> Ghb                 -0.004034172459 Eh    ::
         ::    -> Gshift               0.002894549160 Eh    ::
         :: repulsion energy           0.557791284444 Eh    ::
         :: add. restraining           0.000000000000 Eh    ::
         :: total charge              -0.000000000000 e     ::
         :::::::::::::::::::::::::::::::::::::::::::::::::::::

           -------------------------------------------------
          |                Property Printout                |
           -------------------------------------------------

    * Orbital Energies and Occupations

         #    Occupation            Energy/Eh            Energy/eV
      -------------------------------------------------------------
         1        2.0000           -0.7644099             -20.8007
       ...           ...                  ...                  ...
        46        2.0000           -0.4656153             -12.6700
        47        2.0000           -0.4586780             -12.4813
        48        2.0000           -0.4569805             -12.4351
        49        2.0000           -0.4556430             -12.3987
        50        2.0000           -0.4509218             -12.2702
        51        2.0000           -0.4495899             -12.2340
        52        2.0000           -0.4463284             -12.1452
        53        2.0000           -0.4200236             -11.4294
        54        2.0000           -0.4096445             -11.1470
        55        2.0000           -0.3982638             -10.8373
        56        2.0000           -0.3936591             -10.7120
        57        2.0000           -0.3905395             -10.6271
        58        2.0000           -0.3871088             -10.5338 (HOMO)
        59                         -0.2714411              -7.3863 (LUMO)
        60                         -0.2621282              -7.1329
        61                         -0.2197030              -5.9784
        62                         -0.1883979              -5.1266
        63                         -0.1810635              -4.9270
        64                         -0.1769915              -4.8162
        65                         -0.1707087              -4.6452
        66                         -0.1558644              -4.2413
        67                         -0.1319500              -3.5905
        68                         -0.1221059              -3.3227
        69                         -0.0469998              -1.2789
       ...                                ...                  ...
       128                          1.2485752              33.9755
      -------------------------------------------------------------
                  HL-Gap            0.1156677 Eh            3.1475 eV
             Fermi-level           -0.3292749 Eh           -8.9600 eV

     #   Z          covCN         q      C6AA      α(0)
     1   6 C        3.751    -0.128    23.024     6.843
     2   6 C        3.862     0.075    19.299     6.247
     3   8 O        1.655    -0.265    18.406     5.791
     4  15 P        3.830     0.369   144.878    21.622
     5  16 S        0.926    -0.468   159.855    21.385
     6   8 O        1.655    -0.260    18.321     5.778
     7   6 C        3.838     0.078    19.257     6.243
     8   6 C        3.751    -0.119    22.834     6.815
     9  16 S        2.005    -0.126   146.344    20.361
    10   6 C        3.801     0.034    20.006     6.368
    11  16 S        2.005    -0.119   146.050    20.340
    12  15 P        3.821     0.389   144.100    21.564
    13  16 S        0.930    -0.477   160.292    21.414
    14   8 O        1.655    -0.258    18.284     5.772
    15   6 C        3.821     0.075    19.316     6.255
    16   6 C        3.751    -0.123    22.914     6.827
    17   8 O        1.656    -0.266    18.431     5.795
    18   6 C        3.872     0.078    19.233     6.236
    19   6 C        3.751    -0.127    22.995     6.839
    20   1 H        0.925     0.073     2.054     2.241
    21   1 H        0.925     0.052     2.301     2.372
    22   1 H        0.925     0.085     1.928     2.171
    23   1 H        0.924     0.064     2.148     2.292
    24   1 H        0.924     0.091     1.872     2.140
    25   1 H        0.924     0.092     1.863     2.135
    26   1 H        0.924     0.067     2.116     2.275
    27   1 H        0.925     0.052     2.299     2.371
    28   1 H        0.925     0.059     2.210     2.325
    29   1 H        0.925     0.082     1.957     2.187
    30   1 H        0.925     0.122     1.594     1.974
    31   1 H        0.924     0.084     1.943     2.180
    32   1 H        0.924     0.095     1.828     2.114
    33   1 H        0.924     0.060     2.204     2.322
    34   1 H        0.925     0.068     2.111     2.272
    35   1 H        0.925     0.080     1.980     2.200
    36   1 H        0.925     0.049     2.332     2.388
    37   1 H        0.924     0.061     2.193     2.316
    38   1 H        0.924     0.091     1.872     2.140
    39   1 H        0.925     0.055     2.261     2.351
    40   1 H        0.925     0.084     1.939     2.178
    41   1 H        0.925     0.073     2.056     2.243

 Mol. C6AA /au·bohr⁶  :      26420.332701
 Mol. C8AA /au·bohr⁸  :     862674.030215
 Mol. α(0) /au        :        257.681526


Wiberg/Mayer (AO) data.
largest (>0.10) Wiberg bond orders for each atom

 ---------------------------------------------------------------------------
     #   Z sym  total        # sym  WBO       # sym  WBO       # sym  WBO
 ---------------------------------------------------------------------------
     1   6 C    3.987 --     2 C    1.022    20 H    0.982    22 H    0.977
                            21 H    0.975
     2   6 C    3.891 --     1 C    1.022    23 H    0.967    24 H    0.965
                             3 O    0.892
     3   8 O    2.401 --     4 P    1.313     2 C    0.892
     4  15 P    5.296 --     5 S    1.497     6 O    1.322     3 O    1.313
                             9 S    0.996
     5  16 S    1.851 --     4 P    1.497     9 S    0.141
     6   8 O    2.395 --     4 P    1.322     7 C    0.875
     7   6 C    3.890 --     8 C    1.022    26 H    0.970    25 H    0.965
                             6 O    0.875
     8   6 C    3.989 --     7 C    1.022    28 H    0.983    27 H    0.979
                            29 H    0.976
     9  16 S    2.288 --     4 P    0.996    10 C    0.977     5 S    0.141
    10   6 C    3.946 --    11 S    0.993     9 S    0.977    30 H    0.958
                            31 H    0.944
    11  16 S    2.287 --    10 C    0.993    12 P    0.983    13 S    0.134
    12  15 P    5.254 --    13 S    1.493    17 O    1.321    14 O    1.311
                            11 S    0.983
    13  16 S    1.833 --    12 P    1.493    11 S    0.134
    14   8 O    2.410 --    12 P    1.311    15 C    0.888
    15   6 C    3.890 --    16 C    1.021    33 H    0.966    32 H    0.963
                            14 O    0.888
    16   6 C    3.987 --    15 C    1.021    34 H    0.983    36 H    0.977
                            35 H    0.977
    17   8 O    2.388 --    12 P    1.321    18 C    0.880
    18   6 C    3.887 --    19 C    1.023    37 H    0.967    38 H    0.965
                            17 O    0.880
    19   6 C    3.987 --    18 C    1.023    41 H    0.982    40 H    0.976
                            39 H    0.976
    20   1 H    0.995 --     1 C    0.982
    21   1 H    0.997 --     1 C    0.975
    22   1 H    0.992 --     1 C    0.977
    23   1 H    0.996 --     2 C    0.967
    24   1 H    0.992 --     2 C    0.965
    25   1 H    0.992 --     7 C    0.965
    26   1 H    0.995 --     7 C    0.970
    27   1 H    0.997 --     8 C    0.979
    28   1 H    0.996 --     8 C    0.983
    29   1 H    0.992 --     8 C    0.976
    30   1 H    0.984 --    10 C    0.958
    31   1 H    0.993 --    10 C    0.944
    32   1 H    0.991 --    15 C    0.963
    33   1 H    0.996 --    15 C    0.966
    34   1 H    0.995 --    16 C    0.983
    35   1 H    0.993 --    16 C    0.977
    36   1 H    0.998 --    16 C    0.977
    37   1 H    0.996 --    18 C    0.967
    38   1 H    0.991 --    18 C    0.965
    39   1 H    0.997 --    19 C    0.976
    40   1 H    0.992 --    19 C    0.976
    41   1 H    0.995 --    19 C    0.982
 ---------------------------------------------------------------------------

Topologies differ in total number of bonds
Writing topology from bond orders to xtbtopo.mol

molecular dipole:
                 x           y           z       tot (Debye)
 q only:        0.385      -1.193       1.788
   full:        0.297      -0.791       1.911       5.311
molecular quadrupole (traceless):
                xx          xy          yy          xz          yz          zz
 q only:       23.480      -7.842     -14.232      -0.866      10.301      -9.248
  q+dip:       26.448      -5.811     -18.367       0.613       8.580      -8.081
   full:       26.819      -6.087     -17.875       1.148       9.519      -8.943


           -------------------------------------------------
          | TOTAL ENERGY              -65.023285209534 Eh   |
          | GRADIENT NORM               0.000166650292 Eh/α |
          | HOMO-LUMO GAP               3.147478211626 eV   |
           -------------------------------------------------

------------------------------------------------------------------------
 * finished run on 2025/04/09 at 05:21:22.649     
------------------------------------------------------------------------
 total:
 * wall-time:     0 d,  0 h,  0 min,  0.112 sec
 *  cpu-time:     0 d,  0 h,  0 min,  0.072 sec
 * ratio c/w:     0.640 speedup
 SCF:
 * wall-time:     0 d,  0 h,  0 min,  0.062 sec
 *  cpu-time:     0 d,  0 h,  0 min,  0.058 sec
 * ratio c/w:     0.939 speedup

