
                                 *****************
                                 * O   R   C   A *
                                 *****************

                                            #,                                       
                                            ###                                      
                                            ####                                     
                                            #####                                    
                                            ######                                   
                                           ########,                                 
                                     ,,################,,,,,                         
                               ,,#################################,,                 
                          ,,##########################################,,             
                       ,#########################################, ''#####,          
                    ,#############################################,,   '####,        
                  ,##################################################,,,,####,       
                ,###########''''           ''''###############################       
              ,#####''   ,,,,##########,,,,          '''####'''          '####       
            ,##' ,,,,###########################,,,                        '##       
           ' ,,###''''                  '''############,,,                           
         ,,##''                                '''############,,,,        ,,,,,,###''
      ,#''                                            '''#######################'''  
     '                                                          ''''####''''         
             ,#######,   #######,   ,#######,      ##                                
            ,#'     '#,  ##    ##  ,#'     '#,    #''#        ,####,   ,####,        
            ##       ##  ##   ,#'  ##            #'  '#       #'       #'  '#        
            ##       ##  #######   ##           ,######,      #####,   #    #        
            '#,     ,#'  ##    ##  '#,     ,#' ,#      #,     #,   #   #,  ,#        
             '#######'   ##     ##  '#######'  #'      '#     '####' # '####'        



                #########################################################
                #                        -***-                          #
                #          Department of theory and spectroscopy        #
                #                                                       #
                #                      Frank Neese                      #
                #                                                       #
                #     Directorship, Architecture, Infrastructure        #
                #                    SHARK, DRIVERS                     #
                #        Core code/Algorithms in most modules           #
                #                                                       #
                #        Max Planck Institute fuer Kohlenforschung      #
                #                Kaiser Wilhelm Platz 1                 #
                #                 D-45470 Muelheim/Ruhr                 #
                #                      Germany                          #
                #                                                       #
                #                  All rights reserved                  #
                #                        -***-                          #
                #########################################################


                         Program Version 6.0.1  -  RELEASE   -


 With contributions from (in alphabetic order):
[Max-Planck-Institut fuer Kohlenforschung]                               
  Daniel Aravena         : Magnetic Suceptibility                        
  Michael Atanasov       : Ab Initio Ligand Field Theory (pilot matlab implementation)
  Alexander A. Auer      : GIAO ZORA, VPT2 properties, NMR spectrum      
  Ute Becker             : All parallelization in ORCA, NUMFREQ, NUMCALC 
  Giovanni Bistoni       : ED, misc. LED, open-shell LED, HFLD           
  Martin Brehm           : Molecular dynamics                            
  Dmytro Bykov           : pre 5.0 version of the SCF Hessian            
  Marcos Casanova-Páez   : Triplet and SCS-CIS(D). UHF-(DLPNO)-IP/EA/STEOM-CCSD. UHF-CVS-IP/STEOM-CCSD   
  Vijay G. Chilkuri      : MRCI spin determinant printing, contributions to CSF-ICE 
  Pauline Colinet        : FMM embedding                                 
  Dipayan Datta          : RHF DLPNO-CCSD density                        
  Achintya Kumar Dutta   : EOM-CC, STEOM-CC                              
  Nicolas Foglia         : Exact transition moments, OPA infrastructure, MCD improvements    
  Dmitry Ganyushin       : Spin-Orbit,Spin-Spin,Magnetic field MRCI      
  Miquel Garcia-Rates    : C-PCM and meta-GGA Hessian, CCSD/C-PCM, Gaussian charge scheme 
  Tiago L. C. Gouveia    : GS-ROHF, GS-ROCIS                             
  Yang Guo               : DLPNO-NEVPT2, F12-NEVPT2, CIM, IAO-localization        
  Andreas Hansen         : Spin unrestricted coupled pair/coupled cluster methods 
  Ingolf Harden          : AUTO-CI MPn and infrastructure                
  Benjamin Helmich-Paris : MC-RPA, TRAH-(SCF,CASSCF), AVAS, COSX integrals, SCF dyn. polar. 
  Lee Huntington         : MR-EOM, pCC                                   
  Robert Izsak           : Overlap fitted RIJCOSX, COSX-SCS-MP3, EOM     
  Riya Kayal             : Wick's Theorem for AUTO-CI, AUTO-CI UHF-CCSDT 
  Emily Kempfer          : AUTO-CI, RHF CISDT and CCSDT                  
  Christian Kollmar      : KDIIS, OOCD, Brueckner-CCSD(T), CCSD density, CASPT2, CASPT2-K, improved NEVPT2 
  Axel Koslowski         : Symmetry handling                             
  Simone Kossmann        : meta-GGA functionals, TD-DFT gradient, OOMP2, (MP2 Hessian; deprecated post 5.0) 
  Lucas Lang             : DCDCAS                                        
  Marvin Lechner         : AUTO-CI (C++ implementation), FIC-MRCC        
  Spencer Leger          : CASSCF response                               
  Dagmar Lenk            : GEPOL surface, SMD, ORCA-2-JSON               
  Dimitrios Liakos       : Extrapolation schemes; Compound Job, initial MDCI parallelization 
  Dimitrios Manganas     : Further ROCIS development; embedding schemes. LFT, Crystal Embedding 
  Dimitrios Pantazis     : SARC Basis sets                               
  Anastasios Papadopoulos: AUTO-CI, single reference methods and gradients 
  Taras Petrenko         : pre 6.0 DFT Hessian and TD-DFT gradient, (ASA, deprecated), ECA, 1-Electron XAS/XES, NRVS 
  Peter Pinski           : DLPNO-MP2, DLPNO-MP2 Gradient                 
  Christoph Reimann      : Effective Core Potentials                     
  Marius Retegan         : Local ZFS, SOC                                
  Christoph Riplinger    : Optimizer, TS searches, QM/MM, DLPNO-CCSD(T), (RO)-DLPNO pert. Triples 
  Michael Roemelt        : Original ROCIS implementation                 
  Masaaki Saitow         : Open-shell DLPNO-CCSD energy and density      
  Barbara Sandhoefer     : DKH picture change effects                    
  Kantharuban Sivalingam : CASSCF convergence/infrastructure, NEVPT2 and variants, FIC-MRCI 
  Bernardo de Souza      : ESD, SOC TD-DFT                               
  Georgi L. Stoychev     : AutoAux, RI-MP2 NMR, DLPNO-MP2 response, X2C  
  Van Anh Tran           : RI-MP2 g-tensors                              
  Willem Van den Heuvel  : Paramagnetic NMR                              
  Zikuan Wang            : NOTCH, Electric field optimization            
  Frank Wennmohs         : Technical directorship and infrastructure     
  Hang Xu                : AUTO-CI-Response properties                   
                                                                         
[FACCTs GmbH]                                                            
  Markus Bursch, Miquel Garcia-Rates, Christoph Riplinger, Bernardo de Souza, Georgi L. Stoychev 
                                                                 
  APM, Basis sets (HGBS, AHGBS, def-TZVP (Ac-Lr), def2-XVPD (La-Lu)), CI-OPT, improved COSX, DLPNO-Multilevel,           
  DOCKER, DRACO, updates on ESD, GOAT, IRC, LR-CPCM, MBIS, meta-GGA TD-DFT gradient, ML-optimized integration grids, 
  MM, NACMEs, nearIR, NEB, NEB-TS, NL-DFT gradient (VV10), 2- and 3-layer-ONIOM, interface openCOSMO-RS, QMMM,   
  Crystal-QMMM, SF, symmetry and pop. for TD-DFT, r2SCAN hybrids, SOLVATOR                                   
                                                                         
[Other institutions]                                                     
  V. Asgeirsson          : NEB                                           
  Christoph Bannwarth    : sTDA-DFT, sTD-DFT, PBEh-3c, B97-3c, D3        
  Sebastian Ehlert       : rSCAN, r2SCAN, r2SCAN-3c, D4, dhf basis sets  
  Marvin Friede          : D4 for Fr, Ra, Ac-Lr                          
  Lars Goerigk           : TD-DFT with DH, B97 family of functionals     
  Stefan Grimme          : VdW corrections, initial TS optimization, DFT functionals, gCP, sTDA/sTD-DF 
  Waldemar Hujo          : DFT-NL                                        
  H. Jonsson             : NEB                                           
  Holger Kruse           : gCP                                           
  Marcel Mueller         : wB97X-3c, vDZP basis set                      
  Hagen Neugebauer       : wr2SCAN                                       
  Tobias Risthaus        : range-separated hybrid DFT                    
  Lukas Wittmann         : regularized MP2, r2SCAN double-hybrids, wr2SCAN        
                                                                         
We gratefully acknowledge several colleagues who have allowed us to      
interface, adapt or use parts of their codes:                            
  Ed Valeev, F. Pavosevic, A. Kumar             : LibInt (2-el integral package), F12 methods 
  Garnet Chan, S. Sharma, J. Yang, R. Olivares  : DMRG                   
  Ulf Ekstrom                                   : XCFun DFT Library      
  Mihaly Kallay                                 : mrcc  (arbitrary order and MRCC methods)
  Frank Weinhold                                : gennbo (NPA and NBO analysis)           
  Simon Mueller                                 : openCOSMO-RS                            
  Christopher J. Cramer and Donald G. Truhlar   : smd solvation model                     
  S Lehtola, MJT Oliveira, MAL Marques          : LibXC Library                           
  Liviu Ungur et al                             : ANISO software                          


 Your calculation uses the libint2 library for the computation of 2-el integrals
 For citations please refer to: http://libint.valeyev.net

 Your ORCA version has been built with support for libXC version: 6.2.2
 For citations please refer to: https://libxc.gitlab.io

 This ORCA versions uses:
   CBLAS   interface :  Fast vector & matrix operations
   LAPACKE interface :  Fast linear algebra routines
   SCALAPACK package :  Parallel linear algebra routines
   Shared memory     :  Shared parallel matrices
   BLAS/LAPACK       :  OpenBLAS 0.3.27  USE64BITINT DYNAMIC_ARCH NO_AFFINITY Zen SINGLE_THREADED
        Core in use  :  Zen
   Copyright (c) 2011-2014, The OpenBLAS Project


Your calculation utilizes the geometrical counterpoise correction gCP
Please cite in your paper:
H.Kruse, S. Grimme J.Chem.Phys., 136, (2012), 154101 
   

Your calculation utilizes the atom-pairwise dispersion correction
based on EEQ partial charges (D4)


Your calculation utilizes the SMD solvation module
Please cite in your paper:
A.V. Marenich, C.J. Cramer, D.G. Truhlar J. Phys. Chem. B, 113, (2009), 6378 

================================================================================

----- Orbital basis set information -----
Your calculation utilizes the basis: def2-mTZVPP
   Stefan Grimme, Andreas Hansen, Sebastian Ehlert, and Jan-Michael Mewes 
   J. Chem. Phys. 154, 064103 (2021). DOI: 10.1063/5.0040021

----- AuxJ basis set information -----
Your calculation utilizes the auxiliary basis: def2/J
   F. Weigend, Phys. Chem. Chem. Phys. 8, 1057 (2006).

================================================================================
                                        WARNINGS
                       Please study these warnings very carefully!
================================================================================

WARNING: Old DensityContainer found on disk!
         Will remove this file - 
         If you want to keep old densities, please start your calculation with a different basename. 



WARNING: SCAN, rSCAN, or r2SCAN functional requested.
  ===> : libXC variant has now been activated.



================================================================================
                                       INPUT FILE
================================================================================
NAME = sp_solv.inp
|  1> ! r2scan-3c def2/J RI DEFGRID2 scfconv6 printgap
|  2> %output
|  3>     printlevel normal
|  4> end
|  5> %cpcm
|  6>     smd true
|  7>     smdsolvent "water"
|  8> end
|  9> * xyz 0 1
| 10> C 5.4145862162 -1.2915432653 -0.4264129338
| 11> C 4.7236456363 -1.8535659038 -1.6583299061
| 12> O 3.3644071303 -2.2098965266 -1.3414274188
| 13> C 2.4038615223 -1.351222723 -1.6116594143
| 14> O 2.5538101541 -0.2986444877 -2.1941325955
| 15> C 1.0538220923 -1.87269365 -1.1490726356
| 16> C 0.2766423519 -0.719668344 -0.5319296555
| 17> H 0.1565806116 0.0882407911 -1.26895111
| 18> C 1.0329149375 -0.1119913697 0.6339269416
| 19> O 2.2313185148 -0.2076583387 0.7641454462
| 20> O 0.2302796989 0.5329645777 1.454553452
| 21> C 0.8111227359 1.2704836182 2.5497446578
| 22> C 1.2075487717 2.6674176887 2.1047896826
| 23> S -1.3909784522 -1.2389916671 -0.0220290696
| 24> P -2.2703541012 0.6922862783 0.1918975152
| 25> S -1.4384583872 2.1591352549 -0.8027516159
| 26> O -3.7883073877 0.39674639 -0.2284926294
| 27> C -4.1418304138 0.1091850311 -1.5850200117
| 28> O -2.468493373 0.9967011742 1.7280028371
| 29> C -3.1622641558 0.0835362939 2.6020134659
| 30> H 6.4303221419 -1.0052542059 -0.677869529
| 31> H 4.8722786609 -0.418875895 -0.0685195833
| 32> H 5.4319175923 -2.0356587121 0.36440843
| 33> H 5.1898299673 -2.7818632259 -1.9904680379
| 34> H 4.7109106008 -1.1198410407 -2.4692845058
| 35> H 1.2089667025 -2.677418203 -0.4317451105
| 36> H 0.5117954475 -2.2571624767 -2.0140939448
| 37> H 0.0236466075 1.3022694681 3.3024709817
| 38> H 1.6777141343 0.7121634357 2.9142388023
| 39> H 1.5703203504 3.2290272034 2.9589006868
| 40> H 1.9919093388 2.6150691294 1.3523659424
| 41> H 0.3491867845 3.1786380336 1.67451165
| 42> H -3.8001063241 -0.8904305329 -1.8529615541
| 43> H -3.6974795734 0.8476116633 -2.2544246732
| 44> H -5.2265665562 0.167030957 -1.6239990501
| 45> H -4.2050098361 0.0027556051 2.3021859818
| 46> H -3.0794566905 0.5200213185 3.5939229515
| 47> H -2.687283577 -0.8969689946 2.5685104805
| 48> *
| 49> 
| 50>                          ****END OF INPUT****
================================================================================

                       ****************************
                       * Single Point Calculation *
                       ****************************

---------------------------------
CARTESIAN COORDINATES (ANGSTROEM)
---------------------------------
  C      5.414586   -1.291543   -0.426413
  C      4.723646   -1.853566   -1.658330
  O      3.364407   -2.209897   -1.341427
  C      2.403862   -1.351223   -1.611659
  O      2.553810   -0.298644   -2.194133
  C      1.053822   -1.872694   -1.149073
  C      0.276642   -0.719668   -0.531930
  H      0.156581    0.088241   -1.268951
  C      1.032915   -0.111991    0.633927
  O      2.231319   -0.207658    0.764145
  O      0.230280    0.532965    1.454553
  C      0.811123    1.270484    2.549745
  C      1.207549    2.667418    2.104790
  S     -1.390978   -1.238992   -0.022029
  P     -2.270354    0.692286    0.191898
  S     -1.438458    2.159135   -0.802752
  O     -3.788307    0.396746   -0.228493
  C     -4.141830    0.109185   -1.585020
  O     -2.468493    0.996701    1.728003
  C     -3.162264    0.083536    2.602013
  H      6.430322   -1.005254   -0.677870
  H      4.872279   -0.418876   -0.068520
  H      5.431918   -2.035659    0.364408
  H      5.189830   -2.781863   -1.990468
  H      4.710911   -1.119841   -2.469285
  H      1.208967   -2.677418   -0.431745
  H      0.511795   -2.257162   -2.014094
  H      0.023647    1.302269    3.302471
  H      1.677714    0.712163    2.914239
  H      1.570320    3.229027    2.958901
  H      1.991909    2.615069    1.352366
  H      0.349187    3.178638    1.674512
  H     -3.800106   -0.890431   -1.852962
  H     -3.697480    0.847612   -2.254425
  H     -5.226567    0.167031   -1.623999
  H     -4.205010    0.002756    2.302186
  H     -3.079457    0.520021    3.593923
  H     -2.687284   -0.896969    2.568510

----------------------------
CARTESIAN COORDINATES (A.U.)
----------------------------
  NO LB      ZA    FRAG     MASS         X           Y           Z
   0 C     6.0000    0    12.011   10.232085   -2.440663   -0.805804
   1 C     6.0000    0    12.011    8.926397   -3.502732   -3.133789
   2 O     8.0000    0    15.999    6.357808   -4.176099   -2.534930
   3 C     6.0000    0    12.011    4.542640   -2.553441   -3.045595
   4 O     8.0000    0    15.999    4.826002   -0.564356   -4.146310
   5 C     6.0000    0    12.011    1.991435   -3.538878   -2.171433
   6 C     6.0000    0    12.011    0.522778   -1.359976   -1.005201
   7 H     1.0000    0     1.008    0.295894    0.166751   -2.397970
   8 C     6.0000    0    12.011    1.951926   -0.211633    1.197948
   9 O     8.0000    0    15.999    4.216581   -0.392417    1.444026
  10 O     8.0000    0    15.999    0.435166    1.007157    2.748708
  11 C     6.0000    0    12.011    1.532800    2.400866    4.818319
  12 C     6.0000    0    12.011    2.281936    5.040689    3.977476
  13 S    16.0000    0    32.060   -2.628568   -2.341355   -0.041629
  14 P    15.0000    0    30.974   -4.290347    1.308231    0.362634
  15 S    16.0000    0    32.060   -2.718292    4.080174   -1.516981
  16 O     8.0000    0    15.999   -7.158863    0.749742   -0.431788
  17 C     6.0000    0    12.011   -7.826925    0.206330   -2.995254
  18 O     8.0000    0    15.999   -4.664776    1.883492    3.265452
  19 C     6.0000    0    12.011   -5.975813    0.157861    4.917093
  20 H     1.0000    0     1.008   12.151548   -1.899655   -1.280988
  21 H     1.0000    0     1.008    9.207272   -0.791561   -0.129483
  22 H     1.0000    0     1.008   10.264837   -3.846837    0.688632
  23 H     1.0000    0     1.008    9.807357   -5.256960   -3.761439
  24 H     1.0000    0     1.008    8.902331   -2.116193   -4.666271
  25 H     1.0000    0     1.008    2.284616   -5.059587   -0.815880
  26 H     1.0000    0     1.008    0.967153   -4.265419   -3.806086
  27 H     1.0000    0     1.008    0.044686    2.460933    6.240766
  28 H     1.0000    0     1.008    3.170420    1.345794    5.507113
  29 H     1.0000    0     1.008    2.967475    6.101977    5.591512
  30 H     1.0000    0     1.008    3.764163    4.941764    2.555601
  31 H     1.0000    0     1.008    0.659867    6.006755    3.164368
  32 H     1.0000    0     1.008   -7.181160   -1.682670   -3.501590
  33 H     1.0000    0     1.008   -6.987224    1.601754   -4.260245
  34 H     1.0000    0     1.008   -9.876779    0.315643   -3.068913
  35 H     1.0000    0     1.008   -7.946317    0.005207    4.350501
  36 H     1.0000    0     1.008   -5.819330    0.982698    6.791530
  37 H     1.0000    0     1.008   -5.078230   -1.695026    4.853781

--------------------------------
INTERNAL COORDINATES (ANGSTROEM)
--------------------------------
 C      0   0   0     0.000000000000     0.00000000     0.00000000
 C      1   0   0     1.520160438171     0.00000000     0.00000000
 O      2   1   0     1.440461042651   110.00247685     0.00000000
 C      3   2   1     1.316432260858   118.81609890    96.41360652
 O      4   3   2     1.212303815231   125.07945517     5.07472903
 C      4   3   2     1.519383071542   111.22109423   182.69360585
 C      6   4   3     1.521295882809   108.50021997   139.18067152
 H      7   6   4     1.100151178909   109.91177915    58.40735518
 C      7   6   4     1.516720519353   111.14679123   301.41440277
 O      9   7   6     1.209247766995   123.04037789    23.07955097
 O      9   7   6     1.316669802912   111.80054532   202.23899433
 C     11   9   7     1.442482840797   118.56696260   185.53540733
 C     12  11   9     1.518737412833   110.66757314    85.81703420
 S      7   6   4     1.819520394962   111.44314197   177.22407287
 P     14   7   6     2.132815186116    98.48484286   196.27834332
 S     15  14   7     1.957810842018   116.89006014    22.93394143
 O     15  14   7     1.602577261554   101.37530564   147.54036591
 C     17  15  14     1.431026416264   121.31342358   289.36277055
 O     15  14   7     1.578463544034   108.90488223   252.27223690
 C     19  15  14     1.441902415885   121.88025510   307.17284788
 H      1   2   3     1.084855435327   109.59000788   181.23878386
 H      1   2   3     1.087995162698   109.66763744   301.27877078
 H      1   2   3     1.086004882220   110.12376953    60.65992425
 H      2   1   3     1.090586762841   111.54364416   243.83525048
 H      2   1   3     1.093691784112   110.98671231   120.14582566
 H      6   4   3     1.089132790132   109.11949118    17.57860761
 H      6   4   3     1.090812095527   108.72655858   258.28586754
 H     12  11   9     1.089828386374   104.37993669   205.71663477
 H     12  11   9     1.093415776063   108.12917515   323.88703234
 H     13  12  11     1.084672334306   109.44140846   175.67173232
 H     13  12  11     1.088165132551   110.27225719   295.77288093
 H     13  12  11     1.087782481679   110.01040876    55.45317074
 H     18  17  15     1.089862055224   109.87071149    72.61971790
 H     18  17  15     1.091248899814   110.17712309   311.25918809
 H     18  17  15     1.086976547680   105.65425194   192.02408063
 H     20  19  15     1.087998434599   109.94494457   295.39755251
 H     20  19  15     1.086858169511   105.20072710   176.10857447
 H     20  19  15     1.090009000442   109.96140030    56.68306063

---------------------------
INTERNAL COORDINATES (A.U.)
---------------------------
 C      0   0   0     0.000000000000     0.00000000     0.00000000
 C      1   0   0     2.872686907765     0.00000000     0.00000000
 O      2   1   0     2.722076877193   110.00247685     0.00000000
 C      3   2   1     2.487696446881   118.81609890    96.41360652
 O      4   3   2     2.290922201894   125.07945517     5.07472903
 C      4   3   2     2.871217897731   111.22109423   182.69360585
 C      6   4   3     2.874832587171   108.50021997   139.18067152
 H      7   6   4     2.078984434049   109.91177915    58.40735518
 C      7   6   4     2.866186403276   111.14679123   301.41440277
 O      9   7   6     2.285147107677   123.04037789    23.07955097
 O      9   7   6     2.488145336308   111.80054532   202.23899433
 C     11   9   7     2.725897521987   118.56696260   185.53540733
 C     12  11   9     2.869997779595   110.66757314    85.81703420
 S      7   6   4     3.438395241563   111.44314197   177.22407287
 P     14   7   6     4.030436596027    98.48484286   196.27834332
 S     15  14   7     3.699726313435   116.89006014    22.93394143
 O     15  14   7     3.028432132786   101.37530564   147.54036591
 C     17  15  14     2.704248017146   121.31342358   289.36277055
 O     15  14   7     2.982863810603   108.90488223   252.27223690
 C     19  15  14     2.724800677862   121.88025510   307.17284788
 H      1   2   3     2.050079667665   109.59000788   181.23878386
 H      1   2   3     2.056012892530   109.66763744   301.27877078
 H      1   2   3     2.052251807498   110.12376953    60.65992425
 H      2   1   3     2.060910307049   111.54364416   243.83525048
 H      2   1   3     2.066777946892   110.98671231   120.14582566
 H      6   4   3     2.058162696823   109.11949118    17.57860761
 H      6   4   3     2.061336124114   108.72655858   258.28586754
 H     12  11   9     2.059477183219   104.37993669   205.71663477
 H     12  11   9     2.066256367267   108.12917515   323.88703234
 H     13  12  11     2.049733656880   109.44140846   175.67173232
 H     13  12  11     2.056334089003   110.27225719   295.77288093
 H     13  12  11     2.055610983651   110.01040876    55.45317074
 H     18  17  15     2.059540808125   109.87071149    72.61971790
 H     18  17  15     2.062161564591   110.17712309   311.25918809
 H     18  17  15     2.054087989111   105.65425194   192.02408063
 H     20  19  15     2.056019075526   109.94494457   295.39755251
 H     20  19  15     2.053864286791   105.20072710   176.10857447
 H     20  19  15     2.059818494344   109.96140030    56.68306063

---------------------
BASIS SET INFORMATION
---------------------
There are 5 groups of distinct atoms

 Group   1 Type C   : 11s6p1d contracted to 5s3p1d pattern {62111/411/1}
 Group   2 Type O   : 11s6p2d contracted to 5s3p2d pattern {62111/411/11}
 Group   3 Type H   : 4s1p contracted to 2s1p pattern {31/1}
 Group   4 Type S   : 14s9p2d contracted to 5s4p2d pattern {73211/6111/11}
 Group   5 Type P   : 14s9p2d contracted to 5s4p2d pattern {73211/6111/11}

Atom   0C    basis set group =>   1
Atom   1C    basis set group =>   1
Atom   2O    basis set group =>   2
Atom   3C    basis set group =>   1
Atom   4O    basis set group =>   2
Atom   5C    basis set group =>   1
Atom   6C    basis set group =>   1
Atom   7H    basis set group =>   3
Atom   8C    basis set group =>   1
Atom   9O    basis set group =>   2
Atom  10O    basis set group =>   2
Atom  11C    basis set group =>   1
Atom  12C    basis set group =>   1
Atom  13S    basis set group =>   4
Atom  14P    basis set group =>   5
Atom  15S    basis set group =>   4
Atom  16O    basis set group =>   2
Atom  17C    basis set group =>   1
Atom  18O    basis set group =>   2
Atom  19C    basis set group =>   1
Atom  20H    basis set group =>   3
Atom  21H    basis set group =>   3
Atom  22H    basis set group =>   3
Atom  23H    basis set group =>   3
Atom  24H    basis set group =>   3
Atom  25H    basis set group =>   3
Atom  26H    basis set group =>   3
Atom  27H    basis set group =>   3
Atom  28H    basis set group =>   3
Atom  29H    basis set group =>   3
Atom  30H    basis set group =>   3
Atom  31H    basis set group =>   3
Atom  32H    basis set group =>   3
Atom  33H    basis set group =>   3
Atom  34H    basis set group =>   3
Atom  35H    basis set group =>   3
Atom  36H    basis set group =>   3
Atom  37H    basis set group =>   3
---------------------------------
AUXILIARY/J BASIS SET INFORMATION
---------------------------------
There are 5 groups of distinct atoms

 Group   1 Type C   : 12s5p4d2f1g contracted to 6s4p3d1f1g pattern {711111/2111/211/2/1}
 Group   2 Type O   : 12s5p4d2f1g contracted to 6s4p3d1f1g pattern {711111/2111/211/2/1}
 Group   3 Type H   : 5s2p1d contracted to 3s1p1d pattern {311/2/1}
 Group   4 Type S   : 14s5p5d2f1g contracted to 8s4p3d1f1g pattern {71111111/2111/311/2/1}
 Group   5 Type P   : 14s5p5d2f1g contracted to 8s4p3d1f1g pattern {71111111/2111/311/2/1}

Atom   0C    basis set group =>   1
Atom   1C    basis set group =>   1
Atom   2O    basis set group =>   2
Atom   3C    basis set group =>   1
Atom   4O    basis set group =>   2
Atom   5C    basis set group =>   1
Atom   6C    basis set group =>   1
Atom   7H    basis set group =>   3
Atom   8C    basis set group =>   1
Atom   9O    basis set group =>   2
Atom  10O    basis set group =>   2
Atom  11C    basis set group =>   1
Atom  12C    basis set group =>   1
Atom  13S    basis set group =>   4
Atom  14P    basis set group =>   5
Atom  15S    basis set group =>   4
Atom  16O    basis set group =>   2
Atom  17C    basis set group =>   1
Atom  18O    basis set group =>   2
Atom  19C    basis set group =>   1
Atom  20H    basis set group =>   3
Atom  21H    basis set group =>   3
Atom  22H    basis set group =>   3
Atom  23H    basis set group =>   3
Atom  24H    basis set group =>   3
Atom  25H    basis set group =>   3
Atom  26H    basis set group =>   3
Atom  27H    basis set group =>   3
Atom  28H    basis set group =>   3
Atom  29H    basis set group =>   3
Atom  30H    basis set group =>   3
Atom  31H    basis set group =>   3
Atom  32H    basis set group =>   3
Atom  33H    basis set group =>   3
Atom  34H    basis set group =>   3
Atom  35H    basis set group =>   3
Atom  36H    basis set group =>   3
Atom  37H    basis set group =>   3

Checking for AutoStart:
The File: sp_solv.gbw exists
Trying to determine its content:
     ... Fine, the file contains calculation information
     ... Fine, the calculation information was read
     ... Fine, the file contains a basis set
     ... Fine, the basis set was read
     ... Fine, the file contains a geometry
     ... Fine, the geometry was read
     ... Fine, the file contains a set of orbitals
     ... Fine, the orbitals can be read
     => possible old guess file was deleted
     => GBW file was renamed to GES file
     => GES file is set as startup file
     => Guess is set to MORead
     ... now leaving AutoStart

------------------------------------------------------------------------------
                             ORCA STARTUP CALCULATIONS
                           -- RI-GTO INTEGRALS CHOSEN --
------------------------------------------------------------------------------
------------------------------------------------------------------------------
                   ___                                                        
                  /   \      - P O W E R E D   B Y -                         
                 /     \                                                     
                 |  |  |   _    _      __       _____    __    __             
                 |  |  |  | |  | |    /  \     |  _  \  |  |  /  |          
                  \  \/   | |  | |   /    \    | | | |  |  | /  /          
                 / \  \   | |__| |  /  /\  \   | |_| |  |  |/  /          
                |  |  |   |  __  | /  /__\  \  |    /   |      \           
                |  |  |   | |  | | |   __   |  |    \   |  |\   \          
                \     /   | |  | | |  |  |  |  | |\  \  |  | \   \       
                 \___/    |_|  |_| |__|  |__|  |_| \__\ |__|  \__/        
                                                                              
                      - O R C A' S   B I G   F R I E N D -                    
                                      &                                       
                       - I N T E G R A L  F E E D E R -                       
                                                                              
 v1 FN, 2020, v2 2021, v3 2022-2024                                           
------------------------------------------------------------------------------


----------------------
SHARK INTEGRAL PACKAGE
----------------------

Number of atoms                             ...     38
Number of basis functions                   ...    510
Number of shells                            ...    240
Maximum angular momentum                    ...      2
Integral batch strategy                     ... SHARK/LIBINT Hybrid
RI-J (if used) integral strategy            ... SPLIT-RIJ (Revised 2003 algorithm where possible)
Printlevel                                  ...      1
Contraction scheme used                     ... SEGMENTED contraction
Prescreening option                         ... SCHWARTZ
   Thresh                                   ... 1.000e-10
   Tcut                                     ... 1.000e-11
   Tpresel                                  ... 1.000e-11 
Coulomb Range Separation                    ... NOT USED
Exchange Range Separation                   ... NOT USED
Multipole approximations                    ... NOT USED
Finite Nucleus Model                        ... NOT USED
CABS basis                                  ... NOT available
Auxiliary Coulomb fitting basis             ... AVAILABLE
   # of basis functions in Aux-J            ...   1146
   # of shells in Aux-J                     ...    386
   Maximum angular momentum in Aux-J        ...      4
Auxiliary J/K fitting basis                 ... NOT available
Auxiliary Correlation fitting basis         ... NOT available
Auxiliary 'external' fitting basis          ... NOT available

Checking pre-screening integrals            ... done (  0.0 sec) Dimension = 240
Check shell pair data                       ... done (  0.0 sec)
Shell pair information
Shell pair cut-off parameter TPreSel        ...   1.0e-11
Total number of shell pairs                 ...     28920
Shell pairs after pre-screening             ...     19703
Total number of primitive shell pairs       ...    108409
Primitive shell pairs kept                  ...     45454
          la=0 lb=0:   5651 shell pairs
          la=1 lb=0:   7153 shell pairs
          la=1 lb=1:   2295 shell pairs
          la=2 lb=0:   2634 shell pairs
          la=2 lb=1:   1648 shell pairs
          la=2 lb=2:    322 shell pairs

Calculating one electron integrals          ... done (  0.1 sec)
Calculating RI/J V-Matrix + Cholesky decomp.... done (  0.1 sec)
Calculating Nuclear repulsion               ... done (  0.0 sec) ENN=   2148.702742636769 Eh

Diagonalization of the overlap matrix:
Smallest eigenvalue                        ... 6.407e-05
Time for diagonalization                   ...    0.035 sec
Threshold for overlap eigenvalues          ... 1.000e-07
Number of eigenvalues below threshold      ... 0
Time for construction of square roots      ...    0.018 sec
Total time needed                          ...    0.055 sec

-------------------
DFT GRID GENERATION
-------------------

General Integration Accuracy     IntAcc      ... 4.388
Radial Grid Type                 RadialGrid  ... OptM3 with GC (2021)
Angular Grid (max. ang.)         AngularGrid ... 4 (Lebedev-302)
Angular grid pruning method      GridPruning ... 4 (adaptive)
Weight generation scheme         WeightScheme... mBecke (2022)
Basis function cutoff            BFCut       ... 1.0000e-10
Integration weight cutoff        WCut        ... 1.0000e-14
Partially contracted basis set               ... off
Rotationally invariant grid construction     ... off
Angular grids for H and He will be reduced by one unit
Diffuse basis detected: some atoms will have their outermost
                        angular grid increased by 1.

Total number of grid points                  ...   180179
Total number of batches                      ...     2834
Average number of points per batch           ...       63
Average number of grid points per atom       ...     4742
Initializing property integral containers    ... done (  0.0 sec)

SHARK setup successfully completed in   2.6 seconds

Maximum memory used throughout the entire STARTUP-calculation: 97.1 MB
-------------------------------------------------------------------------------
                                 ORCA GUESS
                   Start orbitals & Density for SCF / CASSCF
-------------------------------------------------------------------------------

------------
SCF SETTINGS
------------
Hamiltonian:
 Density Functional     Method          .... DFT(GTOs)
  Functional kind                       .... Exchange
  Functional name                       .... Re-regularized SCAN exchange by Furness et al
  Functional family                     .... MGGA
  Functional refs                              
    [ 0] J. W. Furness, A. D. Kaplan, J. Ning, J. P. Perdew, and J. Sun.,  J. Phys. Chem. Lett. 11, 8208-8215 (2020), doi: 10.1021/acs.jpclett.0c02405
    [ 1] J. W. Furness, A. D. Kaplan, J. Ning, J. P. Perdew, and J. Sun.,  J. Phys. Chem. Lett. 11, 9248-9248 (2020), doi: 10.1021/acs.jpclett.0c03077
  Functional external parameters        .... 6
    Parameter  0 _c1        =  6.670000e-01 : c1 parameter        
    Parameter  1 _c2        =  8.000000e-01 : c2 parameter        
    Parameter  2 _d         =  1.240000e+00 : d parameter         
    Parameter  3 _k1        =  6.500000e-02 : k1 parameter        
    Parameter  4 _eta       =  1.000000e-03 : eta parameter       
    Parameter  5 _dp2       =  3.610000e-01 : dp2 parameter       
  Functional kind                       .... Correlation
  Functional name                       .... Re-regularized SCAN correlation by Furness et al
  Functional family                     .... MGGA
  Functional refs                              
    [ 0] J. W. Furness, A. D. Kaplan, J. Ning, J. P. Perdew, and J. Sun.,  J. Phys. Chem. Lett. 11, 8208-8215 (2020), doi: 10.1021/acs.jpclett.0c02405
    [ 1] J. W. Furness, A. D. Kaplan, J. Ning, J. P. Perdew, and J. Sun.,  J. Phys. Chem. Lett. 11, 9248-9248 (2020), doi: 10.1021/acs.jpclett.0c03077
  Functional external parameters        .... 1
    Parameter  0 _eta       =  1.000000e-03 : Regularization parameter
 Gradients option       PostSCFGGA      .... off
 RI-approximation to the Coulomb term is turned on
   Number of AuxJ basis functions       .... 1146


General Settings:
 Integral files         IntName         .... sp_solv
 Hartree-Fock type      HFTyp           .... RHF
 Total Charge           Charge          ....    0
 Multiplicity           Mult            ....    1
 Number of Electrons    NEL             ....  174
 Basis Dimension        Dim             ....  510
 Nuclear Repulsion      ENuc            ....   2148.7027426368 Eh

Convergence Acceleration:
 AO-DIIS                CNVDIIS         .... on
   Start iteration      DIISMaxIt       ....    12
   Startup error        DIISStart       ....  0.200000
   # of expansion vecs  DIISMaxEq       ....     5
   Bias factor          DIISBfac        ....   1.050
   Max. coefficient     DIISMaxC        ....  10.000
 MO-DIIS                CNVKDIIS        .... off
 Trust-Rad. Augm. Hess. CNVTRAH         .... auto
   Auto Start mean grad. ratio tolernc. ....  1.125000
   Auto Start start iteration           ....     1
   Auto Start num. interpolation iter.  ....    10
   Max. Number of Micro iterations      ....    24
   Max. Number of Macro iterations      .... Maxiter - #DIIS iter
   Number of Davidson start vectors     ....     2
   Converg. threshold    (grad. norm)   ....   3.330e-04
   Grad. Scal. Fac. for Micro threshold ....   0.100
   Minimum threshold for Micro iter.    ....   1.000e-02
   NR start threshold (gradient norm)   ....   1.000e-04
   Initial trust radius                 ....   0.400
   Minimum AH scaling param. (alpha)    ....   1.000
   Maximum AH scaling param. (alpha)    .... 1000.000
   Quad. conv. algorithm                .... NR
   White noise on init. David. guess    .... on
   Maximum white noise                  ....   0.010
   Pseudo random numbers                .... off
   Inactive MOs                         .... canonical
   Orbital update algorithm             .... Taylor
   Preconditioner                       .... Diag
   Full preconditioner red. dimension   ....   250
   COSX micro iterations for RIJONX calc.... off
 SOSCF                  CNVSOSCF        .... on
   Start iteration      SOSCFMaxIt      ....   150
   Startup grad/error   SOSCFStart      ....  0.003300
   Hessian update       SOSCFHessUp     .... L-BFGS
 Level Shifting         CNVShift        .... on
   Level shift para.    LevelShift      ....    0.2500
   Turn off err/grad.   ShiftErr        ....    0.0010
 Zerner damping         CNVZerner       .... off
 Static damping         CNVDamp         .... on
   Fraction old density DampFac         ....    0.7000
   Max. Damping (<1)    DampMax         ....    0.9800
   Min. Damping (>=0)   DampMin         ....    0.0000
   Turn off err/grad.   DampErr         ....    0.1000

SCF Procedure:
 Maximum # iterations   MaxIter         ....   125
 SCF integral mode      SCFMode         .... Direct
   Integral package                     .... SHARK and LIBINT hybrid scheme
 Reset frequency        DirectResetFreq ....    20
 Integral Threshold     Thresh          ....  1.000e-10 Eh
 Primitive CutOff       TCut            ....  1.000e-11 Eh

Convergence Tolerance:
 Convergence Check Mode ConvCheckMode   .... Total+1el-Energy
 Convergence forced     ConvForced      .... 0
 Energy Change          TolE            ....  1.000e-06 Eh
 1-El. energy change                    ....  1.000e-03 Eh
 Orbital Gradient       TolG            ....  3.330e-04
 Orbital Rotation angle TolX            ....  3.330e-04
 DIIS Error             TolErr          ....  1.000e-06

---------------------
INITIAL GUESS: MOREAD
---------------------
Guess MOs are being read from file: sp_solv.ges
Input Geometry matches current geometry (good)
Atom 0: N(Shells)= 9 and 6 - projection required
Input basis set needs projection
NBasis(read)= 316
NBasis(calc)= 510
Basis set overlap was calculated
Using GuessMode=FMatrix for the initial guess
C*T matrix was formed
Effective Fockian was calculated
Effective Fockian was diagonalized
Initial density was built
                      ------------------
                      INITIAL GUESS DONE (   0.1 sec)
                      ------------------
             **** ENERGY FILE WAS UPDATED (sp_solv.en.tmp) ****
Finished Guess after   0.2 sec
Maximum memory used throughout the entire GUESS-calculation: 56.7 MB

-------------------------------------------------------------------------------------------
                                      ORCA LEAN-SCF
                              memory conserving SCF solver
-------------------------------------------------------------------------------------------

--------------------
CPCM SOLVATION MODEL
--------------------
CPCM parameters:
  Epsilon                                         ...      78.3550
  Refrac                                          ...       1.3328
  Rsolv                                           ...       1.3000
  Surface type                                    ... GAUSSIAN VDW
  Discretization scheme                           ... Constant charge density
    Threshold for H atoms                         ...       5.0000 (charges/Ang^2)
    Threshold for non-H atoms                     ...       5.0000 (charges/Ang^2)
  Epsilon function type                           ...         CPCM
Solvent:                                          ... WATER
SMD-CDS solvent descriptors:
  Soln                                            ...       1.3328
  Soln25                                          ...       1.3323
  Sola                                            ...       0.0000
  Solb                                            ...       0.0000
  Solg                                            ...       0.0000
  Solc                                            ...       0.0000
  Solh                                            ...       0.0000
Radii:
  Scheme                                          ... Element-dependent radii
  Radius for C  used is    3.4960 Bohr (=   1.8500 Ang.)
  Radius for O  used is    2.8724 Bohr (=   1.5200 Ang.)
  Radius for H  used is    2.2677 Bohr (=   1.2000 Ang.)
  Radius for S  used is    4.7054 Bohr (=   2.4900 Ang.)
  Radius for P  used is    4.0062 Bohr (=   2.1200 Ang.)
Calculating surface                               ...        done! (  0.0s)
Cavity surface points                             ...         2993
Cavity Volume                                     ...    2239.6131
Cavity Surface-area                               ...    1224.4793
Calculating surface distance matrix               ...        done! (  0.1s)
Performing Cholesky decomposition & store         ...        done! (  0.3s)
Overall time for CPCM initialization              ...                 0.4s

----------------------------------------D-I-I-S--------------------------------------------
Iteration    Energy (Eh)           Delta-E    RMSDP     MaxDP     DIISErr   Damp  Time(sec)
-------------------------------------------------------------------------------------------
               ***  Starting incremental Fock matrix formation  ***
    1    -1981.0027952164073213     0.00e+00  3.56e-03  4.45e-01  6.34e-01  0.700  11.4
    2    -1981.1517070774461899    -1.49e-01  2.72e-03  2.89e-01  4.46e-01  0.700   9.9
    3    -1981.2569328632762335    -1.05e-01  1.95e-03  1.93e-01  3.13e-01  0.700   9.7
    4    -1981.3308126655347223    -7.39e-02  1.38e-03  1.31e-01  2.19e-01  0.700   9.6
                               ***Turning on AO-DIIS***
    5    -1981.3826468768857012    -5.18e-02  9.89e-04  8.82e-02  1.53e-01  0.700   9.4
    6    -1981.4189725112319138    -3.63e-02  6.99e-04  6.12e-02  1.07e-01  0.700   9.3
    7    -1981.4444557713977701    -2.55e-02  4.92e-04  4.27e-02  7.50e-02  0.700   9.1
    8    -1981.4623119425477853    -1.79e-02  1.15e-03  9.87e-02  5.26e-02  0.000   8.9
                              *** Initializing SOSCF ***
---------------------------------------S-O-S-C-F--------------------------------------
Iteration    Energy (Eh)           Delta-E    RMSDP     MaxDP     MaxGrad    Time(sec)
--------------------------------------------------------------------------------------
    9    -1981.5040384148805970    -4.17e-02  1.01e-05  7.24e-04  2.67e-04     9.4
               *** Restarting incremental Fock matrix formation ***
   10    -1981.5040390332678726    -6.18e-07  8.13e-06  7.08e-04  5.62e-05    11.4
                  *** Gradient check signals convergence ***

               *****************************************************
               *                     SUCCESS                       *
               *           SCF CONVERGED AFTER  10 CYCLES          *
               *****************************************************


SMD CDS free energy correction energy :                 9.79198     Kcal/mol
Total Energy after SMD CDS correction =             -1981.488434525 Eh
             **** ENERGY FILE WAS UPDATED (sp_solv.en.tmp) ****

----------------
TOTAL SCF ENERGY
----------------

Total Energy       :      -1981.48843452490451 Eh          -53919.04149 eV

Components:
Nuclear Repulsion  :       2148.70274263676856 Eh           58469.17414 eV
Electronic Energy  :      -4130.17052156980571 Eh         -112387.65357 eV
One Electron Energy:      -7004.35336328499125 Eh         -190598.14484 eV
Two Electron Energy:       2874.18284171518599 Eh           78210.49127 eV
CPCM Dielectric    :         -0.03626010023188 Eh              -0.98669 eV
SMD CDS (Gcds)     :          0.01560450836335 Eh               0.42462 eV

Virial components:
Potential Energy   :      -3956.62930988347216 Eh         -107665.35712 eV
Kinetic Energy     :       1975.14087535856788 Eh           53746.31563 eV
Virial Ratio       :          2.00321372477555

DFT components:
N(Alpha)           :       87.000085027444 electrons
N(Beta)            :       87.000085027444 electrons
N(Total)           :      174.000170054887 electrons
E(X)               :     -181.424534235121 Eh       
E(C)               :       -5.971797120443 Eh       
E(XC)              :     -187.396331355564 Eh       

CPCM Solvation Model Properties:
Surface-charge          :         -0.04883002586850
Corrected charge        :         -0.00000000000000
Outlying charge corr.   :          0.00012942872454 Eh               0.00352 eV
Free-energy (cav+disp)  :          0.01560450836335 Eh               0.42462 eV

---------------
SCF CONVERGENCE
---------------

  Last Energy change         ...    6.1839e-07  Tolerance :   1.0000e-06
  Last MAX-Density change    ...    7.0760e-04  Tolerance :   1.0000e-05
  Last RMS-Density change    ...    8.1301e-06  Tolerance :   1.0000e-06
  Last DIIS Error            ...    2.6657e-04  Tolerance :   1.0000e-06
  Last Orbital Gradient      ...    5.6249e-05  Tolerance :   3.3300e-04
  Last Orbital Rotation      ...    2.5239e-04  Tolerance :   3.3300e-04


----------------
ORBITAL ENERGIES
----------------

  NO   OCC          E(Eh)            E(eV) 
   0   2.0000     -88.581879     -2410.4355 
   1   2.0000     -88.529845     -2409.0195 
   2   2.0000     -76.921643     -2093.1443 
   3   2.0000     -19.010694      -517.3073 
   4   2.0000     -19.006479      -517.1926 
   5   2.0000     -18.998383      -516.9723 
   6   2.0000     -18.994728      -516.8728 
   7   2.0000     -18.955829      -515.8143 
   8   2.0000     -18.945319      -515.5283 
   9   2.0000     -10.175732      -276.8957 
  10   2.0000     -10.171506      -276.7808 
  11   2.0000     -10.097531      -274.7678 
  12   2.0000     -10.087951      -274.5071 
  13   2.0000     -10.085390      -274.4374 
  14   2.0000     -10.084480      -274.4127 
  15   2.0000     -10.081639      -274.3353 
  16   2.0000     -10.057276      -273.6724 
  17   2.0000     -10.018862      -272.6271 
  18   2.0000     -10.018597      -272.6199 
  19   2.0000      -7.875969      -214.3160 
  20   2.0000      -7.824852      -212.9251 
  21   2.0000      -6.599913      -179.5928 
  22   2.0000      -5.822819      -158.4470 
  23   2.0000      -5.819973      -158.3695 
  24   2.0000      -5.813002      -158.1798 
  25   2.0000      -5.772651      -157.0818 
  26   2.0000      -5.765188      -156.8788 
  27   2.0000      -5.764602      -156.8628 
  28   2.0000      -4.745607      -129.1345 
  29   2.0000      -4.744916      -129.1157 
  30   2.0000      -4.743502      -129.0773 
  31   2.0000      -1.092423       -29.7263 
  32   2.0000      -1.083990       -29.4969 
  33   2.0000      -1.054846       -28.7038 
  34   2.0000      -1.011659       -27.5286 
  35   2.0000      -1.003720       -27.3126 
  36   2.0000      -0.993703       -27.0400 
  37   2.0000      -0.814323       -22.1589 
  38   2.0000      -0.753375       -20.5004 
  39   2.0000      -0.739832       -20.1319 
  40   2.0000      -0.731304       -19.8998 
  41   2.0000      -0.696698       -18.9581 
  42   2.0000      -0.671047       -18.2601 
  43   2.0000      -0.660713       -17.9789 
  44   2.0000      -0.652966       -17.7681 
  45   2.0000      -0.626727       -17.0541 
  46   2.0000      -0.593449       -16.1486 
  47   2.0000      -0.541951       -14.7472 
  48   2.0000      -0.528766       -14.3885 
  49   2.0000      -0.524383       -14.2692 
  50   2.0000      -0.498461       -13.5638 
  51   2.0000      -0.496373       -13.5070 
  52   2.0000      -0.489422       -13.3178 
  53   2.0000      -0.467018       -12.7082 
  54   2.0000      -0.463258       -12.6059 
  55   2.0000      -0.459538       -12.5047 
  56   2.0000      -0.451624       -12.2893 
  57   2.0000      -0.447224       -12.1696 
  58   2.0000      -0.439163       -11.9502 
  59   2.0000      -0.427794       -11.6409 
  60   2.0000      -0.421855       -11.4793 
  61   2.0000      -0.412557       -11.2262 
  62   2.0000      -0.410798       -11.1784 
  63   2.0000      -0.402624       -10.9559 
  64   2.0000      -0.387092       -10.5333 
  65   2.0000      -0.381306       -10.3759 
  66   2.0000      -0.370289       -10.0761 
  67   2.0000      -0.368322       -10.0226 
  68   2.0000      -0.361831        -9.8459 
  69   2.0000      -0.354413        -9.6441 
  70   2.0000      -0.346743        -9.4353 
  71   2.0000      -0.342789        -9.3278 
  72   2.0000      -0.337705        -9.1894 
  73   2.0000      -0.332197        -9.0396 
  74   2.0000      -0.321434        -8.7467 
  75   2.0000      -0.316299        -8.6069 
  76   2.0000      -0.308786        -8.4025 
  77   2.0000      -0.305486        -8.3127 
  78   2.0000      -0.289617        -7.8809 
  79   2.0000      -0.287950        -7.8355 
  80   2.0000      -0.280782        -7.6405 
  81   2.0000      -0.278914        -7.5896 
  82   2.0000      -0.275548        -7.4981 
  83   2.0000      -0.257651        -7.0110 
  84   2.0000      -0.237567        -6.4645 
  85   2.0000      -0.230450        -6.2709 
  86   2.0000      -0.223941        -6.0937 
  87   0.0000      -0.053715        -1.4617 
  88   0.0000      -0.036030        -0.9804 
  89   0.0000      -0.021586        -0.5874 
  90   0.0000       0.002673         0.0727 
  91   0.0000       0.013644         0.3713 
  92   0.0000       0.029631         0.8063 
  93   0.0000       0.053138         1.4460 
  94   0.0000       0.072255         1.9662 
  95   0.0000       0.084128         2.2892 
  96   0.0000       0.093176         2.5354 
  97   0.0000       0.095367         2.5951 
*Only the first 10 virtual orbitals were printed.

                    ********************************
                    * MULLIKEN POPULATION ANALYSIS *
                    ********************************

-----------------------
MULLIKEN ATOMIC CHARGES
-----------------------
   0 C :   -0.499133
   1 C :   -0.140207
   2 O :   -0.175195
   3 C :    0.365958
   4 O :   -0.482586
   5 C :   -0.436346
   6 C :    0.039243
   7 H :    0.266955
   8 C :    0.265768
   9 O :   -0.449768
  10 O :   -0.121203
  11 C :   -0.150785
  12 C :   -0.503459
  13 S :   -0.204718
  14 P :    0.799142
  15 S :   -0.503956
  16 O :   -0.376205
  17 C :   -0.306825
  18 O :   -0.349033
  19 C :   -0.295522
  20 H :    0.170898
  21 H :    0.169038
  22 H :    0.168290
  23 H :    0.174366
  24 H :    0.178533
  25 H :    0.215819
  26 H :    0.224588
  27 H :    0.182409
  28 H :    0.177919
  29 H :    0.173640
  30 H :    0.171695
  31 H :    0.170559
  32 H :    0.175268
  33 H :    0.177035
  34 H :    0.179783
  35 H :    0.184859
  36 H :    0.183926
  37 H :    0.179251
Sum of atomic charges:    0.0000000

--------------------------------
MULLIKEN REDUCED ORBITAL CHARGES
--------------------------------
  0 C s       :     3.343163  s :     3.343163
      pz      :     0.981131  p :     3.130441
      px      :     1.070263
      py      :     1.079048
      dz2     :     0.004703  d :     0.025529
      dxz     :     0.004494
      dyz     :     0.008075
      dx2y2   :     0.004337
      dxy     :     0.003920

  1 C s       :     3.270676  s :     3.270676
      pz      :     1.003004  p :     2.816900
      px      :     0.713988
      py      :     1.099908
      dz2     :     0.008676  d :     0.052630
      dxz     :     0.011312
      dyz     :     0.009743
      dx2y2   :     0.012534
      dxy     :     0.010366

  2 O s       :     3.700352  s :     3.700352
      pz      :     1.721646  p :     4.442302
      px      :     1.116778
      py      :     1.603878
      dz2     :     0.003924  d :     0.032541
      dxz     :     0.008820
      dyz     :     0.009814
      dx2y2   :     0.003074
      dxy     :     0.006908

  3 C s       :     3.159905  s :     3.159905
      pz      :     0.759309  p :     2.346805
      px      :     0.843498
      py      :     0.743998
      dz2     :     0.016169  d :     0.127332
      dxz     :     0.019093
      dyz     :     0.020645
      dx2y2   :     0.028611
      dxy     :     0.042814

  4 O s       :     3.830212  s :     3.830212
      pz      :     1.452731  p :     4.627768
      px      :     1.805888
      py      :     1.369149
      dz2     :     0.004096  d :     0.024606
      dxz     :     0.002597
      dyz     :     0.009089
      dx2y2   :     0.006820
      dxy     :     0.002004

  5 C s       :     3.341414  s :     3.341414
      pz      :     1.112965  p :     3.061109
      px      :     0.996028
      py      :     0.952115
      dz2     :     0.004469  d :     0.033824
      dxz     :     0.006556
      dyz     :     0.008322
      dx2y2   :     0.006962
      dxy     :     0.007515

  6 C s       :     2.968716  s :     2.968716
      pz      :     1.005849  p :     2.947835
      px      :     0.854588
      py      :     1.087398
      dz2     :     0.006086  d :     0.044206
      dxz     :     0.010314
      dyz     :     0.010857
      dx2y2   :     0.008627
      dxy     :     0.008321

  7 H s       :     0.713906  s :     0.713906
      pz      :     0.007058  p :     0.019139
      px      :     0.003401
      py      :     0.008681

  8 C s       :     3.187891  s :     3.187891
      pz      :     0.852888  p :     2.419539
      px      :     0.782638
      py      :     0.784013
      dz2     :     0.017220  d :     0.126803
      dxz     :     0.044564
      dyz     :     0.009489
      dx2y2   :     0.021025
      dxy     :     0.034504

  9 O s       :     3.846242  s :     3.846242
      pz      :     1.692324  p :     4.582606
      px      :     1.299965
      py      :     1.590317
      dz2     :     0.003002  d :     0.020920
      dxz     :     0.002296
      dyz     :     0.001668
      dx2y2   :     0.008547
      dxy     :     0.005407

 10 O s       :     3.688902  s :     3.688902
      pz      :     1.309339  p :     4.380947
      px      :     1.559658
      py      :     1.511950
      dz2     :     0.007741  d :     0.051354
      dxz     :     0.014893
      dyz     :     0.004230
      dx2y2   :     0.013756
      dxy     :     0.010734

 11 C s       :     3.270792  s :     3.270792
      pz      :     0.843626  p :     2.827482
      px      :     1.074851
      py      :     0.909005
      dz2     :     0.009039  d :     0.052511
      dxz     :     0.012582
      dyz     :     0.012515
      dx2y2   :     0.008410
      dxy     :     0.009964

 12 C s       :     3.354584  s :     3.354584
      pz      :     1.097084  p :     3.123365
      px      :     1.090149
      py      :     0.936132
      dz2     :     0.002829  d :     0.025510
      dxz     :     0.006699
      dyz     :     0.005151
      dx2y2   :     0.005411
      dxy     :     0.005420

 13 S s       :     5.938919  s :     5.938919
      pz      :     3.780481  p :    10.167000
      px      :     3.081186
      py      :     3.305333
      dz2     :     0.014446  d :     0.098799
      dxz     :     0.015500
      dyz     :     0.011733
      dx2y2   :     0.030778
      dxy     :     0.026340

 14 P s       :     5.102680  s :     5.102680
      pz      :     2.772614  p :     8.389403
      px      :     2.781336
      py      :     2.835453
      dz2     :     0.163845  d :     0.708776
      dxz     :     0.122341
      dyz     :     0.127357
      dx2y2   :     0.160975
      dxy     :     0.134257

 15 S s       :     5.901634  s :     5.901634
      pz      :     3.563828  p :    10.538126
      px      :     3.631848
      py      :     3.342450
      dz2     :     0.007382  d :     0.064196
      dxz     :     0.008817
      dyz     :     0.019404
      dx2y2   :     0.014133
      dxy     :     0.014459

 16 O s       :     3.762388  s :     3.762388
      pz      :     1.370767  p :     4.581030
      px      :     1.423775
      py      :     1.786487
      dz2     :     0.012971  d :     0.032787
      dxz     :     0.000663
      dyz     :     0.004364
      dx2y2   :     0.014098
      dxy     :     0.000691

 17 C s       :     3.345015  s :     3.345015
      pz      :     0.713405  p :     2.918015
      px      :     1.105914
      py      :     1.098696
      dz2     :     0.014138  d :     0.043794
      dxz     :     0.007596
      dyz     :     0.012149
      dx2y2   :     0.007172
      dxy     :     0.002739

 18 O s       :     3.744194  s :     3.744194
      pz      :     1.230037  p :     4.576352
      px      :     1.710277
      py      :     1.636038
      dz2     :     0.010641  d :     0.028487
      dxz     :     0.002225
      dyz     :    -0.000510
      dx2y2   :     0.008898
      dxy     :     0.007233

 19 C s       :     3.342248  s :     3.342248
      pz      :     0.942605  p :     2.910721
      px      :     1.018731
      py      :     0.949385
      dz2     :     0.009654  d :     0.042553
      dxz     :     0.005969
      dyz     :     0.008987
      dx2y2   :     0.010105
      dxy     :     0.007838

 20 H s       :     0.810598  s :     0.810598
      pz      :     0.003839  p :     0.018504
      px      :     0.010407
      py      :     0.004258

 21 H s       :     0.812660  s :     0.812660
      pz      :     0.004439  p :     0.018302
      px      :     0.005372
      py      :     0.008491

 22 H s       :     0.813400  s :     0.813400
      pz      :     0.007704  p :     0.018310
      px      :     0.003567
      py      :     0.007039

 23 H s       :     0.808070  s :     0.808070
      pz      :     0.004295  p :     0.017565
      px      :     0.004019
      py      :     0.009251

 24 H s       :     0.803401  s :     0.803401
      pz      :     0.008127  p :     0.018066
      px      :     0.002400
      py      :     0.007539

 25 H s       :     0.766224  s :     0.766224
      pz      :     0.006826  p :     0.017957
      px      :     0.003218
      py      :     0.007913

 26 H s       :     0.757178  s :     0.757178
      pz      :     0.008443  p :     0.018235
      px      :     0.005325
      py      :     0.004466

 27 H s       :     0.799993  s :     0.799993
      pz      :     0.007065  p :     0.017598
      px      :     0.007461
      py      :     0.003072

 28 H s       :     0.804226  s :     0.804226
      pz      :     0.003717  p :     0.017855
      px      :     0.009004
      py      :     0.005133

 29 H s       :     0.807834  s :     0.807834
      pz      :     0.008196  p :     0.018526
      px      :     0.004582
      py      :     0.005747

 30 H s       :     0.810050  s :     0.810050
      pz      :     0.007231  p :     0.018255
      px      :     0.007554
      py      :     0.003470

 31 H s       :     0.811050  s :     0.811050
      pz      :     0.004931  p :     0.018392
      px      :     0.008319
      py      :     0.005142

 32 H s       :     0.806761  s :     0.806761
      pz      :     0.002952  p :     0.017971
      px      :     0.004288
      py      :     0.010731

 33 H s       :     0.804801  s :     0.804801
      pz      :     0.005927  p :     0.018164
      px      :     0.004918
      py      :     0.007319

 34 H s       :     0.802333  s :     0.802333
      pz      :     0.002239  p :     0.017884
      px      :     0.012037
      py      :     0.003608

 35 H s       :     0.797245  s :     0.797245
      pz      :     0.003452  p :     0.017896
      px      :     0.011385
      py      :     0.003060

 36 H s       :     0.798204  s :     0.798204
      pz      :     0.010500  p :     0.017870
      px      :     0.003263
      py      :     0.004106

 37 H s       :     0.802592  s :     0.802592
      pz      :     0.003077  p :     0.018157
      px      :     0.004663
      py      :     0.010417


------------------------
MULLIKEN OVERLAP CHARGES
------------------------
B(  0-C ,  1-C ) :   0.5041 B(  0-C ,  2-O ) :  -0.1011 B(  0-C , 20-H ) :   0.8136 
B(  0-C , 21-H ) :   0.8335 B(  0-C , 22-H ) :   0.8302 B(  0-C , 24-H ) :  -0.0691 
B(  1-C ,  2-O ) :   0.3058 B(  1-C ,  3-C ) :  -0.2595 B(  1-C , 20-H ) :  -0.0748 
B(  1-C , 21-H ) :  -0.0863 B(  1-C , 22-H ) :  -0.0600 B(  1-C , 23-H ) :   0.7931 
B(  1-C , 24-H ) :   0.8576 B(  2-O ,  3-C ) :   0.3931 B(  2-O ,  4-O ) :  -0.1938 
B(  2-O ,  5-C ) :  -0.0753 B(  2-O , 23-H ) :  -0.0836 B(  2-O , 24-H ) :  -0.0628 
B(  3-C ,  4-O ) :   0.9587 B(  3-C ,  5-C ) :  -0.1527 B(  3-C ,  9-O ) :   0.1131 
B(  3-C , 24-H ) :  -0.0505 B(  3-C , 25-H ) :  -0.1204 B(  4-O ,  5-C ) :  -0.2012 
B(  4-O ,  6-C ) :   0.1044 B(  4-O ,  9-O ) :  -0.0514 B(  5-C , 13-S ) :  -0.1396 
B(  5-C , 25-H ) :   0.8980 B(  5-C , 26-H ) :   0.7812 B(  6-C ,  7-H ) :   0.8215 
B(  6-C ,  8-C ) :   0.2388 B(  6-C ,  9-O ) :  -0.2106 B(  6-C , 10-O ) :  -0.2266 
B(  6-C , 13-S ) :   0.2938 B(  6-C , 14-P ) :  -0.0823 B(  6-C , 26-H ) :  -0.1073 
B(  7-H ,  8-C ) :  -0.0632 B(  7-H , 13-S ) :  -0.0677 B(  8-C ,  9-O ) :   0.9015 
B(  8-C , 10-O ) :   0.5443 B(  8-C , 11-C ) :  -0.1503 B(  9-O , 10-O ) :  -0.1825 
B( 10-O , 11-C ) :   0.1807 B( 10-O , 12-C ) :  -0.0929 B( 10-O , 14-P ) :   0.0766 
B( 10-O , 27-H ) :  -0.0850 B( 11-C , 12-C ) :   0.4478 B( 11-C , 27-H ) :   0.8158 
B( 11-C , 28-H ) :   0.8226 B( 11-C , 29-H ) :  -0.0762 B( 11-C , 30-H ) :  -0.0819 
B( 11-C , 31-H ) :  -0.0735 B( 12-C , 27-H ) :  -0.0520 B( 12-C , 28-H ) :  -0.0667 
B( 12-C , 29-H ) :   0.8100 B( 12-C , 30-H ) :   0.8422 B( 12-C , 31-H ) :   0.8335 
B( 13-S , 14-P ) :   0.6359 B( 13-S , 15-S ) :  -0.1105 B( 13-S , 16-O ) :  -0.1001 
B( 13-S , 18-O ) :  -0.0814 B( 14-P , 15-S ) :   1.2751 B( 14-P , 16-O ) :   0.4909 
B( 14-P , 17-C ) :  -0.1646 B( 14-P , 18-O ) :   0.6730 B( 14-P , 19-C ) :  -0.1818 
B( 15-S , 16-O ) :  -0.0881 B( 15-S , 18-O ) :  -0.0998 B( 16-O , 17-C ) :   0.3495 
B( 16-O , 18-O ) :  -0.2179 B( 16-O , 32-H ) :  -0.0729 B( 16-O , 33-H ) :  -0.0793 
B( 16-O , 34-H ) :  -0.0849 B( 17-C , 32-H ) :   0.8018 B( 17-C , 33-H ) :   0.8287 
B( 17-C , 34-H ) :   0.7977 B( 18-O , 19-C ) :   0.3224 B( 18-O , 35-H ) :  -0.0704 
B( 18-O , 36-H ) :  -0.0761 B( 18-O , 37-H ) :  -0.0792 B( 19-C , 35-H ) :   0.8103 
B( 19-C , 36-H ) :   0.7898 B( 19-C , 37-H ) :   0.8092 B( 32-H , 33-H ) :  -0.0601 
B( 35-H , 37-H ) :  -0.0571 


                     *******************************
                     * LOEWDIN POPULATION ANALYSIS *
                     *******************************

----------------------
LOEWDIN ATOMIC CHARGES
----------------------
   0 C :   -0.391250
   1 C :    0.037213
   2 O :   -0.583900
   3 C :    0.367953
   4 O :   -0.489169
   5 C :   -0.197596
   6 C :   -0.202570
   7 H :    0.223264
   8 C :    0.372575
   9 O :   -0.453393
  10 O :   -0.618132
  11 C :    0.041979
  12 C :   -0.392394
  13 S :    0.211243
  14 P :    0.402370
  15 S :   -0.130152
  16 O :   -0.696006
  17 C :   -0.055056
  18 O :   -0.666665
  19 C :   -0.041705
  20 H :    0.167564
  21 H :    0.164884
  22 H :    0.162276
  23 H :    0.189242
  24 H :    0.192449
  25 H :    0.201554
  26 H :    0.204782
  27 H :    0.192933
  28 H :    0.194084
  29 H :    0.168038
  30 H :    0.163837
  31 H :    0.163993
  32 H :    0.176168
  33 H :    0.177563
  34 H :    0.188886
  35 H :    0.182220
  36 H :    0.191665
  37 H :    0.179252

-------------------------------
LOEWDIN REDUCED ORBITAL CHARGES
-------------------------------
  0 C s       :     2.973633  s :     2.973633
      pz      :     1.092255  p :     3.357631
      px      :     1.121605
      py      :     1.143772
      dz2     :     0.011052  d :     0.059986
      dxz     :     0.009823
      dyz     :     0.019246
      dx2y2   :     0.010536
      dxy     :     0.009330

  1 C s       :     2.871032  s :     2.871032
      pz      :     1.060268  p :     2.973827
      px      :     0.820270
      py      :     1.093290
      dz2     :     0.017283  d :     0.117929
      dxz     :     0.025264
      dyz     :     0.022973
      dx2y2   :     0.027774
      dxy     :     0.024635

  2 O s       :     3.456859  s :     3.456859
      pz      :     1.686326  p :     4.649125
      px      :     1.337072
      py      :     1.625726
      dz2     :     0.057999  d :     0.477917
      dxz     :     0.105023
      dyz     :     0.051008
      dx2y2   :     0.132689
      dxy     :     0.131198

  3 C s       :     2.734447  s :     2.734447
      pz      :     0.766428  p :     2.620755
      px      :     0.934659
      py      :     0.919668
      dz2     :     0.032105  d :     0.276844
      dxz     :     0.038037
      dyz     :     0.047299
      dx2y2   :     0.063349
      dxy     :     0.096055

  4 O s       :     3.539459  s :     3.539459
      pz      :     1.480198  p :     4.720275
      px      :     1.748512
      py      :     1.491565
      dz2     :     0.034243  d :     0.229435
      dxz     :     0.024940
      dyz     :     0.056860
      dx2y2   :     0.052871
      dxy     :     0.060521

  5 C s       :     2.917452  s :     2.917452
      pz      :     1.112493  p :     3.207974
      px      :     1.024796
      py      :     1.070686
      dz2     :     0.008506  d :     0.072170
      dxz     :     0.013943
      dyz     :     0.019486
      dx2y2   :     0.013938
      dxy     :     0.016297

  6 C s       :     2.915060  s :     2.915060
      pz      :     1.070362  p :     3.196222
      px      :     1.023698
      py      :     1.102162
      dz2     :     0.010960  d :     0.091288
      dxz     :     0.020731
      dyz     :     0.022986
      dx2y2   :     0.018243
      dxy     :     0.018368

  7 H s       :     0.726815  s :     0.726815
      pz      :     0.019194  p :     0.049921
      px      :     0.007692
      py      :     0.023035

  8 C s       :     2.726174  s :     2.726174
      pz      :     0.870587  p :     2.623701
      px      :     0.986302
      py      :     0.766812
      dz2     :     0.036555  d :     0.277550
      dxz     :     0.097448
      dyz     :     0.020271
      dx2y2   :     0.051615
      dxy     :     0.071661

  9 O s       :     3.533767  s :     3.533767
      pz      :     1.645514  p :     4.677838
      px      :     1.481189
      py      :     1.551135
      dz2     :     0.039503  d :     0.241788
      dxz     :     0.066768
      dyz     :     0.017170
      dx2y2   :     0.066412
      dxy     :     0.051935

 10 O s       :     3.451816  s :     3.451816
      pz      :     1.451334  p :     4.620279
      px      :     1.611658
      py      :     1.557287
      dz2     :     0.123247  d :     0.546037
      dxz     :     0.126907
      dyz     :     0.116379
      dx2y2   :     0.088341
      dxy     :     0.091163

 11 C s       :     2.868415  s :     2.868415
      pz      :     0.913135  p :     2.972142
      px      :     1.069855
      py      :     0.989153
      dz2     :     0.019440  d :     0.117463
      dxz     :     0.031351
      dyz     :     0.026109
      dx2y2   :     0.019062
      dxy     :     0.021500

 12 C s       :     2.972663  s :     2.972663
      pz      :     1.153375  p :     3.359807
      px      :     1.151702
      py      :     1.054730
      dz2     :     0.006376  d :     0.059925
      dxz     :     0.016788
      dyz     :     0.012682
      dx2y2   :     0.012022
      dxy     :     0.012058

 13 S s       :     5.415099  s :     5.415099
      pz      :     3.682714  p :    10.082949
      px      :     3.090708
      py      :     3.309526
      dz2     :     0.040506  d :     0.290709
      dxz     :     0.049614
      dyz     :     0.031190
      dx2y2   :     0.084895
      dxy     :     0.084504

 14 P s       :     4.656537  s :     4.656537
      pz      :     2.758653  p :     8.380139
      px      :     2.747688
      py      :     2.873797
      dz2     :     0.366930  d :     1.560954
      dxz     :     0.267024
      dyz     :     0.283776
      dx2y2   :     0.324666
      dxy     :     0.318557

 15 S s       :     5.558951  s :     5.558951
      pz      :     3.513685  p :    10.435032
      px      :     3.568979
      py      :     3.352368
      dz2     :     0.014124  d :     0.136169
      dxz     :     0.019012
      dyz     :     0.041291
      dx2y2   :     0.026545
      dxy     :     0.035197

 16 O s       :     3.471290  s :     3.471290
      pz      :     1.460703  p :     4.751533
      px      :     1.557828
      py      :     1.733002
      dz2     :     0.126339  d :     0.473183
      dxz     :     0.122267
      dyz     :     0.086408
      dx2y2   :     0.073776
      dxy     :     0.064393

 17 C s       :     2.916657  s :     2.916657
      pz      :     0.821838  p :     3.034010
      px      :     1.103636
      py      :     1.108536
      dz2     :     0.034079  d :     0.104388
      dxz     :     0.017600
      dyz     :     0.028665
      dx2y2   :     0.018288
      dxy     :     0.005757

 18 O s       :     3.468327  s :     3.468327
      pz      :     1.452782  p :     4.732684
      px      :     1.662833
      py      :     1.617069
      dz2     :     0.145020  d :     0.465655
      dxz     :     0.090979
      dyz     :     0.107656
      dx2y2   :     0.067831
      dxy     :     0.054169

 19 C s       :     2.916296  s :     2.916296
      pz      :     0.986862  p :     3.023960
      px      :     1.045818
      py      :     0.991280
      dz2     :     0.024718  d :     0.101449
      dxz     :     0.012807
      dyz     :     0.020531
      dx2y2   :     0.025000
      dxy     :     0.018392

 20 H s       :     0.787865  s :     0.787865
      pz      :     0.008899  p :     0.044570
      px      :     0.025988
      py      :     0.009684

 21 H s       :     0.790956  s :     0.790956
      pz      :     0.010135  p :     0.044160
      px      :     0.013000
      py      :     0.021025

 22 H s       :     0.793761  s :     0.793761
      pz      :     0.018649  p :     0.043963
      px      :     0.007858
      py      :     0.017456

 23 H s       :     0.770002  s :     0.770002
      pz      :     0.009736  p :     0.040756
      px      :     0.007886
      py      :     0.023134

 24 H s       :     0.763634  s :     0.763634
      pz      :     0.019637  p :     0.043917
      px      :     0.005914
      py      :     0.018366

 25 H s       :     0.753327  s :     0.753327
      pz      :     0.017270  p :     0.045119
      px      :     0.007757
      py      :     0.020092

 26 H s       :     0.749528  s :     0.749528
      pz      :     0.021860  p :     0.045689
      px      :     0.013345
      py      :     0.010484

 27 H s       :     0.766224  s :     0.766224
      pz      :     0.015089  p :     0.040843
      px      :     0.018854
      py      :     0.006900

 28 H s       :     0.762905  s :     0.762905
      pz      :     0.008141  p :     0.043010
      px      :     0.021521
      py      :     0.013348

 29 H s       :     0.787293  s :     0.787293
      pz      :     0.020473  p :     0.044669
      px      :     0.010596
      py      :     0.013600

 30 H s       :     0.792085  s :     0.792085
      pz      :     0.017743  p :     0.044078
      px      :     0.018561
      py      :     0.007774

 31 H s       :     0.791703  s :     0.791703
      pz      :     0.011469  p :     0.044303
      px      :     0.020937
      py      :     0.011898

 32 H s       :     0.781800  s :     0.781800
      pz      :     0.006172  p :     0.042032
      px      :     0.009884
      py      :     0.025977

 33 H s       :     0.779902  s :     0.779902
      pz      :     0.012977  p :     0.042536
      px      :     0.011477
      py      :     0.018081

 34 H s       :     0.770102  s :     0.770102
      pz      :     0.004491  p :     0.041012
      px      :     0.028701
      py      :     0.007821

 35 H s       :     0.775387  s :     0.775387
      pz      :     0.008190  p :     0.042393
      px      :     0.027355
      py      :     0.006849

 36 H s       :     0.767140  s :     0.767140
      pz      :     0.023892  p :     0.041195
      px      :     0.007144
      py      :     0.010158

 37 H s       :     0.778124  s :     0.778124
      pz      :     0.006750  p :     0.042624
      px      :     0.011516
      py      :     0.024357


---------------------------------
LOEWDIN BOND ORDERS (THRESH 0.050000)
---------------------------------
B(  0-C ,  1-C ) :   1.0840 B(  0-C ,  2-O ) :   0.1610 B(  0-C , 20-H ) :   0.9147 
B(  0-C , 21-H ) :   0.9165 B(  0-C , 22-H ) :   0.9231 B(  1-C ,  2-O ) :   1.2924 
B(  1-C ,  3-C ) :   0.0850 B(  1-C ,  4-O ) :   0.0665 B(  1-C , 23-H ) :   0.8289 
B(  1-C , 24-H ) :   0.8135 B(  2-O ,  3-C ) :   1.4851 B(  2-O ,  4-O ) :   0.4452 
B(  2-O ,  5-C ) :   0.1843 B(  2-O , 23-H ) :   0.0960 B(  2-O , 24-H ) :   0.0909 
B(  3-C ,  4-O ) :   2.1202 B(  3-C ,  5-C ) :   0.8942 B(  3-C ,  6-C ) :   0.0713 
B(  3-C ,  9-O ) :   0.0598 B(  4-O ,  5-C ) :   0.1808 B(  5-C ,  6-C ) :   1.0334 
B(  5-C ,  8-C ) :   0.0645 B(  5-C , 13-S ) :   0.1188 B(  5-C , 25-H ) :   0.8489 
B(  5-C , 26-H ) :   0.8485 B(  6-C ,  7-H ) :   0.7795 B(  6-C ,  8-C ) :   0.8561 
B(  6-C ,  9-O ) :   0.1745 B(  6-C , 10-O ) :   0.1684 B(  6-C , 13-S ) :   1.2513 
B(  6-C , 14-P ) :   0.0851 B(  6-C , 15-S ) :   0.0557 B(  7-H , 13-S ) :   0.0555 
B(  8-C ,  9-O ) :   2.1134 B(  8-C , 10-O ) :   1.4693 B(  8-C , 11-C ) :   0.0843 
B(  8-C , 13-S ) :   0.1139 B(  9-O , 10-O ) :   0.4497 B(  9-O , 11-C ) :   0.0606 
B( 10-O , 11-C ) :   1.2807 B( 10-O , 12-C ) :   0.1546 B( 10-O , 13-S ) :   0.1174 
B( 10-O , 14-P ) :   0.0793 B( 10-O , 15-S ) :   0.0509 B( 10-O , 18-O ) :   0.0768 
B( 10-O , 27-H ) :   0.0976 B( 10-O , 28-H ) :   0.0924 B( 11-C , 12-C ) :   1.0835 
B( 11-C , 27-H ) :   0.8245 B( 11-C , 28-H ) :   0.8135 B( 11-C , 29-H ) :   0.0501 
B( 12-C , 29-H ) :   0.9137 B( 12-C , 30-H ) :   0.9188 B( 12-C , 31-H ) :   0.9193 
B( 13-S , 14-P ) :   1.1919 B( 13-S , 15-S ) :   0.1455 B( 13-S , 16-O ) :   0.1573 
B( 13-S , 18-O ) :   0.1373 B( 14-P , 15-S ) :   2.0169 B( 14-P , 16-O ) :   1.5351 
B( 14-P , 17-C ) :   0.0990 B( 14-P , 18-O ) :   1.5739 B( 14-P , 19-C ) :   0.0991 
B( 15-S , 16-O ) :   0.1816 B( 15-S , 18-O ) :   0.1614 B( 16-O , 17-C ) :   1.3542 
B( 16-O , 18-O ) :   0.2315 B( 16-O , 32-H ) :   0.1036 B( 16-O , 33-H ) :   0.1029 
B( 16-O , 34-H ) :   0.1026 B( 17-C , 32-H ) :   0.8620 B( 17-C , 33-H ) :   0.8585 
B( 17-C , 34-H ) :   0.8568 B( 18-O , 19-C ) :   1.3280 B( 18-O , 35-H ) :   0.0994 
B( 18-O , 36-H ) :   0.1027 B( 18-O , 37-H ) :   0.1012 B( 19-C , 35-H ) :   0.8605 
B( 19-C , 36-H ) :   0.8558 B( 19-C , 37-H ) :   0.8579 

------------------------------------------
LOEWDIN REDUCED ORBITAL POPULATIONS PER MO
-------------------------------------------
THRESHOLD FOR PRINTING IS 0.1%%
                      0         1         2         3         4         5   
                 -88.58188 -88.52984 -76.92164 -19.01069 -19.00648 -18.99838
                   2.00000   2.00000   2.00000   2.00000   2.00000   2.00000
                  --------  --------  --------  --------  --------  --------
 2 O  s               0.0       0.0       0.0       0.0      99.9       0.0
10 O  s               0.0       0.0       0.0      99.9       0.0       0.0
13 S  s             100.0       0.0       0.0       0.0       0.0       0.0
14 P  s               0.0       0.0     100.0       0.0       0.0       0.0
15 S  s               0.0     100.0       0.0       0.0       0.0       0.0
18 O  s               0.0       0.0       0.0       0.0       0.0      99.9

                      6         7         8         9        10        11   
                 -18.99473 -18.95583 -18.94532 -10.17573 -10.17151 -10.09753
                   2.00000   2.00000   2.00000   2.00000   2.00000   2.00000
                  --------  --------  --------  --------  --------  --------
 2 O  dxy             0.0       0.0       0.0       0.0       0.2       0.0
 3 C  s               0.0       0.0       0.0       0.0      98.9       0.0
 4 O  s               0.0       0.0      99.9       0.0       0.0       0.0
 4 O  py              0.0       0.0       0.0       0.0       0.2       0.0
 4 O  dyz             0.0       0.0       0.0       0.0       0.2       0.0
 4 O  dx2y2           0.0       0.0       0.0       0.0       0.1       0.0
 6 C  s               0.0       0.0       0.0       0.0       0.0      99.6
 8 C  s               0.0       0.0       0.0      98.8       0.0       0.0
 9 O  s               0.0      99.9       0.0       0.0       0.0       0.0
 9 O  px              0.0       0.0       0.0       0.2       0.0       0.0
[...]
34 H  s               0.4       0.0       0.0       0.0       0.0       0.0
34 H  pz              0.4       0.0       0.0       0.0       0.0       0.0
34 H  px              0.6       0.0       0.0       0.0       0.0       0.0

                    492       493       494       495       496       497   
                  18.93242  19.22038  21.96516  22.00314  22.01464  22.02635
                   0.00000   0.00000   0.00000   0.00000   0.00000   0.00000
                  --------  --------  --------  --------  --------  --------
 0 C  s               0.0       0.0      98.3       0.0       0.0       0.1
 1 C  s               0.0       0.0       1.0       0.0       0.3       2.6
 5 C  s               0.0       0.0       0.3       0.1       0.5       2.5
 6 C  s               0.0       0.4       0.0       1.0       1.7       0.0
 8 C  s               0.0       0.0       0.1       0.2       0.2       0.0
11 C  s               0.0       0.0       0.0       0.5       0.1       0.2
12 C  s               0.0       0.0       0.0      81.1      15.0       0.4
13 S  s               0.1      98.8       0.0       0.0       0.0       0.0
14 P  s               0.2       0.1       0.0       0.0       0.0       0.0
14 P  py              0.1       0.0       0.0       0.0       0.0       0.0
15 S  s              98.9       0.1       0.0       0.0       0.0       0.0
15 S  py              0.1       0.0       0.0       0.0       0.0       0.0
17 C  s               0.0       0.0       0.0       1.9      21.6      73.1
19 C  s               0.1       0.0       0.0      14.8      60.3      20.6

                    498       499       500       501       502       503   
                  22.04493  22.11615  22.14756  22.17161  22.35800  22.42134
                   0.00000   0.00000   0.00000   0.00000   0.00000   0.00000
                  --------  --------  --------  --------  --------  --------
 0 C  s               1.2       0.0       0.0       0.0       0.0       0.1
 1 C  s              77.7       5.1       1.8      11.0       0.0       0.0
 3 C  s               0.4       0.1       0.7       1.9      60.0      35.9
 4 O  s               0.0       0.0       0.0       0.0       0.1       0.1
 5 C  s              14.8      16.1       3.8      58.9       1.8       0.7
 6 C  s               0.3      19.9      55.2      21.1       0.0       0.2
 8 C  s               0.0       0.0       0.0       0.2      36.3      61.9
 9 O  s               0.0       0.0       0.0       0.0       0.1       0.2
 9 O  px              0.0       0.0       0.0       0.0       0.1       0.1
10 O  s               0.0       0.0       0.0       0.0       0.1       0.1
11 C  s               0.0      57.2      35.4       5.7       0.4       0.1
12 C  s               0.2       0.3       2.3       0.0       0.2       0.1
13 S  s               0.0       0.0       0.1       0.0       0.0       0.0
17 C  s               2.2       0.0       0.2       0.5       0.0       0.0
19 C  s               2.8       0.9       0.0       0.0       0.1       0.0

                    504       505       506       507       508       509   
                  43.72670  43.76829  43.77112  43.87519  43.89859  43.91847
                   0.00000   0.00000   0.00000   0.00000   0.00000   0.00000
                  --------  --------  --------  --------  --------  --------
 2 O  s              35.1       0.8       9.5      23.0      28.1       3.3
 4 O  s              21.8      14.8      21.2      31.0       9.4       1.6
 9 O  s              33.0      38.6      15.5       5.3       2.9       4.6
10 O  s               3.7       0.2       0.2      37.3      40.8      17.8
16 O  s               4.9      44.1      50.1       0.3       0.1       0.5
18 O  s               1.6       1.4       3.4       2.9      18.6      72.0



                      *****************************
                      * MAYER POPULATION ANALYSIS *
                      *****************************

  NA   - Mulliken gross atomic population
  ZA   - Total nuclear charge
  QA   - Mulliken gross atomic charge
  VA   - Mayer's total valence
  BVA  - Mayer's bonded valence
  FA   - Mayer's free valence

  ATOM       NA         ZA         QA         VA         BVA        FA
  0 C      6.4991     6.0000    -0.4991     3.8280     3.8280    -0.0000
  1 C      6.1402     6.0000    -0.1402     3.5902     3.5902    -0.0000
  2 O      8.1752     8.0000    -0.1752     1.9350     1.9350    -0.0000
  3 C      5.6340     6.0000     0.3660     3.8615     3.8615     0.0000
  4 O      8.4826     8.0000    -0.4826     1.9099     1.9099     0.0000
  5 C      6.4363     6.0000    -0.4363     3.7630     3.7630     0.0000
  6 C      5.9608     6.0000     0.0392     3.5807     3.5807     0.0000
  7 H      0.7330     1.0000     0.2670     0.9312     0.9312     0.0000
  8 C      5.7342     6.0000     0.2658     3.9980     3.9980     0.0000
  9 O      8.4498     8.0000    -0.4498     1.9220     1.9220     0.0000
 10 O      8.1212     8.0000    -0.1212     2.0383     2.0383    -0.0000
 11 C      6.1508     6.0000    -0.1508     3.6031     3.6031    -0.0000
 12 C      6.5035     6.0000    -0.5035     3.7993     3.7993     0.0000
 13 S     16.2047    16.0000    -0.2047     2.1313     2.1313     0.0000
 14 P     14.2009    15.0000     0.7991     5.0970     5.0970     0.0000
 15 S     16.5040    16.0000    -0.5040     2.0112     2.0112     0.0000
 16 O      8.3762     8.0000    -0.3762     1.8574     1.8574     0.0000
 17 C      6.3068     6.0000    -0.3068     3.7416     3.7416     0.0000
 18 O      8.3490     8.0000    -0.3490     1.8961     1.8961     0.0000
 19 C      6.2955     6.0000    -0.2955     3.7005     3.7005     0.0000
 20 H      0.8291     1.0000     0.1709     0.9582     0.9582    -0.0000
 21 H      0.8310     1.0000     0.1690     0.9564     0.9564     0.0000
 22 H      0.8317     1.0000     0.1683     0.9569     0.9569    -0.0000
 23 H      0.8256     1.0000     0.1744     0.9470     0.9470     0.0000
 24 H      0.8215     1.0000     0.1785     0.9555     0.9555    -0.0000
 25 H      0.7842     1.0000     0.2158     0.9433     0.9433     0.0000
 26 H      0.7754     1.0000     0.2246     0.9363     0.9363     0.0000
 27 H      0.8176     1.0000     0.1824     0.9473     0.9473    -0.0000
 28 H      0.8221     1.0000     0.1779     0.9528     0.9528     0.0000
 29 H      0.8264     1.0000     0.1736     0.9566     0.9566    -0.0000
 30 H      0.8283     1.0000     0.1717     0.9565     0.9565     0.0000
 31 H      0.8294     1.0000     0.1706     0.9577     0.9577    -0.0000
 32 H      0.8247     1.0000     0.1753     0.9494     0.9494    -0.0000
 33 H      0.8230     1.0000     0.1770     0.9528     0.9528    -0.0000
 34 H      0.8202     1.0000     0.1798     0.9492     0.9492     0.0000
 35 H      0.8151     1.0000     0.1849     0.9471     0.9471     0.0000
 36 H      0.8161     1.0000     0.1839     0.9486     0.9486    -0.0000
 37 H      0.8207     1.0000     0.1793     0.9520     0.9520     0.0000

  Mayer bond orders larger than 0.100000
B(  0-C ,  1-C ) :   0.9290 B(  0-C , 20-H ) :   0.9614 B(  0-C , 21-H ) :   0.9679 
B(  0-C , 22-H ) :   0.9697 B(  1-C ,  2-O ) :   0.7824 B(  1-C , 23-H ) :   0.9512 
B(  1-C , 24-H ) :   0.9646 B(  2-O ,  3-C ) :   1.1072 B(  3-C ,  4-O ) :   1.8106 
B(  3-C ,  5-C ) :   0.8912 B(  5-C ,  6-C ) :   0.8751 B(  5-C , 25-H ) :   0.9954 
B(  5-C , 26-H ) :   0.9284 B(  6-C ,  7-H ) :   0.8810 B(  6-C ,  8-C ) :   0.9494 
B(  6-C , 13-S ) :   0.8105 B(  8-C ,  9-O ) :   1.7609 B(  8-C , 10-O ) :   1.1976 
B( 10-O , 11-C ) :   0.7580 B( 11-C , 12-C ) :   0.9117 B( 11-C , 27-H ) :   0.9543 
B( 11-C , 28-H ) :   0.9544 B( 12-C , 29-H ) :   0.9608 B( 12-C , 30-H ) :   0.9712 
B( 12-C , 31-H ) :   0.9695 B( 13-S , 14-P ) :   0.9973 B( 14-P , 15-S ) :   1.7796 
B( 14-P , 16-O ) :   1.0420 B( 14-P , 18-O ) :   1.1480 B( 16-O , 17-C ) :   0.8232 
B( 17-C , 32-H ) :   0.9499 B( 17-C , 33-H ) :   0.9555 B( 17-C , 34-H ) :   0.9572 
B( 18-O , 19-C ) :   0.7873 B( 19-C , 35-H ) :   0.9520 B( 19-C , 36-H ) :   0.9544 
B( 19-C , 37-H ) :   0.9478 

-------
TIMINGS
-------

Total SCF time: 0 days 0 hours 1 min 43 sec 

Total time                  ....     103.979 sec
Sum of individual times     ....     103.944 sec  (100.0%)

SCF preparation             ....       1.892 sec  (  1.8%)
Fock matrix formation       ....      97.209 sec  ( 93.5%)
  Startup                   ....       0.019 sec  (  0.0% of F)
  Split-RI-J                ....      23.388 sec  ( 24.1% of F)
  XC integration            ....      44.718 sec  ( 46.0% of F)
    XC Preparation          ....       0.000 sec  (  0.0% of XC)
    Basis function eval.    ....       6.839 sec  ( 15.3% of XC)
    Density eval.           ....      18.100 sec  ( 40.5% of XC)
    XC-Functional eval.     ....       3.013 sec  (  6.7% of XC)
    XC-Potential eval.      ....      16.036 sec  ( 35.9% of XC)
  CPCM terms                ....      28.893 sec  ( 29.7% of F)
Diagonalization             ....       0.000 sec  (  0.0%)
Density matrix formation    ....       0.101 sec  (  0.1%)
Total Energy calculation    ....       0.016 sec  (  0.0%)
Population analysis         ....       3.706 sec  (  3.6%)
Orbital Transformation      ....       0.129 sec  (  0.1%)
Orbital Orthonormalization  ....       0.000 sec  (  0.0%)
DIIS solution               ....       0.785 sec  (  0.8%)
  MO trafo                  ....       0.000 sec  (  0.0 % of DIIS)
  Orb grad                  ....       0.000 sec  (  0.0 % of DIIS)
  Energy W gradient         ....       0.000 sec  (  0.0 % of DIIS)
  DIIS error                ....       0.125 sec  ( 16.0 % of DIIS)
  DIIS work                 ....       0.591 sec  ( 75.2 % of DIIS)
  Form Q                    ....       0.000 sec  (  0.0 % of DIIS)
  Form QpQm                 ....       0.000 sec  (  0.0 % of DIIS)
  Exp/Cayley                ....       0.000 sec  (  0.0 % of DIIS)
  Orb update                ....       0.000 sec  (  0.0 % of DIIS)
  Wake-sleep                ....       0.004 sec  (  0.5 % of DIIS)
SOSCF solution              ....       0.105 sec  (  0.1%)
  MO trafo                  ....       0.081 sec  ( 77.7 % of SOSCF)
  Orb grad                  ....       0.000 sec  (  0.3 % of SOSCF)
  Rot update                ....       0.000 sec  (  0.1 % of SOSCF)
  Step                      ....       0.023 sec  ( 21.7 % of SOSCF)
Finished LeanSCF after 109.1 sec

Maximum memory used throughout the entire LEANSCF-calculation: 114.3 MB


-------------------------------------------------------------------------------
                          DFT DISPERSION CORRECTION                            
                                                                               
                                DFTD4 V3.4.0                                   
-------------------------------------------------------------------------------
The R2SCAN3C composite method is recognized
Using three-body term ABC
Active option DFTDOPT                   ...         5   

-------------------------   ----------------
Dispersion correction           -0.017383253
-------------------------   ----------------

------------------   -----------------
gCP correction             0.037492071
------------------   -----------------

-------------------------   --------------------
FINAL SINGLE POINT ENERGY     -1981.468325706425
-------------------------   --------------------


------------------------------------------------------------------------------
                              ORCA PROPERTY CALCULATIONS
------------------------------------------------------------------------------

GBWName                                 ... sp_solv.gbw
Number of atoms                         ...     38
Number of basis functions               ...    510
Max core memory                         ...   1024 MB

Electric properties:
Dipole moment                           ... YES
Quadrupole moment                       ...  NO
Static polarizability (Dipole/Dipole)   ...  NO
Static polarizability (Dipole/Quad.)    ...  NO
Static polarizability (Quad./Quad.)     ...  NO
Static polarizability (Velocity)        ...  NO

Atomic electric properties:
Dipole moment                           ...  NO
Quadrupole moment                       ...  NO
Static polarizability                   ...  NO

Choice of electric origin               ... Center of mass
Position of electric origin             ...    -0.000001     0.000002     0.000003

General magnetic properties:
Magnetizability                         ...  NO

EPR properties:
g-Tensor (aka g-matrix)                 ...  NO
Zero-Field splitting spin-orbit         ...  NO
Zero-field splitting spin-spin          ...  NO
Hyperfine couplings                     ...  NO (   0 nuclei)
Quadrupole couplings                    ...  NO (   0 nuclei)
Contact density                         ...  NO (   0 nuclei)

NMR properties:
Chemical shifts                         ...  NO (   0 nuclei)
Spin-rotation constants                 ...  NO (   0 nuclei)
Spin-spin couplings                     ...  NO (   0 nuclei,    0 pairs)

Choice of magnetic origin               ... GIAO
Position of magnetic origin             ...     0.000000     0.000000     0.000000

Properties with geometric perturbations:
SCF Hessian                             ...  NO
IR spectrum                             ...  NO
VCD spectrum                            ...  NO
X-ray spectroscopy properties:
SCF XES/XAS/RIXS spectra                ...  NO


-------------
DIPOLE MOMENT
-------------

Method             : SCF
Type of density    : Electron Density
Multiplicity       :   1
Irrep              :   0
Energy             : -1981.4884345249045055 Eh
Relativity type    : 
Basis              : AO
                                X                 Y                 Z
Electronic contribution:    -13.914783282       0.037231269      -4.422193703
Nuclear contribution   :     12.864733543      -1.989705147       5.839901302
                        -----------------------------------------
Total Dipole Moment    :     -1.050049739      -1.952473878       1.417707600
                        -----------------------------------------
Magnitude (a.u.)       :      2.631473644
Magnitude (Debye)      :      6.688674445



--------------------
Rotational spectrum 
--------------------
 
Rotational constants in cm-1:             0.016605             0.005916             0.005219 
Rotational constants in MHz :           497.806916           177.367518           156.461813 

Dipole components along the rotational axes: 
x,y,z [a.u.] :    -0.697288     0.278240    -2.522107 
x,y,z [Debye]:    -1.772366     0.707229    -6.410687 

 

Dipole moment calculation done in   0.9 sec 

Maximum memory used throughout the entire PROP-calculation: 50.2 MB

--------------------------------
SUGGESTED CITATIONS FOR THIS RUN
--------------------------------

Below you find a list of papers that are relevant to this ORCA run
We neither can nor want to force you to cite these papers, but we appreciate if you do
You receive ORCA, which is the product of decades of hard work by many enthusiastic individuals, for free
The only thing we kindly ask in return is that you cite our papers,
We deeply appreciate it, if you show your appreciation for ORCA by not just citing the generic ORCA reference.

Please note that relegating all ORCA citations to the supporting information does *not* help us.
SI sections are not indexed - citations you put there will not count into any citation statistics
But we need these citations in order to attract the funding resources that allow us to do what we are doing

Therefore, if you are a happy ORCA user, please consider citing a few of the papers listed below in the main body of your paper

In addition to the list printed below, the program has created the file sp_solv.bibtex that contains the list in bibtex format
You can import this file easily into all common literature databanks and citation aid programs


List of essential papers. We consider these as the minimum necessary citations

  1. Neese,F.
     Software update: the ORCA program system, version 5.0
     WIRES Comput. Molec. Sci., 2022 12(1)e1606
     doi.org/10.1002/wcms.1606
  2. Grimme,S.; Hansen,A.; Ehlert,S.; Mewes,J.
     r2SCAN-3c: A 'Swiss army knife' composite electronic-structure method
     J. Chem. Phys., 2021 154 064103
     doi.org/10.1063/5.0040021

List of papers to cite with high priority. The work reported in these papers was absolutely
necessary for this run to complete.
Our perspective: the developers of density functionals and basis sets usually get cited in chemistry papers
Good! But without the algorithms to do something with them, the functionals or basis sets would not do anything.
Hence, in our opinion, the algorithm design and method developments papers are equally worthy of getting cited

  1. Neese,F.
     An improvement of the resolution of the identity approximation for the formation of the Coulomb matrix
     J. Comp. Chem., 2003 24(14)1740-1747
     doi.org/10.1002/jcc.10318
  2. Garcia-Rates,M.; Neese,F.
     Effect of the Solute Cavity on the Solvation Energy and its Derivatives within the Framework of the Gaussian Charge Scheme
     J. Comput. Chem., 2020 41 922-939
     doi.org/10.1002/jcc.26139
  3. Neese,F.
     The SHARK Integral Generation and Digestion System
     J. Comp. Chem., 2022  1-16
     doi.org/10.1002/jcc.26942
  4. Lehtola,S.; Steigemann,C.; Oliveira,M.; Marques,M.
     Recent developments in Libxc - A comprehensive library of functionals for density functional theory
     Software X, 2018 7 
     doi.org/10.1016/j.softx.2017.11.002
  5. Caldeweyher,E.; Bannwarth,C.; Grimme,S.
     Extension of the D3 dispersion coefficient model
     J. Chem. Phys., 2017 147 034112
     doi.org/10.1063/1.4993215
  6. Caldeweyher,E.; Ehlert,S.; Hansen,A.; Neugebauer,H.; Spicher,S.; Bannwarth,C.; Grimme,S.
     A generally applicable atomic-charge dependent London dispersion correction
     J. Chem. Phys., 2019 150 154122
     doi.org/10.1063/1.5090222
  7. Caldeweyher,E.; Mewes,J.; Ehlert,S.; Grimme,S.
     Extension and evaluation of the D4 London-dispersion model for periodic systems
     Phys. Chem. Chem. Phys., 2020 22(16)8499-8512
     doi.org/10.1039/D0CP00502A
  8. Wittmann,L.; Gordiy,I.; Friede,M.; Helmich-Paris,B.; Grimme,S.; Hansen,A.; Bursch,M.
     Extension of the D3 and D4 London Dispersion Corrections to the full Actinides Series
     Phys. Chem. Chem. Phys., 2024 26(32)21379-21394
     doi.org/https://doi.org/10.1039/D4CP01514B 

List of suggested additional citations. These are papers that are important in the 'surrounding' of 
of this run, or papers that preceded the highly important papers. If you like your results we are grateful for a citation.

  1. Neese,F.
     The ORCA program system
     WIRES Comput. Molec. Sci., 2012 2(1)73-78
     doi.org/10.1002/wcms.81
  2. Neese,F.
     Software update: the ORCA program system, version 4.0
     WIRES Comput. Molec. Sci., 2018 8(1)1-6
     doi.org/10.1002/wcms.1327
  3. Neese,F.; Wennmohs,F.; Becker,U.; Riplinger,C.
     The ORCA quantum chemistry program package
     J. Chem. Phys., 2020 152 Art. No. L224108
     doi.org/10.1063/5.0004608

List of optional additional citations

  1. Neese,F.
     Approximate second-order SCF convergence for spin unrestricted wavefunctions
     Chem. Phys. Lett., 2000 325(1-3)93-98
     doi.org/10.1016/s0009-2614(00)00662-x

Timings for individual modules:

Sum of individual times          ...      112.993 sec (=   1.883 min)
Startup calculation              ...        2.589 sec (=   0.043 min)   2.3 %
SCF iterations                   ...      109.362 sec (=   1.823 min)  96.8 %
Property calculations            ...        1.042 sec (=   0.017 min)   0.9 %
                             ****ORCA TERMINATED NORMALLY****
TOTAL RUN TIME: 0 days 0 hours 2 minutes 0 seconds 665 msec
