
                                 *****************
                                 * O   R   C   A *
                                 *****************

                                            #,                                       
                                            ###                                      
                                            ####                                     
                                            #####                                    
                                            ######                                   
                                           ########,                                 
                                     ,,################,,,,,                         
                               ,,#################################,,                 
                          ,,##########################################,,             
                       ,#########################################, ''#####,          
                    ,#############################################,,   '####,        
                  ,##################################################,,,,####,       
                ,###########''''           ''''###############################       
              ,#####''   ,,,,##########,,,,          '''####'''          '####       
            ,##' ,,,,###########################,,,                        '##       
           ' ,,###''''                  '''############,,,                           
         ,,##''                                '''############,,,,        ,,,,,,###''
      ,#''                                            '''#######################'''  
     '                                                          ''''####''''         
             ,#######,   #######,   ,#######,      ##                                
            ,#'     '#,  ##    ##  ,#'     '#,    #''#        ,####,   ,####,        
            ##       ##  ##   ,#'  ##            #'  '#       #'       #'  '#        
            ##       ##  #######   ##           ,######,      #####,   #    #        
            '#,     ,#'  ##    ##  '#,     ,#' ,#      #,     #,   #   #,  ,#        
             '#######'   ##     ##  '#######'  #'      '#     '####' # '####'        



                #########################################################
                #                        -***-                          #
                #          Department of theory and spectroscopy        #
                #                                                       #
                #                      Frank Neese                      #
                #                                                       #
                #     Directorship, Architecture, Infrastructure        #
                #                    SHARK, DRIVERS                     #
                #        Core code/Algorithms in most modules           #
                #                                                       #
                #        Max Planck Institute fuer Kohlenforschung      #
                #                Kaiser Wilhelm Platz 1                 #
                #                 D-45470 Muelheim/Ruhr                 #
                #                      Germany                          #
                #                                                       #
                #                  All rights reserved                  #
                #                        -***-                          #
                #########################################################


                         Program Version 6.0.0  -   RELEASE  -


 With contributions from (in alphabetic order):
   Daniel Aravena         : Magnetic Suceptibility
   Michael Atanasov       : Ab Initio Ligand Field Theory (pilot matlab implementation)
   Alexander A. Auer      : GIAO ZORA, VPT2 properties, NMR spectrum
   Ute Becker             : All parallelization in ORCA, NUMFREQ, NUMCALC
   Giovanni Bistoni       : ED, misc. LED, open-shell LED, HFLD
   Martin Brehm           : Molecular dynamics
   Dmytro Bykov           : pre 5.0 version of the SCF Hessian
   Marcos Casanova-Páez   : Triplet and SCS-CIS(D). UHF-(DLPNO)-IP/EA/STEOM-CCSD. UHF-CVS-IP/STEOM-CCSD
   Vijay G. Chilkuri      : MRCI spin determinant printing, contributions to CSF-ICE
   Pauline Colinet        : FMM embedding
   Dipayan Datta          : RHF DLPNO-CCSD density
   Achintya Kumar Dutta   : EOM-CC, STEOM-CC
   Nicolas Foglia         : Exact transition moments, OPA infrastructure, MCD improvements
   Dmitry Ganyushin       : Spin-Orbit,Spin-Spin,Magnetic field MRCI
   Miquel Garcia          : C-PCM and meta-GGA Hessian, CCSD/C-PCM, Gaussian charge scheme
   Tiago L. C. Gouveia    : GS-ROHF, GS-ROCIS
   Yang Guo               : DLPNO-NEVPT2, F12-NEVPT2, CIM, IAO-localization
   Andreas Hansen         : Spin unrestricted coupled pair/coupled cluster methods
   Ingolf Harden          : AUTO-CI MPn and infrastructure 
   Benjamin Helmich-Paris : MC-RPA, TRAH-(SCF,CASSCF), AVAS, COSX integrals, SCF dyn. polar.
   Lee Huntington         : MR-EOM, pCC
   Robert Izsak           : Overlap fitted RIJCOSX, COSX-SCS-MP3, EOM
   Riya Kayal             : Wick's Theorem for AUTO-CI, AUTO-CI UHF-CCSDT
   Emily Kempfer          : AUTO-CI, RHF CISDT and CCSDT
   Christian Kollmar      : KDIIS, OOCD, Brueckner-CCSD(T), CCSD density, CASPT2, CASPT2-K, improved NEVPT2
   Axel Koslowski         : Symmetry handling
   Simone Kossmann        : Meta GGA functionals, TD-DFT gradient, OOMP2, (MP2 Hessian; deprecated post 5.0)
   Lucas Lang             : DCDCAS
   Marvin Lechner         : AUTO-CI (C++ implementation), FIC-MRCC
   Spencer Leger          : CASSCF response
   Dagmar Lenk            : GEPOL surface, SMD, ORCA-2-JSON
   Dimitrios Liakos       : Extrapolation schemes; Compound Job, initial MDCI parallelization
   Dimitrios Manganas     : Further ROCIS development; embedding schemes. LFT, Crystal Embedding
   Dimitrios Pantazis     : SARC Basis sets
   Anastasios Papadopoulos: AUTO-CI, single reference methods and gradients
   Taras Petrenko         : pre 6.0 DFT Hessian and TD-DFT gradient, (ASA, deprecated), ECA, 1-Electron XAS/XES, NRVS
   Peter Pinski           : DLPNO-MP2, DLPNO-MP2 Gradient
   Christoph Reimann      : Effective Core Potentials
   Marius Retegan         : Local ZFS, SOC
   Christoph Riplinger    : Optimizer, TS searches, QM/MM, DLPNO-CCSD(T), (RO)-DLPNO pert. Triples
   Michael Roemelt        : Original ROCIS implementation
   Masaaki Saitow         : Open-shell DLPNO-CCSD energy and density
   Barbara Sandhoefer     : DKH picture change effects
   Kantharuban Sivalingam : CASSCF convergence/infrastructure, NEVPT2 and variants, FIC-MRCI
   Bernardo de Souza      : ESD, SOC TD-DFT
   Georgi Stoychev        : AutoAux, RI-MP2 NMR, DLPNO-MP2 response, X2C
   Van Anh Tran           : RI-MP2 g-tensors
   Willem Van den Heuvel  : Paramagnetic NMR
   Zikuan Wang            : NOTCH, Electric field optimization 
   Frank Wennmohs         : Technical directorship and infrastructure
   Hang Xu                : AUTO-CI-Response properties 


 We gratefully acknowledge several colleagues who have allowed us to
 interface, adapt or use parts of their codes:
   Stefan Grimme, W. Hujo, H. Kruse, P. Pracht,  : VdW corrections, initial TS optimization,
                  C. Bannwarth, S. Ehlert,         DFT functionals, gCP, sTDA/sTD-DF
                  L. Wittmann, M. Mueller
   Ed Valeev, F. Pavosevic, A. Kumar             : LibInt (2-el integral package), F12 methods
   Garnet Chan, S. Sharma, J. Yang, R. Olivares  : DMRG
   Ulf Ekstrom                                   : XCFun DFT Library
   Mihaly Kallay                                 : mrcc  (arbitrary order and MRCC methods)
   Frank Weinhold                                : gennbo (NPA and NBO analysis)
   Simon Mueller                                 : openCOSMO-RS
   Christopher J. Cramer and Donald G. Truhlar   : smd solvation model
   Lars Goerigk                                  : TD-DFT with DH, B97 family of functionals
   V. Asgeirsson, H. Jonsson                     : NEB implementation
   FAccTs GmbH                                   : IRC, NEB, NEB-TS, DLPNO-Multilevel, CI-OPT
                                                   MM, QMMM, 2- and 3-layer-ONIOM, Crystal-QMMM,
                                                   LR-CPCM, SF, NACMEs, symmetry and pop. for TD-DFT,
                                                   nearIR, NL-DFT gradient (VV10), updates on ESD,
                                                   ML-optimized integration grids, MBIS, APM,
                                                   GOAT, DOCKER, SOLVATOR, interface openCOSMO-RS
   S Lehtola, MJT Oliveira, MAL Marques          : LibXC Library
   Liviu Ungur et al                             : ANISO software


 Your calculation uses the libint2 library for the computation of 2-el integrals
 For citations please refer to: http://libint.valeyev.net

 Your ORCA version has been built with support for libXC version: 6.2.2
 For citations please refer to: https://libxc.gitlab.io

 This ORCA versions uses:
   CBLAS   interface :  Fast vector & matrix operations
   LAPACKE interface :  Fast linear algebra routines
   SCALAPACK package :  Parallel linear algebra routines
   Shared memory     :  Shared parallel matrices
   BLAS/LAPACK       :  OpenBLAS 0.3.27  USE64BITINT DYNAMIC_ARCH NO_AFFINITY SkylakeX SINGLE_THREADED
        Core in use  :  SkylakeX
   Copyright (c) 2011-2014, The OpenBLAS Project


Your calculation utilizes the geometrical counterpoise correction gCP
Please cite in your paper:
H.Kruse, S. Grimme J.Chem.Phys., 136, (2012), 154101 
   

Your calculation utilizes the DFT-NL dispersion correction.
Cite in your paper:
Vydrov, O. A.; Van Voorhis, T. J. Chem. Phys. 2010, 133, 244103
Hujo, W.; Grimme, S. J. Chem. Theory Comput. 2011, 7, 3866 
   

Your calculation utilizes the SMD solvation module
Please cite in your paper:
A.V. Marenich, C.J. Cramer, D.G. Truhlar J. Phys. Chem. B, 113, (2009), 6378 

================================================================================

----- Orbital basis set information -----
Your calculation utilizes the basis: def2-TZVP
   F. Weigend and R. Ahlrichs, Phys. Chem. Chem. Phys. 7, 3297 (2005).

----- AuxJ basis set information -----
Your calculation utilizes the auxiliary basis: def2/J
   F. Weigend, Phys. Chem. Chem. Phys. 8, 1057 (2006).

================================================================================
                                        WARNINGS
                       Please study these warnings very carefully!
================================================================================


================================================================================
                                       INPUT FILE
================================================================================
NAME = sp_solv.inp
|  1> ! wb97x-v def2-tzvp def2/J RIJCOSX DEFGRID2 scfconv7 GCP(DFT/TZ) printgap
|  2> %output
|  3>     printlevel normal
|  4> end
|  5> %cpcm
|  6>     smd true
|  7>     smdsolvent "water"
|  8> end
|  9> * xyz 0 1
| 10> C -1.8699262380556891 -1.4092693422916809 -0.006783069037818652
| 11> C -0.5482532561647917 -0.697484510554381 -0.0022926220163042798
| 12> C 0.6536749790700856 -1.4042132798505242 -0.00011453931770539537
| 13> C 1.8898265959844123 -0.75888939871616 -0.0011365497219019798
| 14> C 1.9244171259284928 0.6337508919281046 -0.002883274836018873
| 15> C 0.741085614488925 1.3629739292596021 -0.0024072506959429865
| 16> C -0.5021888503084985 0.7141821029828158 -0.00470412756964786
| 17> N -1.6788080939812613 1.4558570875211865 -0.07251979633145433
| 18> H -1.7249352871130443 -2.4916687174681957 -0.02982711472244916
| 19> H -2.463426064528914 -1.1696046382921663 0.8851781268836777
| 20> H -2.476123963002856 -1.1282081588125024 -0.8767124099261507
| 21> H 0.614303238362551 -2.4906254144560136 0.0026541344221956303
| 22> H 2.808970818809966 -1.3356294474428303 0.0003854357226201425
| 23> H 2.8750146304995425 1.1587905172086261 5.5296549517027856e-05
| 24> H 0.7685569849331542 2.4497083104908146 -0.0007432398062495558
| 25> H -1.5819820359041628 2.411074835503564 0.2418054027605004
| 26> H -2.4901472584174917 1.0091173471329595 0.3305542715176745
| 27> *
| 28> 
| 29>                          ****END OF INPUT****
================================================================================

                       ****************************
                       * Single Point Calculation *
                       ****************************

---------------------------------
CARTESIAN COORDINATES (ANGSTROEM)
---------------------------------
  C     -1.869926   -1.409269   -0.006783
  C     -0.548253   -0.697485   -0.002293
  C      0.653675   -1.404213   -0.000115
  C      1.889827   -0.758889   -0.001137
  C      1.924417    0.633751   -0.002883
  C      0.741086    1.362974   -0.002407
  C     -0.502189    0.714182   -0.004704
  N     -1.678808    1.455857   -0.072520
  H     -1.724935   -2.491669   -0.029827
  H     -2.463426   -1.169605    0.885178
  H     -2.476124   -1.128208   -0.876712
  H      0.614303   -2.490625    0.002654
  H      2.808971   -1.335629    0.000385
  H      2.875015    1.158791    0.000055
  H      0.768557    2.449708   -0.000743
  H     -1.581982    2.411075    0.241805
  H     -2.490147    1.009117    0.330554

----------------------------
CARTESIAN COORDINATES (A.U.)
----------------------------
  NO LB      ZA    FRAG     MASS         X           Y           Z
   0 C     6.0000    0    12.011   -3.533648   -2.663133   -0.012818
   1 C     6.0000    0    12.011   -1.036049   -1.318055   -0.004332
   2 C     6.0000    0    12.011    1.235267   -2.653579   -0.000216
   3 C     6.0000    0    12.011    3.571255   -1.434093   -0.002148
   4 C     6.0000    0    12.011    3.636621    1.197616   -0.005449
   5 C     6.0000    0    12.011    1.400449    2.575647   -0.004549
   6 C     6.0000    0    12.011   -0.948999    1.349609   -0.008890
   7 N     7.0000    0    14.007   -3.172488    2.751171   -0.137043
   8 H     1.0000    0     1.008   -3.259655   -4.708571   -0.056365
   9 H     1.0000    0     1.008   -4.655201   -2.210232    1.672744
  10 H     1.0000    0     1.008   -4.679196   -2.132004   -1.656746
  11 H     1.0000    0     1.008    1.160865   -4.706600    0.005016
  12 H     1.0000    0     1.008    5.308186   -2.523974    0.000728
  13 H     1.0000    0     1.008    5.432990    2.189797    0.000104
  14 H     1.0000    0     1.008    1.452362    4.629278   -0.001405
  15 H     1.0000    0     1.008   -2.989513    4.556271    0.456946
  16 H     1.0000    0     1.008   -4.705696    1.906955    0.624657

--------------------------------
INTERNAL COORDINATES (ANGSTROEM)
--------------------------------
 C      0   0   0     0.000000000000     0.00000000     0.00000000
 C      1   0   0     1.501158646468     0.00000000     0.00000000
 C      2   1   0     1.394310503457   121.24015284     0.00000000
 C      3   2   1     1.394458596039   121.97803968   179.74844936
 C      4   3   2     1.393070900901   118.98933195     0.07286744
 C      5   4   3     1.389978392185   120.22039416     0.05635243
 C      6   5   4     1.402379229846   120.79923078   359.78448384
 N      7   6   5     1.392520589507   120.18320785   183.25376934
 H      1   2   3     1.092310309060   110.67402769   358.77191230
 H      1   2   3     1.097850622533   111.71711179   118.86787760
 H      1   2   3     1.096926674271   111.55772215   238.37791358
 H      3   2   1     1.087128845050   118.37997137   359.73633528
 H      4   3   2     1.085107138765   120.32616531   180.01406440
 H      5   4   3     1.085960799943   120.33545863   179.77012086
 H      6   5   4     1.087082821351   120.19520825   179.81537667
 H      8   7   6     1.010255691579   114.04546693   337.20781218
 H      8   7   6     1.010107093116   115.06807154   206.12062796

---------------------------
INTERNAL COORDINATES (A.U.)
---------------------------
 C      0   0   0     0.000000000000     0.00000000     0.00000000
 C      1   0   0     2.836778725393     0.00000000     0.00000000
 C      2   1   0     2.634864997183   121.24015284     0.00000000
 C      3   2   1     2.635144851606   121.97803968   179.74844936
 C      4   3   2     2.632522487837   118.98933195     0.07286744
 C      5   4   3     2.626678493297   120.22039416     0.05635243
 C      6   5   4     2.650112680309   120.79923078   359.78448384
 N      7   6   5     2.631482550015   120.18320785   183.25376934
 H      1   2   3     2.064167337383   110.67402769   358.77191230
 H      1   2   3     2.074637012543   111.71711179   118.86787760
 H      1   2   3     2.072891003366   111.55772215   238.37791358
 H      3   2   1     2.054375789430   118.37997137   359.73633528
 H      4   3   2     2.050555318229   120.32616531   180.01406440
 H      5   4   3     2.052168504067   120.33545863   179.77012086
 H      6   5   4     2.054288817244   120.19520825   179.81537667
 H      8   7   6     1.909106582319   114.04546693   337.20781218
 H      8   7   6     1.908825771920   115.06807154   206.12062796

---------------------
BASIS SET INFORMATION
---------------------
There are 3 groups of distinct atoms

 Group   1 Type C   : 11s6p2d1f contracted to 5s3p2d1f pattern {62111/411/11/1}
 Group   2 Type N   : 11s6p2d1f contracted to 5s3p2d1f pattern {62111/411/11/1}
 Group   3 Type H   : 5s1p contracted to 3s1p pattern {311/1}

Atom   0C    basis set group =>   1
Atom   1C    basis set group =>   1
Atom   2C    basis set group =>   1
Atom   3C    basis set group =>   1
Atom   4C    basis set group =>   1
Atom   5C    basis set group =>   1
Atom   6C    basis set group =>   1
Atom   7N    basis set group =>   2
Atom   8H    basis set group =>   3
Atom   9H    basis set group =>   3
Atom  10H    basis set group =>   3
Atom  11H    basis set group =>   3
Atom  12H    basis set group =>   3
Atom  13H    basis set group =>   3
Atom  14H    basis set group =>   3
Atom  15H    basis set group =>   3
Atom  16H    basis set group =>   3
---------------------------------
AUXILIARY/J BASIS SET INFORMATION
---------------------------------
There are 3 groups of distinct atoms

 Group   1 Type C   : 12s5p4d2f1g contracted to 6s4p3d1f1g pattern {711111/2111/211/2/1}
 Group   2 Type N   : 12s5p4d2f1g contracted to 6s4p3d1f1g pattern {711111/2111/211/2/1}
 Group   3 Type H   : 5s2p1d contracted to 3s1p1d pattern {311/2/1}

Atom   0C    basis set group =>   1
Atom   1C    basis set group =>   1
Atom   2C    basis set group =>   1
Atom   3C    basis set group =>   1
Atom   4C    basis set group =>   1
Atom   5C    basis set group =>   1
Atom   6C    basis set group =>   1
Atom   7N    basis set group =>   2
Atom   8H    basis set group =>   3
Atom   9H    basis set group =>   3
Atom  10H    basis set group =>   3
Atom  11H    basis set group =>   3
Atom  12H    basis set group =>   3
Atom  13H    basis set group =>   3
Atom  14H    basis set group =>   3
Atom  15H    basis set group =>   3
Atom  16H    basis set group =>   3

Checking for AutoStart:
The File: sp_solv.gbw exists
Trying to determine its content:
     ... Fine, the file contains calculation information
     ... Fine, the calculation information was read
     ... Fine, the file contains a basis set
     ... Fine, the basis set was read
     ... Fine, the file contains a geometry
     ... Fine, the geometry was read
     ... Fine, the file contains a set of orbitals
     ... Fine, the orbitals can be read
     => possible old guess file was deleted
     => GBW file was renamed to GES file
     => GES file is set as startup file
     => Guess is set to MORead
     ... now leaving AutoStart

------------------------------------------------------------------------------
                             ORCA STARTUP CALCULATIONS
                           -- RI-GTO INTEGRALS CHOSEN --
------------------------------------------------------------------------------
------------------------------------------------------------------------------
                   ___                                                        
                  /   \      - P O W E R E D   B Y -                         
                 /     \                                                     
                 |  |  |   _    _      __       _____    __    __             
                 |  |  |  | |  | |    /  \     |  _  \  |  |  /  |          
                  \  \/   | |  | |   /    \    | | | |  |  | /  /          
                 / \  \   | |__| |  /  /\  \   | |_| |  |  |/  /          
                |  |  |   |  __  | /  /__\  \  |    /   |      \           
                |  |  |   | |  | | |   __   |  |    \   |  |\   \          
                \     /   | |  | | |  |  |  |  | |\  \  |  | \   \       
                 \___/    |_|  |_| |__|  |__|  |_| \__\ |__|  \__/        
                                                                              
                      - O R C A' S   B I G   F R I E N D -                    
                                      &                                       
                       - I N T E G R A L  F E E D E R -                       
                                                                              
 v1 FN, 2020, v2 2021, v3 2022-2024                                           
------------------------------------------------------------------------------


----------------------
SHARK INTEGRAL PACKAGE
----------------------

Number of atoms                             ...     17
Number of basis functions                   ...    302
Number of shells                            ...    124
Maximum angular momentum                    ...      3
Integral batch strategy                     ... SHARK/LIBINT Hybrid
RI-J (if used) integral strategy            ... SPLIT-RIJ (Revised 2003 algorithm where possible)
Printlevel                                  ...      1
Contraction scheme used                     ... SEGMENTED contraction
Prescreening option                         ... SCHWARTZ
   Thresh                                   ... 3.000e-11
   Tcut                                     ... 1.000e-12
   Tpresel                                  ... 1.000e-12 
Coulomb Range Separation                    ... NOT USED
Exchange Range Separation                   ... Long Range
   Mu parameter                             ... 3.000e-01
   Scaling (regular/separated)              ... 1.670e-01 8.330e-01
Multipole approximations                    ... NOT USED
Finite Nucleus Model                        ... NOT USED
CABS basis                                  ... NOT available
Auxiliary Coulomb fitting basis             ... AVAILABLE
   # of basis functions in Aux-J            ...    491
   # of shells in Aux-J                     ...    165
   Maximum angular momentum in Aux-J        ...      4
Auxiliary J/K fitting basis                 ... NOT available
Auxiliary Correlation fitting basis         ... NOT available
Auxiliary 'external' fitting basis          ... NOT available

Checking pre-screening integrals            ... done (  0.0 sec) Dimension = 124
Check shell pair data                       ... done (  0.0 sec)
Shell pair information
Shell pair cut-off parameter TPreSel        ...   1.0e-12
Total number of shell pairs                 ...      7750
Shell pairs after pre-screening             ...      7221
Total number of primitive shell pairs       ...     23208
Primitive shell pairs kept                  ...     16471
          la=0 lb=0:   2031 shell pairs
          la=1 lb=0:   2059 shell pairs
          la=1 lb=1:    535 shell pairs
          la=2 lb=0:   1021 shell pairs
          la=2 lb=1:    514 shell pairs
          la=2 lb=2:    134 shell pairs
          la=3 lb=0:    503 shell pairs
          la=3 lb=1:    260 shell pairs
          la=3 lb=2:    128 shell pairs
          la=3 lb=3:     36 shell pairs

Calculating one electron integrals          ... done (  0.0 sec)
Calculating RI/J V-Matrix + Cholesky decomp.... done (  0.1 sec)
Calculating Nuclear repulsion               ... done (  0.0 sec) ENN=    348.341721039799 Eh

Diagonalization of the overlap matrix:
Smallest eigenvalue                        ... 8.144e-06
Time for diagonalization                   ...    0.009 sec
Threshold for overlap eigenvalues          ... 1.000e-07
Number of eigenvalues below threshold      ... 0
Time for construction of square roots      ...    0.018 sec
Total time needed                          ...    0.038 sec

-------------------
DFT GRID GENERATION
-------------------

General Integration Accuracy     IntAcc      ... 4.388
Radial Grid Type                 RadialGrid  ... OptM3 with GC (2021)
Angular Grid (max. ang.)         AngularGrid ... 4 (Lebedev-302)
Angular grid pruning method      GridPruning ... 4 (adaptive)
Weight generation scheme         WeightScheme... mBecke (2022)
Basis function cutoff            BFCut       ... 1.0000e-11
Integration weight cutoff        WCut        ... 1.0000e-14
Partially contracted basis set               ... off
Rotationally invariant grid construction     ... off
Angular grids for H and He will be reduced by one unit

Total number of grid points                  ...    76947
Total number of batches                      ...     1213
Average number of points per batch           ...       63
Average number of grid points per atom       ...     4526

--------------------
COSX GRID GENERATION
--------------------

GRIDX 1
-------
General Integration Accuracy     IntAcc      ... 3.816
Radial Grid Type                 RadialGrid  ... OptM3 with GC (2021)
Angular Grid (max. ang.)         AngularGrid ... 1 (Lebedev-50)
Angular grid pruning method      GridPruning ... 4 (adaptive)
Weight generation scheme         WeightScheme... mBecke (2022)
Basis function cutoff            BFCut       ... 1.0000e-11
Integration weight cutoff        WCut        ... 1.0000e-14
Partially contracted basis set               ... on
Rotationally invariant grid construction     ... off
Angular grids for H and He will be reduced by one unit

Total number of grid points                  ...     9873
Total number of batches                      ...       87
Average number of points per batch           ...      113
Average number of grid points per atom       ...      581
UseSFitting                                  ... on

GRIDX 2
-------
General Integration Accuracy     IntAcc      ... 4.020
Radial Grid Type                 RadialGrid  ... OptM3 with GC (2021)
Angular Grid (max. ang.)         AngularGrid ... 2 (Lebedev-110)
Angular grid pruning method      GridPruning ... 4 (adaptive)
Weight generation scheme         WeightScheme... mBecke (2022)
Basis function cutoff            BFCut       ... 1.0000e-11
Integration weight cutoff        WCut        ... 1.0000e-14
Partially contracted basis set               ... on
Rotationally invariant grid construction     ... off
Angular grids for H and He will be reduced by one unit

Total number of grid points                  ...    21167
Total number of batches                      ...      174
Average number of points per batch           ...      121
Average number of grid points per atom       ...     1245
UseSFitting                                  ... on

GRIDX 3
-------
General Integration Accuracy     IntAcc      ... 4.338
Radial Grid Type                 RadialGrid  ... OptM3 with GC (2021)
Angular Grid (max. ang.)         AngularGrid ... 3 (Lebedev-194)
Angular grid pruning method      GridPruning ... 4 (adaptive)
Weight generation scheme         WeightScheme... mBecke (2022)
Basis function cutoff            BFCut       ... 1.0000e-11
Integration weight cutoff        WCut        ... 1.0000e-14
Partially contracted basis set               ... on
Rotationally invariant grid construction     ... off
Angular grids for H and He will be reduced by one unit

Total number of grid points                  ...    46412
Total number of batches                      ...      372
Average number of points per batch           ...      124
Average number of grid points per atom       ...     2730
UseSFitting                                  ... on
Initializing property integral containers    ... done (  0.0 sec)

SHARK setup successfully completed in   3.1 seconds

Maximum memory used throughout the entire STARTUP-calculation: 45.0 MB
-------------------------------------------------------------------------------
                                 ORCA GUESS
                   Start orbitals & Density for SCF / CASSCF
-------------------------------------------------------------------------------

------------
SCF SETTINGS
------------
Hamiltonian:
 Density Functional     Method          .... DFT(GTOs)
 Exchange Functional    Exchange        .... WB97X-V
 Correlation Functional Correlation     .... WB97X-V
 Gradients option       PostSCFGGA      .... off
 Hybrid DFT is turned on
   Fraction HF Exchange ScalHFX         ....  0.167000
   Scaling of DF-GGA-X  ScalDFX         ....  0.000000
   Scaling of DF-GGA-C  ScalDFC         ....  1.000000
   Scaling of DF-LDA-C  ScalLDAC        ....  1.000000
   Perturbative correction              ....  0.000000
 Long-range corrected/Screened/Range-Separated Hybrid DFT is turned on
   Amount of maximum screened exact exchange              ....  0.833000
   Range separation parameter mu (erf(mu*r12)/r12)        ....  0.300000
   NL short-range parameter             ....  6.000000
   NL long-range parameter              ....  0.010000
 RI-approximation to the Coulomb term is turned on
   Number of AuxJ basis functions       .... 491
   RIJ-COSX (HFX calculated with COS-X)).... on


General Settings:
 Integral files         IntName         .... sp_solv
 Hartree-Fock type      HFTyp           .... RHF
 Total Charge           Charge          ....    0
 Multiplicity           Mult            ....    1
 Number of Electrons    NEL             ....   58
 Basis Dimension        Dim             ....  302
 Nuclear Repulsion      ENuc            ....    348.3417210398 Eh

Convergence Acceleration:
 AO-DIIS                CNVDIIS         .... on
   Start iteration      DIISMaxIt       ....    12
   Startup error        DIISStart       ....  0.200000
   # of expansion vecs  DIISMaxEq       ....     5
   Bias factor          DIISBfac        ....   1.050
   Max. coefficient     DIISMaxC        ....  10.000
 MO-DIIS                CNVKDIIS        .... off
 Trust-Rad. Augm. Hess. CNVTRAH         .... auto
   Auto Start mean grad. ratio tolernc. ....  1.125000
   Auto Start start iteration           ....     1
   Auto Start num. interpolation iter.  ....    10
   Max. Number of Micro iterations      ....    24
   Max. Number of Macro iterations      .... Maxiter - #DIIS iter
   Number of Davidson start vectors     ....     2
   Converg. threshold    (grad. norm)   ....   1.000e-04
   Grad. Scal. Fac. for Micro threshold ....   0.100
   Minimum threshold for Micro iter.    ....   1.000e-02
   NR start threshold (gradient norm)   ....   1.000e-04
   Initial trust radius                 ....   0.400
   Minimum AH scaling param. (alpha)    ....   1.000
   Maximum AH scaling param. (alpha)    .... 1000.000
   Quad. conv. algorithm                .... NR
   White noise on init. David. guess    .... on
   Maximum white noise                  ....   0.010
   Pseudo random numbers                .... off
   Inactive MOs                         .... canonical
   Orbital update algorithm             .... Taylor
   Preconditioner                       .... Diag
   Full preconditioner red. dimension   ....   250
 SOSCF                  CNVSOSCF        .... on
   Start iteration      SOSCFMaxIt      ....   150
   Startup grad/error   SOSCFStart      ....  0.003300
   Hessian update       SOSCFHessUp     .... L-BFGS
 Level Shifting         CNVShift        .... on
   Level shift para.    LevelShift      ....    0.2500
   Turn off err/grad.   ShiftErr        ....    0.0010
 Zerner damping         CNVZerner       .... off
 Static damping         CNVDamp         .... on
   Fraction old density DampFac         ....    0.7000
   Max. Damping (<1)    DampMax         ....    0.9800
   Min. Damping (>=0)   DampMin         ....    0.0000
   Turn off err/grad.   DampErr         ....    0.1000

SCF Procedure:
 Maximum # iterations   MaxIter         ....   125
 SCF integral mode      SCFMode         .... Direct
   Integral package                     .... SHARK and LIBINT hybrid scheme
 Reset frequency        DirectResetFreq ....    20
 Integral Threshold     Thresh          ....  3.000e-11 Eh
 Primitive CutOff       TCut            ....  1.000e-12 Eh

Convergence Tolerance:
 Convergence Check Mode ConvCheckMode   .... Total+1el-Energy
 Convergence forced     ConvForced      .... 0
 Energy Change          TolE            ....  1.000e-07 Eh
 1-El. energy change                    ....  1.000e-04 Eh
 Orbital Gradient       TolG            ....  1.000e-04
 Orbital Rotation angle TolX            ....  1.000e-04
 DIIS Error             TolErr          ....  1.000e-07

---------------------
INITIAL GUESS: MOREAD
---------------------
Guess MOs are being read from file: sp_solv.ges
Input Geometry matches current geometry (good)
Atom 0: N(Shells)= 11 and 9 - projection required
Input basis set needs projection
NBasis(read)= 202
NBasis(calc)= 302
Basis set overlap was calculated
Using GuessMode=FMatrix for the initial guess
C*T matrix was formed
Effective Fockian was calculated
Effective Fockian was diagonalized
Initial density was built
                      ------------------
                      INITIAL GUESS DONE (   0.1 sec)
                      ------------------
             **** ENERGY FILE WAS UPDATED (sp_solv.en.tmp) ****
Finished Guess after   0.4 sec
Maximum memory used throughout the entire GUESS-calculation: 27.7 MB

-------------------------------------------------------------------------------------------
                                      ORCA LEAN-SCF
                              memory conserving SCF solver
-------------------------------------------------------------------------------------------

--------------------
CPCM SOLVATION MODEL
--------------------
CPCM parameters:
  Epsilon                                         ...      78.3550
  Refrac                                          ...       1.3328
  Rsolv                                           ...       1.3000
  Surface type                                    ... GAUSSIAN VDW
  Discretization scheme                           ... Constant charge density
    Threshold for H atoms                         ...       5.0000 (charges/Ang^2)
    Threshold for non-H atoms                     ...       5.0000 (charges/Ang^2)
  Epsilon function type                           ...         CPCM
Solvent:                                          ... WATER
SMD-CDS solvent descriptors:
  Soln                                            ...       1.3328
  Soln25                                          ...       1.3323
  Sola                                            ...       0.0000
  Solb                                            ...       0.0000
  Solg                                            ...       0.0000
  Solc                                            ...       0.0000
  Solh                                            ...       0.0000
Radii:
  Scheme                                          ... Element-dependent radii
  Radius for C  used is    3.4960 Bohr (=   1.8500 Ang.)
  Radius for N  used is    3.5716 Bohr (=   1.8900 Ang.)
  Radius for H  used is    2.2677 Bohr (=   1.2000 Ang.)
Calculating surface                               ...        done! (  0.0s)
Cavity surface points                             ...         1312
Cavity Volume                                     ...     846.5093
Cavity Surface-area                               ...     522.7932
Calculating surface distance matrix               ...        done! (  0.0s)
Performing Cholesky decomposition & store         ...        done! (  0.1s)
Overall time for CPCM initialization              ...                 0.1s

----------------------------------------D-I-I-S--------------------------------------------
Iteration    Energy (Eh)           Delta-E    RMSDP     MaxDP     DIISErr   Damp  Time(sec)
-------------------------------------------------------------------------------------------
               ***  Starting incremental Fock matrix formation  ***
    1    -327.1609126137594785     0.00e+00  1.62e-03  5.55e-02  5.25e-02  0.700  22.0
    2    -327.1656085549816453    -4.70e-03  1.34e-03  4.26e-02  3.93e-02  0.700  10.9
                               ***Turning on AO-DIIS***
    3    -327.1691605619099619    -3.55e-03  1.08e-03  3.64e-02  2.87e-02  0.700  10.7
    4    -327.1717804007698760    -2.62e-03  2.66e-03  9.24e-02  2.04e-02  0.000  10.4
                              *** Initializing SOSCF ***
---------------------------------------S-O-S-C-F--------------------------------------
Iteration    Energy (Eh)           Delta-E    RMSDP     MaxDP     MaxGrad    Time(sec)
--------------------------------------------------------------------------------------
    5    -327.1784601154713528    -6.68e-03  1.45e-04  5.05e-03  1.86e-03    11.0
               *** Restarting incremental Fock matrix formation ***
    6    -327.1784765242072126    -1.64e-05  9.15e-05  3.40e-03  6.87e-04    20.9
    7    -327.1784850507413012    -8.53e-06  6.72e-05  2.69e-03  2.37e-04    16.0
    8    -327.1784866857253746    -1.63e-06  5.26e-06  1.98e-04  7.62e-05    15.7
    9    -327.1784868729409936    -1.87e-07  3.19e-06  1.12e-04  4.04e-05    14.1
   10    -327.1784869170676302    -4.41e-08  1.73e-06  5.02e-05  7.74e-06    13.3
                 **** Energy Check signals convergence ****

               *****************************************************
               *                     SUCCESS                       *
               *           SCF CONVERGED AFTER  10 CYCLES          *
               *****************************************************


------------------
NL GRID GENERATION
------------------

General Integration Accuracy     IntAcc      ... 4.004
Radial Grid Type                 RadialGrid  ... OptM3 with GC (2021)
Angular Grid (max. ang.)         AngularGrid ... 2 (Lebedev-110)
Angular grid pruning method      GridPruning ... 4 (adaptive)
Weight generation scheme         WeightScheme... mBecke (2022)
Basis function cutoff            BFCut       ... 1.0000e-10
Integration weight cutoff        WCut        ... 1.0000e-14
Partially contracted basis set               ... off
Rotationally invariant grid construction     ... off
Angular grids for H and He will be reduced by one unit

Total number of grid points                  ...    23943
Total number of batches                      ...      382
Average number of points per batch           ...       62
Average number of grid points per atom       ...     1408
Final grid set up in    0.2 sec

-------------------------------------------------------------------------------
                    post-SCF DFT-NL dispersion correction                      
-------------------------------------------------------------------------------

SCF Energy:     -327.178486917 
NL    Energy:      0.219550459 
SC+NL Energy:   -326.958936458 
NL done in  :              2.6 sec
-------------------------------------------------------------------------------
Recomputing exchange energy using gridx3       ... done (   35.823 sec)
Old exchange energy                            :    -15.239452255 Eh
New exchange energy                            :    -15.239425677 Eh
Exchange energy change after final integration :      0.000026578 Eh
Total energy after final integration           :   -326.958909880 Eh

SMD CDS free energy correction energy :                 3.32951     Kcal/mol
Total Energy after SMD CDS correction =              -326.953603963 Eh
             **** ENERGY FILE WAS UPDATED (sp_solv.en.tmp) ****

----------------
TOTAL SCF ENERGY
----------------

Total Energy       :       -326.95360396336355 Eh           -8896.85987 eV

Components:
Nuclear Repulsion  :        348.34172103979949 Eh            9478.86013 eV
Electronic Energy  :       -675.50451128073883 Eh          -18381.41224 eV
One Electron Energy:      -1130.59800131888301 Eh          -30765.13569 eV
Two Electron Energy:        455.09349003814418 Eh           12383.72344 eV
CPCM Dielectric    :         -0.01569667612835 Eh              -0.42713 eV
SMD CDS (Gcds)     :          0.00530591636160 Eh               0.14438 eV

Virial components:
Potential Energy   :       -652.56529530144678 Eh          -17757.20444 eV
Kinetic Energy     :        325.61169133808323 Eh            8860.34457 eV
Virial Ratio       :          2.00412120529139

DFT components:
N(Alpha)           :       29.000036656366 electrons
N(Beta)            :       29.000036656366 electrons
N(Total)           :       58.000073312732 electrons
E(X)               :      -30.863907366466 Eh       
E(C)               :       -2.375590420434 Eh       
NL Energy, E(C,NL) :        0.219550459488 Eh       
E(XC)              :      -33.019947327412 Eh       

CPCM Solvation Model Properties:
Surface-charge          :         -0.04470589191569
Corrected charge        :         -0.00000000000000
Outlying charge corr.   :          0.00015817718408 Eh               0.00430 eV
Free-energy (cav+disp)  :          0.00530591636160 Eh               0.14438 eV

---------------
SCF CONVERGENCE
---------------

  Last Energy change         ...    4.4127e-08  Tolerance :   1.0000e-07
  Last MAX-Density change    ...    5.0163e-05  Tolerance :   1.0000e-05
  Last RMS-Density change    ...    1.7274e-06  Tolerance :   1.0000e-06
  Last DIIS Error            ...    1.8583e-03  Tolerance :   1.0000e-07
  Last Orbital Gradient      ...    7.7369e-06  Tolerance :   1.0000e-04
  Last Orbital Rotation      ...    2.6245e-05  Tolerance :   1.0000e-04


----------------
ORBITAL ENERGIES
----------------

  NO   OCC          E(Eh)            E(eV) 
   0   2.0000     -16.520505      -449.5458 
   1   2.0000     -12.085432      -328.8613 
   2   2.0000     -12.049578      -327.8857 
   3   2.0000     -12.044782      -327.7552 
   4   2.0000     -12.043364      -327.7166 
   5   2.0000     -12.038500      -327.5842 
   6   2.0000     -12.035381      -327.4994 
   7   2.0000     -12.034262      -327.4689 
   8   2.0000      -1.481981       -40.3268 
   9   2.0000      -1.367436       -37.2098 
  10   2.0000      -1.287590       -35.0371 
  11   2.0000      -1.255200       -34.1557 
  12   2.0000      -1.185390       -32.2561 
  13   2.0000      -1.106140       -30.0996 
  14   2.0000      -1.084576       -29.5128 
  15   2.0000      -0.999217       -27.1901 
  16   2.0000      -0.993017       -27.0214 
  17   2.0000      -0.928772       -25.2732 
  18   2.0000      -0.925872       -25.1943 
  19   2.0000      -0.884036       -24.0558 
  20   2.0000      -0.862780       -23.4774 
  21   2.0000      -0.838605       -22.8196 
  22   2.0000      -0.828392       -22.5417 
  23   2.0000      -0.808140       -21.9906 
  24   2.0000      -0.802049       -21.8249 
  25   2.0000      -0.793606       -21.5951 
  26   2.0000      -0.740008       -20.1367 
  27   2.0000      -0.632605       -17.2141 
  28   2.0000      -0.610484       -16.6121 
  29   0.0000      -0.234327        -6.3764 
  30   0.0000      -0.232121        -6.3163 
  31   0.0000      -0.070214        -1.9106 
  32   0.0000      -0.065256        -1.7757 
  33   0.0000      -0.022798        -0.6204 
  34   0.0000      -0.000327        -0.0089 
  35   0.0000       0.003131         0.0852 
  36   0.0000       0.006270         0.1706 
  37   0.0000       0.023833         0.6485 
  38   0.0000       0.030890         0.8405 
  39   0.0000       0.049543         1.3481 
*Only the first 10 virtual orbitals were printed.

                    ********************************
                    * MULLIKEN POPULATION ANALYSIS *
                    ********************************

-----------------------
MULLIKEN ATOMIC CHARGES
-----------------------
   0 C :   -0.435696
   1 C :   -0.016012
   2 C :   -0.189009
   3 C :   -0.223903
   4 C :   -0.138980
   5 C :   -0.313291
   6 C :    0.212715
   7 N :   -0.490771
   8 H :    0.142766
   9 H :    0.145677
  10 H :    0.145716
  11 H :    0.153004
  12 H :    0.154000
  13 H :    0.156562
  14 H :    0.151891
  15 H :    0.271183
  16 H :    0.274148
Sum of atomic charges:    0.0000000

--------------------------------
MULLIKEN REDUCED ORBITAL CHARGES
--------------------------------
  0 C s       :     3.300261  s :     3.300261
      pz      :     1.067926  p :     3.073713
      px      :     0.947525
      py      :     1.058262
      dz2     :     0.005621  d :     0.058304
      dxz     :     0.024667
      dyz     :     0.003474
      dx2y2   :     0.016077
      dxy     :     0.008466
      f0      :     0.000313  f :     0.003419
      f+1     :     0.000857
      f-1     :     0.000214
      f+2     :     0.000083
      f-2     :     0.000388
      f+3     :     0.000810
      f-3     :     0.000754

  1 C s       :     3.248519  s :     3.248519
      pz      :     0.982438  p :     2.619869
      px      :     0.813537
      py      :     0.823894
      dz2     :     0.005622  d :     0.137721
      dxz     :     0.025958
      dyz     :     0.018370
      dx2y2   :     0.050300
      dxy     :     0.037471
      f0      :     0.001677  f :     0.009904
      f+1     :     0.000784
      f-1     :     0.000667
      f+2     :     0.001048
      f-2     :     0.000898
      f+3     :     0.003461
      f-3     :     0.001369

  2 C s       :     3.196271  s :     3.196271
      pz      :     0.973000  p :     2.888183
      px      :     0.926408
      py      :     0.988776
      dz2     :     0.004213  d :     0.097035
      dxz     :     0.027645
      dyz     :     0.004805
      dx2y2   :     0.037967
      dxy     :     0.022405
      f0      :     0.001506  f :     0.007520
      f+1     :     0.000591
      f-1     :     0.000660
      f+2     :     0.000263
      f-2     :     0.001187
      f+3     :     0.002210
      f-3     :     0.001103

  3 C s       :     3.203658  s :     3.203658
      pz      :     1.030904  p :     2.924576
      px      :     0.962807
      py      :     0.930865
      dz2     :     0.004199  d :     0.088356
      dxz     :     0.010247
      dyz     :     0.017114
      dx2y2   :     0.025216
      dxy     :     0.031581
      f0      :     0.001512  f :     0.007313
      f+1     :     0.000686
      f-1     :     0.000627
      f+2     :     0.000928
      f-2     :     0.000357
      f+3     :     0.002157
      f-3     :     0.001045

  4 C s       :     3.167693  s :     3.167693
      pz      :     0.964370  p :     2.871460
      px      :     0.967882
      py      :     0.939209
      dz2     :     0.003950  d :     0.092400
      dxz     :     0.011067
      dyz     :     0.021496
      dx2y2   :     0.025502
      dxy     :     0.030386
      f0      :     0.001523  f :     0.007426
      f+1     :     0.000663
      f-1     :     0.000605
      f+2     :     0.000930
      f-2     :     0.000513
      f+3     :     0.002138
      f-3     :     0.001054

  5 C s       :     3.280579  s :     3.280579
      pz      :     1.044897  p :     2.939164
      px      :     0.894650
      py      :     0.999617
      dz2     :     0.005021  d :     0.086122
      dxz     :     0.021328
      dyz     :     0.004935
      dx2y2   :     0.032775
      dxy     :     0.022063
      f0      :     0.001528  f :     0.007425
      f+1     :     0.000642
      f-1     :     0.000703
      f+2     :     0.000262
      f-2     :     0.001026
      f+3     :     0.002123
      f-3     :     0.001141

  6 C s       :     3.005623  s :     3.005623
      pz      :     0.896803  p :     2.605843
      px      :     0.852426
      py      :     0.856615
      dz2     :     0.004530  d :     0.162521
      dxz     :     0.040641
      dyz     :     0.027372
      dx2y2   :     0.047977
      dxy     :     0.042001
      f0      :     0.002160  f :     0.013298
      f+1     :     0.001016
      f-1     :     0.000827
      f+2     :     0.001223
      f-2     :     0.001925
      f+3     :     0.004367
      f-3     :     0.001780

  7 N s       :     3.448342  s :     3.448342
      pz      :     1.692845  p :     3.999881
      px      :     1.146004
      py      :     1.161033
      dz2     :     0.002870  d :     0.039711
      dxz     :     0.009423
      dyz     :     0.006419
      dx2y2   :     0.012303
      dxy     :     0.008697
      f0      :     0.000684  f :     0.002838
      f+1     :     0.000366
      f-1     :     0.000296
      f+2     :     0.000192
      f-2     :     0.000241
      f+3     :     0.000468
      f-3     :     0.000591

  8 H s       :     0.835887  s :     0.835887
      pz      :     0.004255  p :     0.021347
      px      :     0.004121
      py      :     0.012971

  9 H s       :     0.833578  s :     0.833578
      pz      :     0.009569  p :     0.020745
      px      :     0.006794
      py      :     0.004382

 10 H s       :     0.833546  s :     0.833546
      pz      :     0.009319  p :     0.020738
      px      :     0.006934
      py      :     0.004484

 11 H s       :     0.825271  s :     0.825271
      pz      :     0.004373  p :     0.021725
      px      :     0.003476
      py      :     0.013877

 12 H s       :     0.824012  s :     0.824012
      pz      :     0.004872  p :     0.021988
      px      :     0.010801
      py      :     0.006314

 13 H s       :     0.821706  s :     0.821706
      pz      :     0.004393  p :     0.021732
      px      :     0.011432
      py      :     0.005906

 14 H s       :     0.826253  s :     0.826253
      pz      :     0.004802  p :     0.021856
      px      :     0.003304
      py      :     0.013750

 15 H s       :     0.692676  s :     0.692676
      pz      :     0.011948  p :     0.036142
      px      :     0.005541
      py      :     0.018653

 16 H s       :     0.688733  s :     0.688733
      pz      :     0.012884  p :     0.037119
      px      :     0.016022
      py      :     0.008213


------------------------
MULLIKEN OVERLAP CHARGES
------------------------
B(  0-C ,  1-C ) :   0.6095 B(  0-C ,  2-C ) :  -0.1268 B(  0-C ,  6-C ) :  -0.1637 
B(  0-C ,  8-H ) :   0.8371 B(  0-C ,  9-H ) :   0.8202 B(  0-C , 10-H ) :   0.8637 
B(  1-C ,  2-C ) :   0.9453 B(  1-C ,  4-C ) :  -0.1360 B(  1-C ,  6-C ) :   0.7469 
B(  1-C ,  7-N ) :  -0.1165 B(  1-C ,  8-H ) :  -0.0998 B(  1-C ,  9-H ) :  -0.0892 
B(  1-C , 10-H ) :  -0.0793 B(  1-C , 11-H ) :  -0.1042 B(  2-C ,  3-C ) :   0.9106 
B(  2-C ,  5-C ) :  -0.1405 B(  2-C , 11-H ) :   0.8767 B(  2-C , 12-H ) :  -0.1099 
B(  3-C ,  4-C ) :   0.9421 B(  3-C ,  6-C ) :  -0.1488 B(  3-C , 11-H ) :  -0.0963 
B(  3-C , 12-H ) :   0.8999 B(  3-C , 13-H ) :  -0.0974 B(  4-C ,  5-C ) :   0.9309 
B(  4-C , 12-H ) :  -0.1027 B(  4-C , 13-H ) :   0.8828 B(  4-C , 14-H ) :  -0.0732 
B(  5-C ,  6-C ) :   0.8878 B(  5-C ,  7-N ) :  -0.1091 B(  5-C , 13-H ) :  -0.0983 
B(  5-C , 14-H ) :   0.8762 B(  6-C ,  7-N ) :   0.6686 B(  6-C , 14-H ) :  -0.1045 
B(  6-C , 15-H ) :  -0.0835 B(  6-C , 16-H ) :  -0.0588 B(  7-N , 15-H ) :   0.7585 
B(  7-N , 16-H ) :   0.7664 B(  9-H , 10-H ) :  -0.0755 


                     *******************************
                     * LOEWDIN POPULATION ANALYSIS *
                     *******************************

----------------------
LOEWDIN ATOMIC CHARGES
----------------------
   0 C :   -0.260065
   1 C :   -0.169332
   2 C :   -0.132932
   3 C :   -0.187397
   4 C :   -0.163996
   5 C :   -0.149143
   6 C :   -0.221635
   7 N :   -0.054402
   8 H :    0.131022
   9 H :    0.130449
  10 H :    0.129956
  11 H :    0.152198
  12 H :    0.145717
  13 H :    0.149202
  14 H :    0.150840
  15 H :    0.175669
  16 H :    0.173850

-------------------------------
LOEWDIN REDUCED ORBITAL CHARGES
-------------------------------
  0 C s       :     2.812917  s :     2.812917
      pz      :     1.071561  p :     3.165752
      px      :     1.036299
      py      :     1.057893
      dz2     :     0.032960  d :     0.256486
      dxz     :     0.092505
      dyz     :     0.010987
      dx2y2   :     0.076559
      dxy     :     0.043475
      f0      :     0.002041  f :     0.024909
      f+1     :     0.003873
      f-1     :     0.002657
      f+2     :     0.001683
      f-2     :     0.004455
      f+3     :     0.005615
      f-3     :     0.004587

  1 C s       :     2.709275  s :     2.709275
      pz      :     0.876322  p :     2.895821
      px      :     1.009841
      py      :     1.009658
      dz2     :     0.032088  d :     0.508141
      dxz     :     0.077667
      dyz     :     0.065790
      dx2y2   :     0.169081
      dxy     :     0.163515
      f0      :     0.004020  f :     0.056096
      f+1     :     0.003924
      f-1     :     0.004169
      f+2     :     0.007044
      f-2     :     0.006108
      f+3     :     0.021986
      f-3     :     0.008846

  2 C s       :     2.758738  s :     2.758738
      pz      :     0.887506  p :     2.935677
      px      :     1.057773
      py      :     0.990398
      dz2     :     0.024984  d :     0.396021
      dxz     :     0.092276
      dyz     :     0.011380
      dx2y2   :     0.165785
      dxy     :     0.101596
      f0      :     0.002852  f :     0.042496
      f+1     :     0.004146
      f-1     :     0.002960
      f+2     :     0.001414
      f-2     :     0.008265
      f+3     :     0.015062
      f-3     :     0.007796

  3 C s       :     2.763531  s :     2.763531
      pz      :     0.935445  p :     2.996728
      px      :     1.013725
      py      :     1.047558
      dz2     :     0.024405  d :     0.384491
      dxz     :     0.032013
      dyz     :     0.060017
      dx2y2   :     0.113697
      dxy     :     0.154359
      f0      :     0.002908  f :     0.042648
      f+1     :     0.003417
      f-1     :     0.003902
      f+2     :     0.006501
      f-2     :     0.002449
      f+3     :     0.015637
      f-3     :     0.007834

  4 C s       :     2.764933  s :     2.764933
      pz      :     0.885997  p :     2.955877
      px      :     1.012607
      py      :     1.057274
      dz2     :     0.024380  d :     0.399709
      dxz     :     0.032442
      dyz     :     0.074748
      dx2y2   :     0.118657
      dxy     :     0.149483
      f0      :     0.002941  f :     0.043476
      f+1     :     0.003301
      f-1     :     0.003912
      f+2     :     0.006486
      f-2     :     0.003548
      f+3     :     0.015515
      f-3     :     0.007773

  5 C s       :     2.758936  s :     2.758936
      pz      :     0.941927  p :     2.977562
      px      :     1.045474
      py      :     0.990161
      dz2     :     0.024934  d :     0.371035
      dxz     :     0.075078
      dyz     :     0.011543
      dx2y2   :     0.158480
      dxy     :     0.101000
      f0      :     0.002933  f :     0.041610
      f+1     :     0.004321
      f-1     :     0.003063
      f+2     :     0.001401
      f-2     :     0.007327
      f+3     :     0.014584
      f-3     :     0.007981

  6 C s       :     2.707667  s :     2.707667
      pz      :     0.832943  p :     2.805606
      px      :     0.962304
      py      :     1.010358
      dz2     :     0.038069  d :     0.631545
      dxz     :     0.129480
      dyz     :     0.092532
      dx2y2   :     0.176470
      dxy     :     0.194994
      f0      :     0.005499  f :     0.076816
      f+1     :     0.005605
      f-1     :     0.004730
      f+2     :     0.008515
      f-2     :     0.013265
      f+3     :     0.027413
      f-3     :     0.011789

  7 N s       :     3.011155  s :     3.011155
      pz      :     1.559420  p :     3.895215
      px      :     1.181266
      py      :     1.154528
      dz2     :     0.006836  d :     0.137754
      dxz     :     0.026657
      dyz     :     0.015225
      dx2y2   :     0.052505
      dxy     :     0.036530
      f0      :     0.001154  f :     0.010279
      f+1     :     0.000856
      f-1     :     0.000644
      f+2     :     0.001371
      f-2     :     0.001841
      f+3     :     0.002577
      f-3     :     0.001835

  8 H s       :     0.808393  s :     0.808393
      pz      :     0.013232  p :     0.060585
      px      :     0.012431
      py      :     0.034921

  9 H s       :     0.808891  s :     0.808891
      pz      :     0.028156  p :     0.060660
      px      :     0.018441
      py      :     0.014063

 10 H s       :     0.809301  s :     0.809301
      pz      :     0.027536  p :     0.060743
      px      :     0.018734
      py      :     0.014473

 11 H s       :     0.789212  s :     0.789212
      pz      :     0.013033  p :     0.058590
      px      :     0.010350
      py      :     0.035208

 12 H s       :     0.794534  s :     0.794534
      pz      :     0.014369  p :     0.059749
      px      :     0.027979
      py      :     0.017401

 13 H s       :     0.792027  s :     0.792027
      pz      :     0.012900  p :     0.058772
      px      :     0.029438
      py      :     0.016435

 14 H s       :     0.789467  s :     0.789467
      pz      :     0.014341  p :     0.059693
      px      :     0.010273
      py      :     0.035079

 15 H s       :     0.714860  s :     0.714860
      pz      :     0.037887  p :     0.109471
      px      :     0.017814
      py      :     0.053770

 16 H s       :     0.714483  s :     0.714483
      pz      :     0.041502  p :     0.111667
      px      :     0.043536
      py      :     0.026629


---------------------------------
LOEWDIN BOND ORDERS (THRESH 0.050000)
---------------------------------
B(  0-C ,  1-C ) :   1.2172 B(  0-C ,  2-C ) :   0.1797 B(  0-C ,  6-C ) :   0.1650 
B(  0-C ,  8-H ) :   0.8889 B(  0-C ,  9-H ) :   0.8891 B(  0-C , 10-H ) :   0.8904 
B(  1-C ,  2-C ) :   1.5122 B(  1-C ,  3-C ) :   0.2310 B(  1-C ,  4-C ) :   0.0987 
B(  1-C ,  5-C ) :   0.2174 B(  1-C ,  6-C ) :   1.3651 B(  1-C ,  7-N ) :   0.1582 
B(  1-C ,  8-H ) :   0.0834 B(  1-C ,  9-H ) :   0.0802 B(  1-C , 10-H ) :   0.0807 
B(  1-C , 11-H ) :   0.0953 B(  2-C ,  3-C ) :   1.5809 B(  2-C ,  4-C ) :   0.2466 
B(  2-C ,  5-C ) :   0.1065 B(  2-C ,  6-C ) :   0.2291 B(  2-C , 11-H ) :   0.8180 
B(  2-C , 12-H ) :   0.0960 B(  3-C ,  4-C ) :   1.5890 B(  3-C ,  5-C ) :   0.2424 
B(  3-C ,  6-C ) :   0.0989 B(  3-C , 11-H ) :   0.0944 B(  3-C , 12-H ) :   0.8317 
B(  3-C , 13-H ) :   0.0946 B(  4-C ,  5-C ) :   1.6035 B(  4-C ,  6-C ) :   0.2363 
B(  4-C , 12-H ) :   0.0952 B(  4-C , 13-H ) :   0.8278 B(  4-C , 14-H ) :   0.0957 
B(  5-C ,  6-C ) :   1.4711 B(  5-C ,  7-N ) :   0.1691 B(  5-C , 13-H ) :   0.0977 
B(  5-C , 14-H ) :   0.8219 B(  6-C ,  7-N ) :   1.5182 B(  6-C , 14-H ) :   0.0951 
B(  6-C , 15-H ) :   0.0981 B(  6-C , 16-H ) :   0.0959 B(  7-N , 15-H ) :   0.9238 
B(  7-N , 16-H ) :   0.9208 

------------------------------------------
LOEWDIN REDUCED ORBITAL POPULATIONS PER MO
-------------------------------------------
THRESHOLD FOR PRINTING IS 0.1%%
                      0         1         2         3         4         5   
                 -16.52050 -12.08543 -12.04958 -12.04478 -12.04336 -12.03850
                   2.00000   2.00000   2.00000   2.00000   2.00000   2.00000
                  --------  --------  --------  --------  --------  --------
 0 C  s               0.0       0.0       0.2       0.0       0.1       0.0
 1 C  s               0.0       0.1      95.8       0.1       2.6       0.0
 1 C  dx2y2           0.0       0.2       0.0       0.0       0.0       0.0
 1 C  dxy             0.0       0.0       0.0       0.0       0.2       0.0
 2 C  s               0.0       0.0       2.7       0.1      94.6       0.1
 2 C  dxy             0.0       0.0       0.2       0.0       0.0       0.0
 3 C  s               0.0       0.0       0.0       1.0       1.7       0.8
 3 C  dx2y2           0.0       0.0       0.0       0.2       0.1       0.0
 3 C  dxy             0.0       0.0       0.0       0.0       0.1       0.0
 4 C  s               0.0       0.0       0.1      95.2       0.0       2.3
 4 C  dxy             0.0       0.0       0.0       0.0       0.0       0.2
 5 C  s               0.0       0.1       0.0       2.5       0.0      95.7
 5 C  dxy             0.0       0.1       0.0       0.2       0.0       0.0
 6 C  s               0.0      98.8       0.1       0.0       0.0       0.1
 6 C  dx2y2           0.0       0.0       0.2       0.0       0.0       0.1
 6 C  dxy             0.1       0.0       0.0       0.0       0.0       0.1
 7 N  s              99.6       0.0       0.0       0.0       0.0       0.0

                      6         7         8         9        10        11   
                 -12.03538 -12.03426  -1.48198  -1.36744  -1.28759  -1.25520
                   2.00000   2.00000   2.00000   2.00000   2.00000   2.00000
                  --------  --------  --------  --------  --------  --------
 0 C  s               1.5      97.7       0.3       1.7       9.6       0.5
 0 C  px              0.0       0.0       0.2       1.2       2.0       0.0
 0 C  py              0.0       0.0       0.4       0.2       0.5       0.1
 0 C  dz2             0.0       0.0       0.0       0.1       0.2       0.0
 0 C  dx2y2           0.0       0.0       0.0       0.1       0.2       0.0
 0 C  dxy             0.0       0.0       0.0       0.1       0.3       0.1
 1 C  s               0.0       0.2       2.1      10.5      15.1       0.5
 1 C  px              0.0       0.0       0.1       2.4       0.9       2.0
 1 C  py              0.0       0.0       2.3       0.0       1.2       4.4
 1 C  dz2             0.0       0.0       0.2       0.5       0.3       0.0
 1 C  dx2y2           0.0       0.0       0.3       0.1       0.1       1.2
 1 C  dxy             0.0       0.1       0.1       0.0       0.0       1.0
 1 C  f-3             0.0       0.0       0.0       0.1       0.2       0.0
 2 C  s               1.5       0.1       0.3      12.1       3.2       9.4
 2 C  px              0.1       0.0       0.1       0.0       6.5       4.3
 2 C  py              0.0       0.0       0.3       3.0       0.1       0.2
 2 C  dz2             0.1       0.0       0.0       0.6       0.1       0.1
 2 C  dx2y2           0.1       0.0       0.0       0.1       0.3       0.3
 2 C  dxy             0.1       0.0       0.0       0.0       1.0       0.8
 2 C  f-3             0.0       0.0       0.0       0.1       0.0       0.1
 3 C  s              94.1       1.4       0.2      11.4       2.5      13.4
 3 C  px              0.0       0.0       0.1       2.5       0.8       1.1
 3 C  py              0.0       0.0       0.0       0.8       4.3       0.8
 3 C  dz2             0.0       0.0       0.0       0.5       0.1       0.2
 3 C  dx2y2           0.0       0.0       0.0       0.0       1.2       0.1
 3 C  dxy             0.0       0.0       0.0       0.0       0.1       0.7
 3 C  f-3             0.0       0.0       0.0       0.1       0.0       0.1
 4 C  s               1.4       0.0       0.3      10.4      12.7       0.1
 4 C  px              0.0       0.0       0.4       2.0       0.9       2.1
 4 C  py              0.1       0.0       0.0       1.0       0.1       7.8
 4 C  dz2             0.1       0.0       0.0       0.5       0.2       0.0
 4 C  dx2y2           0.2       0.0       0.0       0.0       0.0       1.6
 4 C  dxy             0.0       0.0       0.0       0.0       0.3       0.6
 4 C  f-3             0.1       0.0       0.0       0.1       0.1       0.0
 5 C  s               0.5       0.1       2.0       7.6       7.7      10.4
 5 C  px              0.0       0.0       2.2       0.4       2.5       1.9
 5 C  py              0.0       0.0       0.3       3.0       0.4       0.3
 5 C  dz2             0.0       0.0       0.2       0.3       0.2       0.1
 5 C  dx2y2           0.0       0.0       0.5       0.0       0.2       0.2
 5 C  dxy             0.0       0.0       0.1       0.0       0.8       0.7
 5 C  f-3             0.0       0.0       0.0       0.1       0.1       0.1
 6 C  s               0.0       0.0      14.6       3.6       0.2       8.4
 6 C  px              0.0       0.0       5.3       5.7       2.2       4.3
 6 C  py              0.0       0.0       2.0       3.1       7.4       0.1
 6 C  dz2             0.0       0.0       1.1       0.2       0.0       0.0
 6 C  dx2y2           0.0       0.0       0.3       0.1       1.7       0.0
 6 C  dxy             0.0       0.0       1.5       0.4       0.0       1.8
 6 C  f-3             0.0       0.0       0.4       0.0       0.0       0.0
 7 N  s               0.0       0.0      39.5       3.7       0.2       2.9
 7 N  pz              0.0       0.0       0.4       0.1       0.0       0.1
 7 N  px              0.0       0.0       1.3       0.5       0.0       3.2
 7 N  py              0.0       0.0       0.5       0.3       0.5       0.8
 7 N  dz2             0.0       0.0       0.2       0.0       0.0       0.0
 7 N  dxy             0.0       0.0       0.1       0.0       0.0       0.2
 8 H  s               0.0       0.0       0.0       0.3       1.8       0.1
 8 H  py              0.0       0.0       0.0       0.0       0.2       0.0
 9 H  s               0.0       0.0       0.0       0.2       1.7       0.1
10 H  s               0.0       0.0       0.1       0.2       1.7       0.1
11 H  s               0.0       0.0       0.0       1.5       0.6       1.7
11 H  py              0.0       0.0       0.0       0.1       0.1       0.2
12 H  s               0.0       0.0       0.0       1.3       0.4       2.3
12 H  px              0.0       0.0       0.0       0.1       0.0       0.2
13 H  s               0.0       0.0       0.0       1.2       1.9       0.0
13 H  px              0.0       0.0       0.0       0.1       0.2       0.0
14 H  s               0.0       0.0       0.3       0.8       1.2       1.7
14 H  py              0.0       0.0       0.0       0.1       0.1       0.2
15 H  s               0.0       0.0       8.1       1.0       0.2       1.4
15 H  py              0.0       0.0       1.3       0.2       0.0       0.2
16 H  s               0.0       0.0       8.1       1.0       0.0       1.7
16 H  pz              0.0       0.0       0.2       0.0       0.0       0.0
16 H  px              0.0       0.0       1.0       0.1       0.0       0.1
16 H  py              0.0       0.0       0.2       0.1       0.0       0.1

                     12        13        14        15        16        17   
                  -1.18539  -1.10614  -1.08458  -0.99922  -0.99302  -0.92877
                   2.00000   2.00000   2.00000   2.00000   2.00000   2.00000
                  --------  --------  --------  --------  --------  --------
 0 C  s              23.0       0.0       5.0       0.2       0.0       0.4
 0 C  px              0.3       0.1       2.3       1.3       0.7       6.2
 0 C  py              0.0       0.7       1.1       0.1       0.4       2.4
 0 C  dz2             0.0       0.0       0.2       0.0       0.0       0.1
 0 C  dx2y2           0.0       0.3       0.1       0.1       0.2       0.1
 0 C  dxy             0.0       0.2       0.3       0.0       0.0       0.3
 1 C  s               0.1       0.0       4.8       0.0       0.7       1.5
 1 C  px             13.1       3.6       1.2       0.0       0.7       3.3
 1 C  py              3.0      12.1       0.8       5.7       1.2       0.0
 1 C  dx2y2           0.6       0.5       0.2       0.1       0.0       0.2
 1 C  dxy             1.4       0.1       0.5       1.9       0.3       0.0
 2 C  s               3.8       5.3       0.7       1.3       0.7       0.3
 2 C  px              0.1       3.8      10.2       3.3       5.8       0.2
 2 C  py              0.2       1.2       1.1       3.1       1.3       3.1
 2 C  dx2y2           0.1       0.0       0.2       0.0       0.0       0.8
 2 C  dxy             0.3       0.1       0.7       0.0       0.0       0.3
 3 C  s               0.1       4.7       2.9       0.7       0.0       1.8
 3 C  px              2.0       3.5       0.4       0.2       2.3      16.2
 3 C  py              4.4       1.8       7.1       0.4       6.7       4.4
 3 C  dx2y2           0.9       0.2       0.1       0.1       0.0       0.0
 3 C  dxy             0.1       0.0       0.1       0.5       0.0       0.0
 4 C  s               6.8       0.1       4.4       2.3       0.1       0.5
 4 C  px              0.3       3.6       0.4       3.1       2.2       6.5
 4 C  py              0.1      10.3       1.0       2.2       6.2       0.5
 4 C  dx2y2           0.1       0.4       0.0       0.0       0.0       0.1
 4 C  dxy             0.1       0.2       0.0       0.0       0.1       0.9
 5 C  s               0.1       6.0       1.2       0.3       0.9       1.3
 5 C  px              6.3       1.4      10.0       2.8       4.7       0.9
 5 C  py              0.0       1.3       1.1       1.9       0.6      10.2
 5 C  dx2y2           0.0       0.0       0.0       1.2       0.0       0.2
 5 C  dxy             1.0       0.1       0.1       0.5       0.0       0.3
 6 C  s               3.1       4.1       0.8       0.0       0.0       0.1
 6 C  pz              0.0       0.0       0.0       0.3       0.0       0.1
 6 C  px              0.8       4.4       1.0      12.4       2.6       0.4
 6 C  py              0.0       3.2      13.5       5.1       0.9       0.5
 6 C  dx2y2           0.2       0.1       0.1       0.0       2.0       0.8
 6 C  dxy             0.1       0.0       0.4       0.7       0.4       2.0
 6 C  f+3             0.1       0.0       0.0       0.0       0.2       0.0
 7 N  s               0.3       0.7       0.3       0.2       0.0       0.1
 7 N  pz              0.0       0.3       0.2       1.5       0.0       0.4
 7 N  px              1.6       3.8       7.7      23.7       5.2       2.2
 7 N  py              0.2       7.5       0.2       4.1      29.0       0.5
 7 N  dyz             0.0       0.0       0.0       0.0       0.2       0.0
 7 N  dx2y2           0.0       0.0       0.2       0.0       0.3       0.0
 7 N  dxy             0.1       0.5       0.0       0.4       0.0       0.0
 8 H  s               6.2       0.2       2.5       0.0       0.0       1.2
 8 H  px              0.0       0.0       0.0       0.0       0.0       0.1
 8 H  py              0.6       0.0       0.2       0.0       0.0       0.0
 9 H  s               6.3       0.0       2.3       0.4       0.2       1.0
 9 H  pz              0.4       0.0       0.2       0.0       0.0       0.1
 9 H  px              0.2       0.0       0.0       0.0       0.0       0.0
10 H  s               6.3       0.0       2.3       0.3       0.1       1.1
10 H  pz              0.4       0.0       0.2       0.0       0.0       0.1
10 H  px              0.2       0.0       0.0       0.0       0.0       0.0
11 H  s               0.6       2.6       0.6       2.7       1.1       0.7
11 H  py              0.1       0.3       0.1       0.2       0.1       0.0
12 H  s               0.0       2.1       1.7       0.2       0.0      13.3
12 H  px              0.0       0.1       0.2       0.0       0.0       0.4
12 H  py              0.0       0.2       0.0       0.0       0.1       0.2
13 H  s               1.8       0.0       2.2       4.3       0.1       1.9
13 H  px              0.2       0.0       0.2       0.2       0.0       0.0
13 H  py              0.1       0.1       0.0       0.0       0.1       0.0
14 H  s               0.0       2.9       1.0       0.2       1.0       7.7
14 H  py              0.0       0.3       0.1       0.0       0.1       0.3
15 H  s               0.3       3.3       0.0       1.8      11.4       0.3
15 H  pz              0.0       0.0       0.0       0.0       0.2       0.0
15 H  px              0.0       0.1       0.1       0.5       0.0       0.0
15 H  py              0.0       0.2       0.0       0.0       0.4       0.0
16 H  s               0.7       0.8       2.5       6.0       6.9       0.5
16 H  pz              0.0       0.0       0.1       0.0       0.2       0.0
16 H  px              0.0       0.0       0.1       0.0       0.3       0.0
16 H  py              0.0       0.2       0.1       0.4       0.0       0.0

                     18        19        20        21        22        23   
                  -0.92587  -0.88404  -0.86278  -0.83860  -0.82839  -0.80814
                   2.00000   2.00000   2.00000   2.00000   2.00000   2.00000
                  --------  --------  --------  --------  --------  --------
 0 C  s               0.0       0.1       0.2       0.0       0.0       0.1
 0 C  pz              0.0       0.0       0.0      28.5       3.0       4.3
 0 C  px              0.0       6.3      12.0       0.1       0.1      15.6
 0 C  py              2.0       1.2       1.9       0.5      17.5       7.8
 0 C  dz2             0.0       0.0       0.1       0.0       0.1       0.4
 0 C  dxz             0.0       0.0       0.0       0.3       0.1       0.1
 0 C  dyz             0.0       0.0       0.0       0.4       0.0       0.0
 0 C  dx2y2           0.1       0.1       0.0       0.0       0.3       0.7
 0 C  dxy             0.3       0.1       0.2       0.0       0.0       0.1
 1 C  s               0.2       0.9       0.0       0.0       0.0       0.0
 1 C  pz              0.0       0.0       0.0      11.7       0.7       0.0
 1 C  px              3.2       1.0      10.6       0.4       3.9       2.8
 1 C  py              7.3       3.7       1.7       0.0       0.1       0.4
 1 C  dxz             0.0       0.0       0.0       0.5       0.1       0.1
 1 C  dyz             0.0       0.0       0.0       0.0       0.0       0.2
 1 C  dx2y2           0.1       1.3       0.3       0.0       0.7       0.0
 1 C  dxy             0.0       0.0       0.3       0.0       0.1       1.8
 1 C  f0              0.0       0.0       0.0       0.2       0.0       0.0
 1 C  f+3             0.0       0.3       0.1       0.0       0.1       0.3
 2 C  s               0.0       1.0       0.2       0.0       0.4       0.1
 2 C  pz              0.0       0.0       0.0       2.7       0.1       0.0
 2 C  px              9.5       0.0       0.1       0.2       1.8       5.2
 2 C  py              0.0      13.0      13.1       0.0       1.7       1.9
 2 C  dz2             0.0       0.0       0.1       0.0       0.0       0.0
 2 C  dxz             0.0       0.0       0.0       0.2       0.0       0.0
 2 C  dyz             0.0       0.0       0.0       0.1       0.0       0.0
 2 C  dx2y2           0.0       1.9       0.1       0.0       1.0       0.7
 2 C  dxy             0.1       0.2       0.3       0.1       0.4       0.2
 2 C  f+3             0.1       0.1       0.1       0.0       0.2       0.0
 3 C  s               0.0       0.9       0.0       0.0       0.4       0.0
 3 C  pz              0.0       0.0       0.0       0.9       0.0       0.0
 3 C  px              2.6       1.3       0.6       1.0       8.4       5.6
 3 C  py              7.5       0.8       0.5       0.4       5.9       1.1
 3 C  dz2             0.0       0.2       0.0       0.0       0.0       0.0
 3 C  dx2y2           0.1       0.3       1.0       0.0       0.7       0.0
 3 C  dxy             0.0       0.9       0.4       0.2       3.2       0.7
 3 C  f+3             0.0       0.0       0.5       0.0       0.0       0.0
 4 C  s               0.0       1.1       0.2       0.0       0.1       0.1
 4 C  pz              0.0       0.0       0.0       0.9       0.0       0.1
 4 C  px              1.3       8.1      10.8       0.1       3.2       3.3
 4 C  py              8.9       2.6       1.6       0.2       3.3       1.6
 4 C  dz2             0.0       0.0       0.1       0.0       0.0       0.0
 4 C  dx2y2           0.1       1.7       0.1       0.0       0.0       0.3
 4 C  dxy             0.1       0.6       0.6       0.1       1.0       1.8
 4 C  f+3             0.1       0.2       0.1       0.0       0.1       0.0
 5 C  s               0.1       0.8       0.3       0.0       0.1       0.1
 5 C  pz              0.0       0.0       0.0       2.5       0.0       0.4
 5 C  px             10.5       1.5       0.3       0.1       3.6       1.3
 5 C  py              0.0       7.0      12.9       0.2       2.9       0.3
 5 C  dz2             0.0       0.0       0.1       0.0       0.0       0.0
 5 C  dxz             0.0       0.0       0.0       0.2       0.0       0.0
 5 C  dyz             0.0       0.0       0.0       0.1       0.0       0.0
 5 C  dx2y2           0.0       1.6       0.2       0.0       0.3       0.6
 5 C  dxy             0.1       0.6       0.3       0.0       0.0       0.1
 5 C  f+3             0.1       0.2       0.1       0.0       0.0       0.0
 6 C  s               0.0       1.4       0.0       0.0       0.0       0.1
 6 C  pz              0.0       0.1       0.0      11.3       0.1       1.7
 6 C  px              2.6       2.9       0.2       0.1       0.4       0.3
 6 C  py              6.4       0.8       0.5       0.1       0.1       0.5
 6 C  dz2             0.0       0.2       0.0       0.0       0.0       0.0
 6 C  dxz             0.0       0.0       0.0       0.2       0.0       0.1
 6 C  dyz             0.0       0.0       0.0       0.0       0.0       0.2
 6 C  dx2y2           1.3       0.0       1.0       0.0       0.2       0.0
 6 C  dxy             0.2       0.1       0.2       0.1       1.3       0.2
 6 C  f0              0.0       0.0       0.0       0.1       0.0       0.0
 6 C  f+3             0.5       0.0       0.5       0.0       0.0       0.0
 7 N  s               0.0       0.1       0.0       0.5       0.1       0.1
 7 N  pz              0.1       0.4       0.0      12.8       0.0       6.1
 7 N  px              4.6       0.7       0.0       0.6       0.4       0.1
 7 N  py             12.6       0.6       0.0       0.0       0.2       0.1
 7 N  dyz             0.2       0.0       0.0       0.0       0.0       0.0
 7 N  dx2y2           1.4       0.0       0.0       0.0       0.0       0.1
 7 N  dxy             0.2       0.0       0.0       0.0       0.0       0.0
 8 H  s               0.8       0.7       0.6       0.3       8.9       6.2
 8 H  pz              0.0       0.0       0.0       0.3       0.0       0.1
 8 H  px              0.0       0.1       0.2       0.0       0.0       0.1
 8 H  py              0.0       0.0       0.0       0.0       0.2       0.2
 9 H  s               0.0       1.0       1.8       8.8       0.1      10.6
 9 H  pz              0.0       0.1       0.1       0.0       0.0       0.3
 9 H  px              0.0       0.0       0.0       0.3       0.0       0.0
 9 H  py              0.0       0.0       0.1       0.0       0.2       0.0
10 H  s               0.1       0.8       1.6       8.6       3.2       1.0
10 H  pz              0.0       0.1       0.1       0.0       0.1       0.2
10 H  px              0.0       0.0       0.0       0.2       0.1       0.1
10 H  py              0.0       0.0       0.1       0.1       0.1       0.1
11 H  s               0.1      10.8       6.4       0.0       2.1       1.9
11 H  px              0.1       0.0       0.0       0.0       0.0       0.1
11 H  py              0.0       0.3       0.2       0.0       0.1       0.1
12 H  s               0.0       0.1       0.1       1.1      12.2       2.0
12 H  px              0.0       0.0       0.0       0.0       0.2       0.0
[...]
 5 C  py              0.0       6.2       0.5       0.3       0.2       0.1
 5 C  dz2             0.1       0.3       0.6       0.7       0.1       0.0
 5 C  dxz             0.1       0.0       0.0       0.0       0.0       0.0
 5 C  dx2y2           0.0       1.5       1.3       0.3       0.1       1.0
 5 C  dxy             2.0       0.0       0.1       0.4       0.7       1.6
 5 C  f+1             0.8       0.0       0.8       0.7       0.2       0.1
 5 C  f-1             0.0       1.6       0.0       0.0       0.0       0.0
 5 C  f-2             0.2       0.0       0.0       0.0       0.0       0.0
 5 C  f+3             0.1       0.0       0.1       1.5       2.5       4.2
 5 C  f-3             1.2       1.0       2.0       1.4       0.4       0.0
 6 C  s               0.0       0.4       2.7       4.3       2.0       0.2
 6 C  px              0.4       9.7       1.1       3.0       0.6       0.0
 6 C  py              1.5       2.3       6.7       0.6       0.1       0.2
 6 C  dz2             0.0       0.0       0.6       0.9       0.9       0.2
 6 C  dxz             0.0       0.0       0.0       0.0       0.1       0.0
 6 C  dx2y2           4.5       0.7       1.3       1.6       0.6       0.2
 6 C  dxy             2.7       4.6       0.9       3.6       3.0       1.0
 6 C  f+1             0.0       3.0       0.4       0.1       0.1       0.0
 6 C  f-1             0.3       0.9       1.3       0.4       0.0       0.0
 6 C  f+2             1.0       0.0       0.2       0.0       0.1       0.0
 6 C  f-2             0.4       0.1       0.0       0.0       0.2       0.0
 6 C  f+3             0.9       0.0       0.1       0.3       5.4      24.1
 6 C  f-3             0.0       0.7       3.1       3.8       1.8       1.0
 7 N  s               0.1       0.1       0.6       0.6      13.6       2.5
 7 N  pz              0.0       0.2       0.1       0.0       1.2       0.2
 7 N  px              0.7       3.7       0.4       0.3       0.1       0.0
 7 N  py              3.6       1.9       0.1       0.3       0.0       0.0
 7 N  dz2             0.1       1.3       0.3       0.7       1.5       0.3
 7 N  dxz             0.2       0.5       0.2       0.0       0.5       0.0
 7 N  dyz             0.6       0.1       0.1       0.0       0.0       0.2
 7 N  dx2y2           8.5       1.5       8.3       1.0       1.1       3.6
 7 N  dxy             0.7       4.0       1.4       8.2       2.0       0.9
 7 N  f0              0.1       0.9       0.2       0.0       6.0       0.9
 7 N  f+1             0.0       2.3       0.7       0.9       0.4       0.0
 7 N  f-1             0.7       1.5       0.4       0.6       0.2       0.0
 7 N  f+2            15.1       0.2       3.7       0.8       0.0       2.5
 7 N  f-2             1.5       2.3       1.7       0.1       6.2       0.1
 7 N  f+3             2.0       0.0       2.8       2.8       0.5      15.2
 7 N  f-3             0.1       1.8       1.5       1.0      24.8       3.4
 8 H  s               0.2       0.0       0.0       0.0       0.0       0.3
11 H  s               0.0       0.4       0.1       0.4       0.1       0.1
12 H  s               0.0       0.5       0.2       0.2       0.1       0.0
13 H  s               0.0       0.4       0.3       0.1       0.0       0.1
14 H  s               0.2       0.8       0.2       0.5       0.1       0.0
14 H  py              0.0       0.2       0.0       0.1       0.0       0.0
15 H  s               5.0       1.6       0.5       0.5       3.9       3.6
15 H  pz              0.0       0.1       0.0       0.0       0.1       0.1
15 H  py              0.5       0.4       0.0       0.1       0.4       0.6
16 H  s               2.6       1.5       2.3       0.0       7.7       0.1
16 H  pz              0.0       0.2       0.0       0.0       0.3       0.0
16 H  px              0.1       0.3       0.3       0.0       0.9       0.0
16 H  py              0.2       0.0       0.1       0.0       0.1       0.0

                    294       295       296       297       298       299   
                  20.54695  20.85821  21.03861  21.09085  21.27906  21.29198
                   0.00000   0.00000   0.00000   0.00000   0.00000   0.00000
                  --------  --------  --------  --------  --------  --------
 0 C  s               0.8      89.3       4.7       1.8       0.0       1.2
 1 C  s              10.1       1.8       2.9       0.1       3.8      37.5
 1 C  px              0.1       0.2       0.0       0.0       0.2       0.1
 1 C  py              0.0       0.1       0.0       0.2       0.4       0.1
 1 C  dx2y2           0.0       0.1       0.0       0.1       0.2       0.0
 1 C  dxy             0.0       0.2       0.0       0.0       0.1       0.0
 2 C  s              18.6       4.0      14.6      15.9      37.4       0.7
 2 C  px              0.0       0.0       0.3       0.0       0.1       0.2
 3 C  s              19.7       0.3      32.0      28.2       2.9      11.0
 3 C  py              0.1       0.0       0.1       0.3       0.0       0.0
 4 C  s              22.2       1.3      21.5      35.9       7.1       5.5
 4 C  py              0.0       0.0       0.2       0.2       0.0       0.0
 5 C  s              18.8       0.0      20.5      14.9       2.9      36.8
 5 C  px              0.1       0.0       0.2       0.1       0.2       0.0
 6 C  s               7.4       1.5       1.8       1.0      43.6       5.2
 6 C  px              0.3       0.0       0.0       0.1       0.1       0.1
 6 C  py              0.1       0.0       0.0       0.2       0.0       0.4
 6 C  dx2y2           0.0       0.0       0.0       0.1       0.0       0.3
 6 C  dxy             0.1       0.0       0.0       0.0       0.0       0.0
 7 N  s               0.3       0.0       0.0       0.0       0.2       0.0
 7 N  px              0.1       0.0       0.0       0.0       0.1       0.0
 8 H  s               0.0       0.2       0.0       0.0       0.0       0.0
 8 H  py              0.0       0.1       0.0       0.0       0.0       0.0
 9 H  s               0.0       0.2       0.0       0.0       0.0       0.0
10 H  s               0.0       0.2       0.0       0.0       0.0       0.0
11 H  s               0.1       0.0       0.0       0.0       0.1       0.0
13 H  s               0.1       0.0       0.0       0.1       0.0       0.0

                    300       301   
                  21.76037  30.10783
                   0.00000   0.00000
                  --------  --------
 0 C  s               0.1       0.0
 1 C  s              42.1       0.0
 1 C  dx2y2           0.1       0.0
 2 C  s               6.7       0.0
 3 C  s               3.9       0.0
 4 C  s               4.4       0.0
 5 C  s               4.0       0.0
 6 C  s              37.2       0.1
 7 N  s               0.1      99.4


                      *****************************
                      * MAYER POPULATION ANALYSIS *
                      *****************************

  NA   - Mulliken gross atomic population
  ZA   - Total nuclear charge
  QA   - Mulliken gross atomic charge
  VA   - Mayer's total valence
  BVA  - Mayer's bonded valence
  FA   - Mayer's free valence

  ATOM       NA         ZA         QA         VA         BVA        FA
  0 C      6.4357     6.0000    -0.4357     3.8877     3.8877    -0.0000
  1 C      6.0160     6.0000    -0.0160     3.7449     3.7449    -0.0000
  2 C      6.1890     6.0000    -0.1890     3.8810     3.8810     0.0000
  3 C      6.2239     6.0000    -0.2239     3.8986     3.8986     0.0000
  4 C      6.1390     6.0000    -0.1390     3.8920     3.8920     0.0000
  5 C      6.3133     6.0000    -0.3133     3.9528     3.9528     0.0000
  6 C      5.7873     6.0000     0.2127     3.8277     3.8277    -0.0000
  7 N      7.4908     7.0000    -0.4908     3.0373     3.0373     0.0000
  8 H      0.8572     1.0000     0.1428     0.9727     0.9727    -0.0000
  9 H      0.8543     1.0000     0.1457     0.9598     0.9598     0.0000
 10 H      0.8543     1.0000     0.1457     0.9614     0.9614    -0.0000
 11 H      0.8470     1.0000     0.1530     0.9646     0.9646    -0.0000
 12 H      0.8460     1.0000     0.1540     0.9651     0.9651     0.0000
 13 H      0.8434     1.0000     0.1566     0.9627     0.9627     0.0000
 14 H      0.8481     1.0000     0.1519     0.9772     0.9772     0.0000
 15 H      0.7288     1.0000     0.2712     0.9300     0.9300     0.0000
 16 H      0.7259     1.0000     0.2741     0.9236     0.9236    -0.0000

  Mayer bond orders larger than 0.100000
B(  0-C ,  1-C ) :   0.9407 B(  0-C ,  8-H ) :   0.9826 B(  0-C ,  9-H ) :   0.9685 
B(  0-C , 10-H ) :   0.9747 B(  1-C ,  2-C ) :   1.4224 B(  1-C ,  6-C ) :   1.3154 
B(  2-C ,  3-C ) :   1.4046 B(  2-C , 11-H ) :   0.9729 B(  3-C ,  4-C ) :   1.4031 
B(  3-C , 12-H ) :   0.9857 B(  4-C ,  5-C ) :   1.4341 B(  4-C , 13-H ) :   0.9758 
B(  5-C ,  6-C ) :   1.3800 B(  5-C , 14-H ) :   0.9799 B(  6-C ,  7-N ) :   1.1215 
B(  7-N , 15-H ) :   0.9101 B(  7-N , 16-H ) :   0.9071 

-------
TIMINGS
-------

Total SCF time: 0 days 0 hours 3 min 4 sec 

Total time                  ....     184.435 sec
Sum of individual times     ....     179.930 sec  ( 97.6%)

SCF preparation             ....       0.343 sec  (  0.2%)
Fock matrix formation       ....     177.795 sec  ( 96.4%)
  Startup                   ....       0.063 sec  (  0.0% of F)
  Split-RI-J                ....       6.887 sec  (  3.9% of F)
  Chain of spheres X        ....     145.702 sec  ( 81.9% of F)
  XC integration            ....      19.390 sec  ( 10.9% of F)
    Basis function eval.    ....       4.154 sec  ( 21.4% of XC)
    Density eval.           ....       3.569 sec  ( 18.4% of XC)
    XC-Functional eval.     ....       3.779 sec  ( 19.5% of XC)
    XC-Potential eval.      ....       6.137 sec  ( 31.7% of XC)
  CPCM terms                ....       7.778 sec  (  4.4% of F)
Diagonalization             ....       0.000 sec  (  0.0%)
Density matrix formation    ....       0.237 sec  (  0.1%)
Total Energy calculation    ....       0.057 sec  (  0.0%)
Population analysis         ....       0.199 sec  (  0.1%)
Orbital Transformation      ....       0.080 sec  (  0.0%)
Orbital Orthonormalization  ....       0.000 sec  (  0.0%)
DIIS solution               ....       0.737 sec  (  0.4%)
  MO trafo                  ....       0.000 sec  (  0.0 % of DIIS)
  Orb grad                  ....       0.000 sec  (  0.0 % of DIIS)
  Energy W gradient         ....       0.000 sec  (  0.0 % of DIIS)
  DIIS error                ....       0.015 sec  (  2.0 % of DIIS)
  DIIS work                 ....       0.672 sec  ( 91.1 % of DIIS)
  Form Q                    ....       0.000 sec  (  0.0 % of DIIS)
  Form QpQm                 ....       0.000 sec  (  0.0 % of DIIS)
  Exp/Cayley                ....       0.000 sec  (  0.0 % of DIIS)
  Orb update                ....       0.000 sec  (  0.0 % of DIIS)
  Wake-sleep                ....       0.011 sec  (  1.5 % of DIIS)
SOSCF solution              ....       0.270 sec  (  0.1%)
  MO trafo                  ....       0.089 sec  ( 33.2 % of SOSCF)
  Orb grad                  ....       0.003 sec  (  1.1 % of SOSCF)
  Rot update                ....       0.096 sec  ( 35.5 % of SOSCF)
  Step                      ....       0.081 sec  ( 30.2 % of SOSCF)
Grid generation             ....       0.212 sec  (  0.1%)
Finished LeanSCF after 184.5 sec

Maximum memory used throughout the entire LEANSCF-calculation: 41.1 MB
------------------   -----------------
gCP correction             0.009748120
------------------   -----------------

-------------------------   --------------------
FINAL SINGLE POINT ENERGY      -326.943855843164
-------------------------   --------------------


------------------------------------------------------------------------------
                              ORCA PROPERTY CALCULATIONS
------------------------------------------------------------------------------

GBWName                                 ... sp_solv.gbw
Number of atoms                         ...     17
Number of basis functions               ...    302
Max core memory                         ...   1024 MB

Electric properties:
Dipole moment                           ... YES
Quadrupole moment                       ...  NO
Static polarizability (Dipole/Dipole)   ...  NO
Static polarizability (Dipole/Quad.)    ...  NO
Static polarizability (Quad./Quad.)     ...  NO
Static polarizability (Velocity)        ...  NO

Atomic electric properties:
Dipole moment                           ...  NO
Quadrupole moment                       ...  NO
Static polarizability                   ...  NO

Choice of electric origin               ... Center of mass
Position of electric origin             ...     0.004843     0.001198    -0.012382

General magnetic properties:
Magnetizability                         ...  NO

EPR properties:
g-Tensor (aka g-matrix)                 ...  NO
Zero-Field splitting spin-orbit         ...  NO
Zero-field splitting spin-spin          ...  NO
Hyperfine couplings                     ...  NO (   0 nuclei)
Quadrupole couplings                    ...  NO (   0 nuclei)
Contact density                         ...  NO (   0 nuclei)

NMR properties:
Chemical shifts                         ...  NO (   0 nuclei)
Spin-rotation constants                 ...  NO (   0 nuclei)
Spin-spin couplings                     ...  NO (   0 nuclei,    0 pairs)

Choice of magnetic origin               ... GIAO
Position of magnetic origin             ...     0.000000     0.000000     0.000000

Properties with geometric perturbations:
SCF Hessian                             ...  NO
IR spectrum                             ...  NO
VCD spectrum                            ...  NO
X-ray spectroscopy properties:
SCF XES/XAS/RIXS spectra                ...  NO


-------------
DIPOLE MOMENT
-------------

Method             : SCF
Type of density    : Electron Density
Multiplicity       :   1
Irrep              :   0
Energy             :  -326.9536039633635482 Eh
Relativity type    : 
Basis              : AO
                                X                 Y                 Z
Electronic contribution:      2.725894730       1.788530681      -0.038785188
Nuclear contribution   :     -3.473788244      -1.486265825       0.574099168
                        -----------------------------------------
Total Dipole Moment    :     -0.747893513       0.302264856       0.535313980
                        -----------------------------------------
Magnitude (a.u.)       :      0.968126958
Magnitude (Debye)      :      2.460783167



--------------------
Rotational spectrum 
--------------------
 
Rotational constants in cm-1:             0.107846             0.073181             0.044007 
Rotational constants in MHz :          3233.143596          2193.918588          1319.308457 

Dipole components along the rotational axes: 
x,y,z [a.u.] :     0.747092     0.298902     0.538313 
x,y,z [Debye]:     1.898957     0.759748     1.368284 

 

Dipole moment calculation done in   0.0 sec 

Maximum memory used throughout the entire PROP-calculation: 25.3 MB

--------------------------------
SUGGESTED CITATIONS FOR THIS RUN
--------------------------------

Below you find a list of papers that are relevant to this ORCA run
We neither can nor want to force you to cite these papers, but we appreciate if you do
You receive ORCA, which is the product of decades of hard work by many enthusiastic individuals, for free
The only thing we kindly ask in return is that you cite our papers,
We deeply appreciate it, if you show your appreciation for ORCA by not just citing the generic ORCA reference.

Please note that relegating all ORCA citations to the supporting information does *not* help us.
SI sections are not indexed - citations you put there will not count into any citation statistics
But we need these citations in order to attract the funding resources that allow us to do what we are doing

Therefore, if you are a happy ORCA user, please consider citing a few of the papers listed below in the main body of your paper

In addition to the list printed below, the program has created the file sp_solv.bibtex that contains the list in bibtex format
You can import this file easily into all common literature databanks and citation aid programs


List of essential papers. We consider these as the minimum necessary citations

  1. Neese,F.
     Software update: the ORCA program system, version 5.0
     WIRES Comput. Molec. Sci., 2022 12(1)e1606
     doi.org/10.1002/wcms.1606

List of papers to cite with high priority. The work reported in these papers was absolutely
necessary for this run to complete.
Our perspective: the developers of density functionals and basis sets usually get cited in chemistry papers
Good! But without the algorithms to do something with them, the functionals or basis sets would not do anything.
Hence, in our opinion, the algorithm design and method developments papers are equally worthy of getting cited

  1. Neese,F.
     An improvement of the resolution of the identity approximation for the formation of the Coulomb matrix
     J. Comp. Chem., 2003 24(14)1740-1747
     doi.org/10.1002/jcc.10318
  2. Neese,F.; Wennmohs,F.; Hansen,A.; Becker,U.
     Efficient, approximate and parallel Hartree-Fock and hybrid DFT calculations. A 'chain-of-spheres' algorithm for the Hartree-Fock exchange
     Chem. Phys., 2009 356(1-3)98-109
     doi.org/10.1016/j.chemphys.2008.10.036
  3. Garcia-Rates,M.; Neese,F.
     Effect of the Solute Cavity on the Solvation Energy and its Derivatives within the Framework of the Gaussian Charge Scheme
     J. Comput. Chem., 2020 41 922-939
     doi.org/10.1002/jcc.26139
  4. Helmich-Paris,B.; de Souza,B.; Neese,F.; Izsák,R.
     An improved chain of spheres for exchange algorithm
     J. Chem. Phys., 2021 155 104109
     doi.org/doi: 10.1063/5.0058766.
  5. Neese,F.
     The SHARK Integral Generation and Digestion System
     J. Comp. Chem., 2022  1-16
     doi.org/10.1002/jcc.26942

List of suggested additional citations. These are papers that are important in the 'surrounding' of 
of this run, or papers that preceded the highly important papers. If you like your results we are grateful for a citation.

  1. Izsak,R.; Neese,F.
     An overlap fitted chain of spheres exchange method
     J. Chem. Phys., 2011 135 144105
     doi.org/10.1063/1.3646921
  2. Izsak,R.; Hansen,A.; Neese,F.
     The resolution of identity and chain of spheres approximations for the LPNO-CCSD singles Fock term
     Molec. Phys., 2012 110 2413-2417
     doi.org/10.1080/00268976.2012.687466
  3. Neese,F.
     The ORCA program system
     WIRES Comput. Molec. Sci., 2012 2(1)73-78
     doi.org/10.1002/wcms.81
  4. Izsak,R.; Neese,F.; Klopper,W.
     Robust fitting techniques in the chain of spheres approximation to the Fock exchange: The role of the complementary space
     J. Chem. Phys., 2013 139 
     doi.org/10.1063/1.4819264
  5. Neese,F.
     Software update: the ORCA program system, version 4.0
     WIRES Comput. Molec. Sci., 2018 8(1)1-6
     doi.org/10.1002/wcms.1327
  6. Neese,F.; Wennmohs,F.; Becker,U.; Riplinger,C.
     The ORCA quantum chemistry program package
     J. Chem. Phys., 2020 152 Art. No. L224108
     doi.org/10.1063/5.0004608

List of optional additional citations

  1. Neese,F.
     Approximate second-order SCF convergence for spin unrestricted wavefunctions
     Chem. Phys. Lett., 2000 325(1-3)93-98
     doi.org/10.1016/s0009-2614(00)00662-x

Timings for individual modules:

Sum of individual times          ...      188.188 sec (=   3.136 min)
Startup calculation              ...        3.156 sec (=   0.053 min)   1.7 %
SCF iterations                   ...      184.922 sec (=   3.082 min)  98.3 %
Property calculations            ...        0.110 sec (=   0.002 min)   0.1 %
                             ****ORCA TERMINATED NORMALLY****
TOTAL RUN TIME: 0 days 0 hours 3 minutes 8 seconds 881 msec
