
                                 *****************
                                 * O   R   C   A *
                                 *****************

                                            #,                                       
                                            ###                                      
                                            ####                                     
                                            #####                                    
                                            ######                                   
                                           ########,                                 
                                     ,,################,,,,,                         
                               ,,#################################,,                 
                          ,,##########################################,,             
                       ,#########################################, ''#####,          
                    ,#############################################,,   '####,        
                  ,##################################################,,,,####,       
                ,###########''''           ''''###############################       
              ,#####''   ,,,,##########,,,,          '''####'''          '####       
            ,##' ,,,,###########################,,,                        '##       
           ' ,,###''''                  '''############,,,                           
         ,,##''                                '''############,,,,        ,,,,,,###''
      ,#''                                            '''#######################'''  
     '                                                          ''''####''''         
             ,#######,   #######,   ,#######,      ##                                
            ,#'     '#,  ##    ##  ,#'     '#,    #''#        ,####,   ,####,        
            ##       ##  ##   ,#'  ##            #'  '#       #'       #'  '#        
            ##       ##  #######   ##           ,######,      #####,   #    #        
            '#,     ,#'  ##    ##  '#,     ,#' ,#      #,     #,   #   #,  ,#        
             '#######'   ##     ##  '#######'  #'      '#     '####' # '####'        



                #########################################################
                #                        -***-                          #
                #          Department of theory and spectroscopy        #
                #                                                       #
                #                      Frank Neese                      #
                #                                                       #
                #     Directorship, Architecture, Infrastructure        #
                #                    SHARK, DRIVERS                     #
                #        Core code/Algorithms in most modules           #
                #                                                       #
                #        Max Planck Institute fuer Kohlenforschung      #
                #                Kaiser Wilhelm Platz 1                 #
                #                 D-45470 Muelheim/Ruhr                 #
                #                      Germany                          #
                #                                                       #
                #                  All rights reserved                  #
                #                        -***-                          #
                #########################################################


                         Program Version 6.0.0  -   RELEASE  -


 With contributions from (in alphabetic order):
   Daniel Aravena         : Magnetic Suceptibility
   Michael Atanasov       : Ab Initio Ligand Field Theory (pilot matlab implementation)
   Alexander A. Auer      : GIAO ZORA, VPT2 properties, NMR spectrum
   Ute Becker             : All parallelization in ORCA, NUMFREQ, NUMCALC
   Giovanni Bistoni       : ED, misc. LED, open-shell LED, HFLD
   Martin Brehm           : Molecular dynamics
   Dmytro Bykov           : pre 5.0 version of the SCF Hessian
   Marcos Casanova-Páez   : Triplet and SCS-CIS(D). UHF-(DLPNO)-IP/EA/STEOM-CCSD. UHF-CVS-IP/STEOM-CCSD
   Vijay G. Chilkuri      : MRCI spin determinant printing, contributions to CSF-ICE
   Pauline Colinet        : FMM embedding
   Dipayan Datta          : RHF DLPNO-CCSD density
   Achintya Kumar Dutta   : EOM-CC, STEOM-CC
   Nicolas Foglia         : Exact transition moments, OPA infrastructure, MCD improvements
   Dmitry Ganyushin       : Spin-Orbit,Spin-Spin,Magnetic field MRCI
   Miquel Garcia          : C-PCM and meta-GGA Hessian, CCSD/C-PCM, Gaussian charge scheme
   Tiago L. C. Gouveia    : GS-ROHF, GS-ROCIS
   Yang Guo               : DLPNO-NEVPT2, F12-NEVPT2, CIM, IAO-localization
   Andreas Hansen         : Spin unrestricted coupled pair/coupled cluster methods
   Ingolf Harden          : AUTO-CI MPn and infrastructure 
   Benjamin Helmich-Paris : MC-RPA, TRAH-(SCF,CASSCF), AVAS, COSX integrals, SCF dyn. polar.
   Lee Huntington         : MR-EOM, pCC
   Robert Izsak           : Overlap fitted RIJCOSX, COSX-SCS-MP3, EOM
   Riya Kayal             : Wick's Theorem for AUTO-CI, AUTO-CI UHF-CCSDT
   Emily Kempfer          : AUTO-CI, RHF CISDT and CCSDT
   Christian Kollmar      : KDIIS, OOCD, Brueckner-CCSD(T), CCSD density, CASPT2, CASPT2-K, improved NEVPT2
   Axel Koslowski         : Symmetry handling
   Simone Kossmann        : Meta GGA functionals, TD-DFT gradient, OOMP2, (MP2 Hessian; deprecated post 5.0)
   Lucas Lang             : DCDCAS
   Marvin Lechner         : AUTO-CI (C++ implementation), FIC-MRCC
   Spencer Leger          : CASSCF response
   Dagmar Lenk            : GEPOL surface, SMD, ORCA-2-JSON
   Dimitrios Liakos       : Extrapolation schemes; Compound Job, initial MDCI parallelization
   Dimitrios Manganas     : Further ROCIS development; embedding schemes. LFT, Crystal Embedding
   Dimitrios Pantazis     : SARC Basis sets
   Anastasios Papadopoulos: AUTO-CI, single reference methods and gradients
   Taras Petrenko         : pre 6.0 DFT Hessian and TD-DFT gradient, (ASA, deprecated), ECA, 1-Electron XAS/XES, NRVS
   Peter Pinski           : DLPNO-MP2, DLPNO-MP2 Gradient
   Christoph Reimann      : Effective Core Potentials
   Marius Retegan         : Local ZFS, SOC
   Christoph Riplinger    : Optimizer, TS searches, QM/MM, DLPNO-CCSD(T), (RO)-DLPNO pert. Triples
   Michael Roemelt        : Original ROCIS implementation
   Masaaki Saitow         : Open-shell DLPNO-CCSD energy and density
   Barbara Sandhoefer     : DKH picture change effects
   Kantharuban Sivalingam : CASSCF convergence/infrastructure, NEVPT2 and variants, FIC-MRCI
   Bernardo de Souza      : ESD, SOC TD-DFT
   Georgi Stoychev        : AutoAux, RI-MP2 NMR, DLPNO-MP2 response, X2C
   Van Anh Tran           : RI-MP2 g-tensors
   Willem Van den Heuvel  : Paramagnetic NMR
   Zikuan Wang            : NOTCH, Electric field optimization 
   Frank Wennmohs         : Technical directorship and infrastructure
   Hang Xu                : AUTO-CI-Response properties 


 We gratefully acknowledge several colleagues who have allowed us to
 interface, adapt or use parts of their codes:
   Stefan Grimme, W. Hujo, H. Kruse, P. Pracht,  : VdW corrections, initial TS optimization,
                  C. Bannwarth, S. Ehlert,         DFT functionals, gCP, sTDA/sTD-DF
                  L. Wittmann, M. Mueller
   Ed Valeev, F. Pavosevic, A. Kumar             : LibInt (2-el integral package), F12 methods
   Garnet Chan, S. Sharma, J. Yang, R. Olivares  : DMRG
   Ulf Ekstrom                                   : XCFun DFT Library
   Mihaly Kallay                                 : mrcc  (arbitrary order and MRCC methods)
   Frank Weinhold                                : gennbo (NPA and NBO analysis)
   Simon Mueller                                 : openCOSMO-RS
   Christopher J. Cramer and Donald G. Truhlar   : smd solvation model
   Lars Goerigk                                  : TD-DFT with DH, B97 family of functionals
   V. Asgeirsson, H. Jonsson                     : NEB implementation
   FAccTs GmbH                                   : IRC, NEB, NEB-TS, DLPNO-Multilevel, CI-OPT
                                                   MM, QMMM, 2- and 3-layer-ONIOM, Crystal-QMMM,
                                                   LR-CPCM, SF, NACMEs, symmetry and pop. for TD-DFT,
                                                   nearIR, NL-DFT gradient (VV10), updates on ESD,
                                                   ML-optimized integration grids, MBIS, APM,
                                                   GOAT, DOCKER, SOLVATOR, interface openCOSMO-RS
   S Lehtola, MJT Oliveira, MAL Marques          : LibXC Library
   Liviu Ungur et al                             : ANISO software


 Your calculation uses the libint2 library for the computation of 2-el integrals
 For citations please refer to: http://libint.valeyev.net

 Your ORCA version has been built with support for libXC version: 6.2.2
 For citations please refer to: https://libxc.gitlab.io

 This ORCA versions uses:
   CBLAS   interface :  Fast vector & matrix operations
   LAPACKE interface :  Fast linear algebra routines
   SCALAPACK package :  Parallel linear algebra routines
   Shared memory     :  Shared parallel matrices
   BLAS/LAPACK       :  OpenBLAS 0.3.27  USE64BITINT DYNAMIC_ARCH NO_AFFINITY SapphireRapids SINGLE_THREADED
        Core in use  :  SapphireRapids
   Copyright (c) 2011-2014, The OpenBLAS Project


Your calculation utilizes the geometrical counterpoise correction gCP
Please cite in your paper:
H.Kruse, S. Grimme J.Chem.Phys., 136, (2012), 154101 
   

Your calculation utilizes the atom-pairwise dispersion correction
based on EEQ partial charges (D4)


================================================================================

----- Orbital basis set information -----
Your calculation utilizes the basis: def2-mTZVPP
   Stefan Grimme, Andreas Hansen, Sebastian Ehlert, and Jan-Michael Mewes 
   J. Chem. Phys. 154, 064103 (2021). DOI: 10.1063/5.0040021

----- AuxJ basis set information -----
Your calculation utilizes the auxiliary basis: def2/J
   F. Weigend, Phys. Chem. Chem. Phys. 8, 1057 (2006).

================================================================================
                                        WARNINGS
                       Please study these warnings very carefully!
================================================================================

Using LibXC functional ID 497 : Re-regularized SCAN exchange by Furness et al
[ 1]  J. W. Furness, A. D. Kaplan, J. Ning, J. P. Perdew, and J. Sun.,  J. Phys. Chem. Lett. 11, 8208-8215 (2020)
[ 2]  J. W. Furness, A. D. Kaplan, J. Ning, J. P. Perdew, and J. Sun.,  J. Phys. Chem. Lett. 11, 9248-9248 (2020)
Using LibXC functional ID 498 : Re-regularized SCAN correlation by Furness et al
[ 1]  J. W. Furness, A. D. Kaplan, J. Ning, J. P. Perdew, and J. Sun.,  J. Phys. Chem. Lett. 11, 8208-8215 (2020)
[ 2]  J. W. Furness, A. D. Kaplan, J. Ning, J. P. Perdew, and J. Sun.,  J. Phys. Chem. Lett. 11, 9248-9248 (2020)
Using LibXC functional ID 497 : Re-regularized SCAN exchange by Furness et al
[ 1]  J. W. Furness, A. D. Kaplan, J. Ning, J. P. Perdew, and J. Sun.,  J. Phys. Chem. Lett. 11, 8208-8215 (2020)
[ 2]  J. W. Furness, A. D. Kaplan, J. Ning, J. P. Perdew, and J. Sun.,  J. Phys. Chem. Lett. 11, 9248-9248 (2020)
Using LibXC functional ID 498 : Re-regularized SCAN correlation by Furness et al
[ 1]  J. W. Furness, A. D. Kaplan, J. Ning, J. P. Perdew, and J. Sun.,  J. Phys. Chem. Lett. 11, 8208-8215 (2020)
[ 2]  J. W. Furness, A. D. Kaplan, J. Ning, J. P. Perdew, and J. Sun.,  J. Phys. Chem. Lett. 11, 9248-9248 (2020)

================================================================================
                                       INPUT FILE
================================================================================
NAME = sp_gas.inp
|  1> ! r2scan-3c def2/J RI DEFGRID2 scfconv6 printgap
|  2> %output
|  3>     printlevel normal
|  4> end
|  5> * xyz 0 1
|  6> C 4.6774355104 -2.0066106416 -0.3674662981
|  7> C 4.0296684056 -1.6752158556 0.9608204919
|  8> O 3.3396151507 -0.4107097553 0.9493558912
|  9> P 2.2547306666 0.0407261602 -0.1165882984
| 10> S 2.8956439289 0.6732197534 -1.8635976276
| 11> O 1.4760398938 1.1357387268 0.7370471451
| 12> C 1.6641234015 2.5463961365 0.5341005908
| 13> C 2.9796076704 3.0056836201 1.1260334675
| 14> S 0.8771895957 -1.5592536367 -0.1235772134
| 15> C -0.0512763585 -1.0410102328 -1.5900368849
| 16> S -0.7366111169 0.6435791813 -1.4795772034
| 17> P -2.3783243443 0.2693315647 -0.2027421813
| 18> S -3.3629691473 1.8540183038 0.3888019375
| 19> O -1.8299802084 -0.6564208989 0.969335968
| 20> C -1.3563712844 -0.1515852498 2.2299794791
| 21> C -1.4424832525 -1.2809867955 3.2364955132
| 22> O -3.1532681165 -0.7796015443 -1.1020115345
| 23> C -4.5560674184 -1.0594005122 -0.9037004281
| 24> C -4.8184592831 -1.7216631016 0.4320248383
| 25> H 3.9156680305 -2.1444584228 -1.1336213242
| 26> H 5.3370318876 -1.2007913987 -0.6807887202
| 27> H 5.2509739293 -2.9227583758 -0.2699357387
| 28> H 4.7748063741 -1.552205226 1.7488014951
| 29> H 3.3119984685 -2.4496143326 1.2453169494
| 30> H 1.6225314838 2.7553599647 -0.5405517242
| 31> H 0.8066477798 3.0091044109 1.0261867476
| 32> H 3.8015864811 2.5112808217 0.609030107
| 33> H 3.076611698 4.079773156 1.0044944916
| 34> H 3.0253863806 2.7517422686 2.1815322684
| 35> H -0.8564650005 -1.7566806604 -1.7301452162
| 36> H 0.6195113443 -1.0178622897 -2.4481624228
| 37> H -0.323267489 0.1854855862 2.1043965325
| 38> H -1.9770667942 0.7035041121 2.518876677
| 39> H -0.8528115335 -2.124871081 2.8891707525
| 40> H -1.0546517275 -0.9372638172 4.1896733289
| 41> H -2.4742989835 -1.5966630452 3.3614089152
| 42> H -5.1088391722 -0.1184415646 -0.9841278345
| 43> H -4.8094698973 -1.7123437767 -1.7399187037
| 44> H -5.8626294108 -2.0129151112 0.4893662944
| 45> H -4.1892508882 -2.6003302725 0.5474841668
| 46> H -4.6025745788 -1.0215618788 1.2380520927
| 47> *
| 48> 
| 49>                          ****END OF INPUT****
================================================================================

                       ****************************
                       * Single Point Calculation *
                       ****************************

---------------------------------
CARTESIAN COORDINATES (ANGSTROEM)
---------------------------------
  C      4.677436   -2.006611   -0.367466
  C      4.029668   -1.675216    0.960820
  O      3.339615   -0.410710    0.949356
  P      2.254731    0.040726   -0.116588
  S      2.895644    0.673220   -1.863598
  O      1.476040    1.135739    0.737047
  C      1.664123    2.546396    0.534101
  C      2.979608    3.005684    1.126033
  S      0.877190   -1.559254   -0.123577
  C     -0.051276   -1.041010   -1.590037
  S     -0.736611    0.643579   -1.479577
  P     -2.378324    0.269332   -0.202742
  S     -3.362969    1.854018    0.388802
  O     -1.829980   -0.656421    0.969336
  C     -1.356371   -0.151585    2.229979
  C     -1.442483   -1.280987    3.236496
  O     -3.153268   -0.779602   -1.102012
  C     -4.556067   -1.059401   -0.903700
  C     -4.818459   -1.721663    0.432025
  H      3.915668   -2.144458   -1.133621
  H      5.337032   -1.200791   -0.680789
  H      5.250974   -2.922758   -0.269936
  H      4.774806   -1.552205    1.748801
  H      3.311998   -2.449614    1.245317
  H      1.622531    2.755360   -0.540552
  H      0.806648    3.009104    1.026187
  H      3.801586    2.511281    0.609030
  H      3.076612    4.079773    1.004494
  H      3.025386    2.751742    2.181532
  H     -0.856465   -1.756681   -1.730145
  H      0.619511   -1.017862   -2.448162
  H     -0.323267    0.185486    2.104397
  H     -1.977067    0.703504    2.518877
  H     -0.852812   -2.124871    2.889171
  H     -1.054652   -0.937264    4.189673
  H     -2.474299   -1.596663    3.361409
  H     -5.108839   -0.118442   -0.984128
  H     -4.809470   -1.712344   -1.739919
  H     -5.862629   -2.012915    0.489366
  H     -4.189251   -2.600330    0.547484
  H     -4.602575   -1.021562    1.238052

----------------------------
CARTESIAN COORDINATES (A.U.)
----------------------------
  NO LB      ZA    FRAG     MASS         X           Y           Z
   0 C     6.0000    0    12.011    8.839072   -3.791945   -0.694411
   1 C     6.0000    0    12.011    7.614970   -3.165699    1.815688
   2 O     8.0000    0    15.999    6.310958   -0.776129    1.794023
   3 P    15.0000    0    30.974    4.260823    0.076961   -0.220320
   4 S    16.0000    0    32.060    5.471974    1.272201   -3.521689
   5 O     8.0000    0    15.999    2.789311    2.146235    1.392817
   6 C     6.0000    0    12.011    3.144737    4.811991    1.009304
   7 C     6.0000    0    12.011    5.630642    5.679919    2.127895
   8 S    16.0000    0    32.060    1.657648   -2.946562   -0.233527
   9 C     6.0000    0    12.011   -0.096898   -1.967224   -3.004734
  10 S    16.0000    0    32.060   -1.391993    1.216188   -2.795996
  11 P    15.0000    0    30.974   -4.494382    0.508963   -0.383127
  12 S    16.0000    0    32.060   -6.355091    3.503587    0.734729
  13 O     8.0000    0    15.999   -3.458161   -1.240456    1.831780
  14 C     6.0000    0    12.011   -2.563170   -0.286455    4.214050
  15 C     6.0000    0    12.011   -2.725898   -2.420714    6.116090
  16 O     8.0000    0    15.999   -5.958813   -1.473233   -2.082500
  17 C     6.0000    0    12.011   -8.609720   -2.001977   -1.707746
  18 C     6.0000    0    12.011   -9.105568   -3.253472    0.816409
  19 H     1.0000    0     1.008    7.399540   -4.052439   -2.142234
  20 H     1.0000    0     1.008   10.085529   -2.269167   -1.286504
  21 H     1.0000    0     1.008    9.922903   -5.523213   -0.510105
  22 H     1.0000    0     1.008    9.023076   -2.933243    3.304756
  23 H     1.0000    0     1.008    6.258770   -4.629100    2.353308
  24 H     1.0000    0     1.008    3.066140    5.206876   -1.021495
  25 H     1.0000    0     1.008    1.524343    5.686383    1.939212
  26 H     1.0000    0     1.008    7.183957    4.745633    1.150900
  27 H     1.0000    0     1.008    5.813954    7.709654    1.898219
  28 H     1.0000    0     1.008    5.717152    5.200039    4.122499
  29 H     1.0000    0     1.008   -1.618484   -3.319645   -3.269501
  30 H     1.0000    0     1.008    1.170707   -1.923481   -4.626357
  31 H     1.0000    0     1.008   -0.610887    0.350517    3.976733
  32 H     1.0000    0     1.008   -3.736115    1.329430    4.759987
  33 H     1.0000    0     1.008   -1.611580   -4.015424    5.459741
  34 H     1.0000    0     1.008   -1.993003   -1.771172    7.917335
  35 H     1.0000    0     1.008   -4.675747   -3.017256    6.352142
  36 H     1.0000    0     1.008   -9.654307   -0.223822   -1.859732
  37 H     1.0000    0     1.008   -9.088581   -3.235861   -3.287970
  38 H     1.0000    0     1.008  -11.078764   -3.803858    0.924768
  39 H     1.0000    0     1.008   -7.916537   -4.913912    1.034595
  40 H     1.0000    0     1.008   -8.697605   -1.930472    2.339579

--------------------------------
INTERNAL COORDINATES (ANGSTROEM)
--------------------------------
 C      0   0   0     0.000000000000     0.00000000     0.00000000
 C      1   0   0     1.514519898429     0.00000000     0.00000000
 O      2   1   0     1.440583426728   112.95213993     0.00000000
 P      3   2   1     1.586507404643   125.63861939    51.90208798
 S      4   3   2     1.965415872416   117.76190760   281.06790616
 O      4   3   2     1.591887342451    99.78431558   156.56467801
 C      6   4   3     1.437538534201   122.36444066   103.45241783
 C      7   6   4     1.513878589859   110.86712199   284.48174792
 S      4   3   2     2.111303767211   103.45929737    51.84915220
 C      9   4   3     1.811388755052    96.90935071   190.96219882
 S     10   9   4     1.822011681194   114.09449384   303.83149227
 P     11  10   9     2.113194565868    99.50348992   283.42441158
 S     12  11  10     1.957212787011   115.47179052   173.76786410
 O     12  11  10     1.591058170937   106.28447070    45.01628978
 C     14  12  11     1.438188620304   123.70910048    94.02213081
 C     15  14  12     1.515268177380   107.57173953   158.11041475
 O     12  11  10     1.584135059530    98.87698200   300.05873843
 C     17  12  11     1.444112405172   121.70413982   199.80717365
 C     18  17  12     1.513804219600   111.98145501   294.17877061
 H      1   2   3     1.089167217755   110.21168647   294.93104781
 H      1   2   3     1.087466309011   110.48569212    54.68322153
 H      1   2   3     1.085258125448   109.38604395   175.07539429
 H      2   1   3     1.091456031409   111.45961431   243.93885463
 H      2   1   3     1.093472164313   110.72810119   121.29406388
 H      7   6   4     1.095569882412   108.70420700    46.77831213
 H      7   6   4     1.091564095563   104.45063644   163.43828339
 H      8   7   6     1.089667732418   109.40937919    63.15867410
 H      8   7   6     1.085287904274   109.51988698   182.79005707
 H      8   7   6     1.086581620961   110.21389397   303.50537720
 H     10   9   4     1.086343985415   107.20823761   182.07846129
 H     10   9   4     1.089436280052   109.15746167    60.99512530
 H     15  14  12     1.093933854046   108.57402268   278.39702955
 H     15  14  12     1.095400531164   108.57785645    36.72458026
 H     16  15  14     1.086502606024   109.61663229    58.02965005
 H     16  15  14     1.084945494455   109.09445920   177.85634285
 H     16  15  14     1.086231354437   110.30266667   297.92870860
 H     18  17  12     1.094270953909   108.30046514    56.52255105
 H     18  17  12     1.090783538295   103.67242922   173.27473531
 H     19  18  17     1.085544578202   109.31198966   186.31434629
 H     19  18  17     1.086871684224   110.30795158   306.80747069
 H     19  18  17     1.089232694401   109.71854382    66.95340193

---------------------------
INTERNAL COORDINATES (A.U.)
---------------------------
 C      0   0   0     0.000000000000     0.00000000     0.00000000
 C      1   0   0     2.862027832405     0.00000000     0.00000000
 O      2   1   0     2.722308149582   112.95213993     0.00000000
 P      3   2   1     2.998064504213   125.63861939    51.90208798
 S      4   3   2     3.714097738127   117.76190760   281.06790616
 O      4   3   2     3.008231113288    99.78431558   156.56467801
 C      6   4   3     2.716554136598   122.36444066   103.45241783
 C      7   6   4     2.860815934840   110.86712199   284.48174792
 S      4   3   2     3.989785905544   103.45929737    51.84915220
 C      9   4   3     3.423028669114    96.90935071   190.96219882
 S     10   9   4     3.443103090261   114.09449384   303.83149227
 P     11  10   9     3.993358997180    99.50348992   283.42441158
 S     12  11  10     3.698596153260   115.47179052   173.76786410
 O     12  11  10     3.006664206208   106.28447070    45.01628978
 C     14  12  11     2.717782621297   123.70910048    94.02213081
 C     15  14  12     2.863441874694   107.57173953   158.11041475
 O     12  11  10     2.993581421655    98.87698200   300.05873843
 C     17  12  11     2.728976952373   121.70413982   199.80717365
 C     18  17  12     2.860675395418   111.98145501   294.17877061
 H      1   2   3     2.058227755603   110.21168647   294.93104781
 H      1   2   3     2.055013503897   110.48569212    54.68322153
 H      1   2   3     2.050840641710   109.38604395   175.07539429
 H      2   1   3     2.062552986579   111.45961431   243.93885463
 H      2   1   3     2.066362925617   110.72810119   121.29406388
 H      7   6   4     2.070327038331   108.70420700    46.77831213
 H      7   6   4     2.062757198235   104.45063644   163.43828339
 H      8   7   6     2.059173591242   109.40937919    63.15867410
 H      8   7   6     2.050896915535   109.51988698   182.79005707
 H      8   7   6     2.053341685769   110.21389397   303.50537720
 H     10   9   4     2.052892619666   107.20823761   182.07846129
 H     10   9   4     2.058736209656   109.15746167    60.99512530
 H     15  14  12     2.067235392772   108.57402268   278.39702955
 H     15  14  12     2.070007010852   108.57785645    36.72458026
 H     16  15  14     2.053192369178   109.61663229    58.02965005
 H     16  15  14     2.050249854751   109.09445920   177.85634285
 H     16  15  14     2.052679777965   110.30266667   297.92870860
 H     18  17  12     2.067872419192   108.30046514    56.52255105
 H     18  17  12     2.061282158768   103.67242922   173.27473531
 H     19  18  17     2.051381958966   109.31198966   186.31434629
 H     19  18  17     2.053889825897   110.30795158   306.80747069
 H     19  18  17     2.058351488531   109.71854382    66.95340193

---------------------
BASIS SET INFORMATION
---------------------
There are 5 groups of distinct atoms

 Group   1 Type C   : 11s6p1d contracted to 5s3p1d pattern {62111/411/1}
 Group   2 Type O   : 11s6p2d contracted to 5s3p2d pattern {62111/411/11}
 Group   3 Type P   : 14s9p2d contracted to 5s4p2d pattern {73211/6111/11}
 Group   4 Type S   : 14s9p2d contracted to 5s4p2d pattern {73211/6111/11}
 Group   5 Type H   : 4s1p contracted to 2s1p pattern {31/1}

Atom   0C    basis set group =>   1
Atom   1C    basis set group =>   1
Atom   2O    basis set group =>   2
Atom   3P    basis set group =>   3
Atom   4S    basis set group =>   4
Atom   5O    basis set group =>   2
Atom   6C    basis set group =>   1
Atom   7C    basis set group =>   1
Atom   8S    basis set group =>   4
Atom   9C    basis set group =>   1
Atom  10S    basis set group =>   4
Atom  11P    basis set group =>   3
Atom  12S    basis set group =>   4
Atom  13O    basis set group =>   2
Atom  14C    basis set group =>   1
Atom  15C    basis set group =>   1
Atom  16O    basis set group =>   2
Atom  17C    basis set group =>   1
Atom  18C    basis set group =>   1
Atom  19H    basis set group =>   5
Atom  20H    basis set group =>   5
Atom  21H    basis set group =>   5
Atom  22H    basis set group =>   5
Atom  23H    basis set group =>   5
Atom  24H    basis set group =>   5
Atom  25H    basis set group =>   5
Atom  26H    basis set group =>   5
Atom  27H    basis set group =>   5
Atom  28H    basis set group =>   5
Atom  29H    basis set group =>   5
Atom  30H    basis set group =>   5
Atom  31H    basis set group =>   5
Atom  32H    basis set group =>   5
Atom  33H    basis set group =>   5
Atom  34H    basis set group =>   5
Atom  35H    basis set group =>   5
Atom  36H    basis set group =>   5
Atom  37H    basis set group =>   5
Atom  38H    basis set group =>   5
Atom  39H    basis set group =>   5
Atom  40H    basis set group =>   5
---------------------------------
AUXILIARY/J BASIS SET INFORMATION
---------------------------------
There are 5 groups of distinct atoms

 Group   1 Type C   : 12s5p4d2f1g contracted to 6s4p3d1f1g pattern {711111/2111/211/2/1}
 Group   2 Type O   : 12s5p4d2f1g contracted to 6s4p3d1f1g pattern {711111/2111/211/2/1}
 Group   3 Type P   : 14s5p5d2f1g contracted to 8s4p3d1f1g pattern {71111111/2111/311/2/1}
 Group   4 Type S   : 14s5p5d2f1g contracted to 8s4p3d1f1g pattern {71111111/2111/311/2/1}
 Group   5 Type H   : 5s2p1d contracted to 3s1p1d pattern {311/2/1}

Atom   0C    basis set group =>   1
Atom   1C    basis set group =>   1
Atom   2O    basis set group =>   2
Atom   3P    basis set group =>   3
Atom   4S    basis set group =>   4
Atom   5O    basis set group =>   2
Atom   6C    basis set group =>   1
Atom   7C    basis set group =>   1
Atom   8S    basis set group =>   4
Atom   9C    basis set group =>   1
Atom  10S    basis set group =>   4
Atom  11P    basis set group =>   3
Atom  12S    basis set group =>   4
Atom  13O    basis set group =>   2
Atom  14C    basis set group =>   1
Atom  15C    basis set group =>   1
Atom  16O    basis set group =>   2
Atom  17C    basis set group =>   1
Atom  18C    basis set group =>   1
Atom  19H    basis set group =>   5
Atom  20H    basis set group =>   5
Atom  21H    basis set group =>   5
Atom  22H    basis set group =>   5
Atom  23H    basis set group =>   5
Atom  24H    basis set group =>   5
Atom  25H    basis set group =>   5
Atom  26H    basis set group =>   5
Atom  27H    basis set group =>   5
Atom  28H    basis set group =>   5
Atom  29H    basis set group =>   5
Atom  30H    basis set group =>   5
Atom  31H    basis set group =>   5
Atom  32H    basis set group =>   5
Atom  33H    basis set group =>   5
Atom  34H    basis set group =>   5
Atom  35H    basis set group =>   5
Atom  36H    basis set group =>   5
Atom  37H    basis set group =>   5
Atom  38H    basis set group =>   5
Atom  39H    basis set group =>   5
Atom  40H    basis set group =>   5

Checking for AutoStart:
The File: sp_gas.gbw exists
Trying to determine its content:
     ... Fine, the file contains calculation information
     ... Fine, the calculation information was read
     ... Fine, the file contains a basis set
     ... Fine, the basis set was read
     ... Fine, the file contains a geometry
     ... Fine, the geometry was read
     ... Fine, the file contains a set of orbitals
     ... Fine, the orbitals can be read
     => possible old guess file was deleted
     => GBW file was renamed to GES file
     => GES file is set as startup file
     => Guess is set to MORead
     ... now leaving AutoStart

------------------------------------------------------------------------------
                             ORCA STARTUP CALCULATIONS
                           -- RI-GTO INTEGRALS CHOSEN --
------------------------------------------------------------------------------
------------------------------------------------------------------------------
                   ___                                                        
                  /   \      - P O W E R E D   B Y -                         
                 /     \                                                     
                 |  |  |   _    _      __       _____    __    __             
                 |  |  |  | |  | |    /  \     |  _  \  |  |  /  |          
                  \  \/   | |  | |   /    \    | | | |  |  | /  /          
                 / \  \   | |__| |  /  /\  \   | |_| |  |  |/  /          
                |  |  |   |  __  | /  /__\  \  |    /   |      \           
                |  |  |   | |  | | |   __   |  |    \   |  |\   \          
                \     /   | |  | | |  |  |  |  | |\  \  |  | \   \       
                 \___/    |_|  |_| |__|  |__|  |_| \__\ |__|  \__/        
                                                                              
                      - O R C A' S   B I G   F R I E N D -                    
                                      &                                       
                       - I N T E G R A L  F E E D E R -                       
                                                                              
 v1 FN, 2020, v2 2021, v3 2022-2024                                           
------------------------------------------------------------------------------


----------------------
SHARK INTEGRAL PACKAGE
----------------------

Number of atoms                             ...     41
Number of basis functions                   ...    539
Number of shells                            ...    253
Maximum angular momentum                    ...      2
Integral batch strategy                     ... SHARK/LIBINT Hybrid
RI-J (if used) integral strategy            ... SPLIT-RIJ (Revised 2003 algorithm where possible)
Printlevel                                  ...      1
Contraction scheme used                     ... SEGMENTED contraction
Prescreening option                         ... SCHWARTZ
   Thresh                                   ... 1.000e-10
   Tcut                                     ... 1.000e-11
   Tpresel                                  ... 1.000e-11 
Coulomb Range Separation                    ... NOT USED
Exchange Range Separation                   ... NOT USED
Multipole approximations                    ... NOT USED
Finite Nucleus Model                        ... NOT USED
CABS basis                                  ... NOT available
Auxiliary Coulomb fitting basis             ... AVAILABLE
   # of basis functions in Aux-J            ...   1185
   # of shells in Aux-J                     ...    407
   Maximum angular momentum in Aux-J        ...      4
Auxiliary J/K fitting basis                 ... NOT available
Auxiliary Correlation fitting basis         ... NOT available
Auxiliary 'external' fitting basis          ... NOT available

Checking pre-screening integrals            ... done (  0.0 sec) Dimension = 253
Check shell pair data                       ... done (  0.0 sec)
Shell pair information
Shell pair cut-off parameter TPreSel        ...   1.0e-11
Total number of shell pairs                 ...     32131
Shell pairs after pre-screening             ...     21500
Total number of primitive shell pairs       ...    124843
Primitive shell pairs kept                  ...     50182
          la=0 lb=0:   6073 shell pairs
          la=1 lb=0:   7794 shell pairs
          la=1 lb=1:   2567 shell pairs
          la=2 lb=0:   2870 shell pairs
          la=2 lb=1:   1848 shell pairs
          la=2 lb=2:    348 shell pairs

Calculating one electron integrals          ... done (  0.1 sec)
Calculating RI/J V-Matrix + Cholesky decomp.... done (  0.1 sec)
Calculating Nuclear repulsion               ... done (  0.0 sec) ENN=   2779.559545290113 Eh

Diagonalization of the overlap matrix:
Smallest eigenvalue                        ... 3.031e-04
Time for diagonalization                   ...    0.030 sec
Threshold for overlap eigenvalues          ... 1.000e-07
Number of eigenvalues below threshold      ... 0
Time for construction of square roots      ...    0.051 sec
Total time needed                          ...    0.089 sec

-------------------
DFT GRID GENERATION
-------------------

General Integration Accuracy     IntAcc      ... 4.388
Radial Grid Type                 RadialGrid  ... OptM3 with GC (2021)
Angular Grid (max. ang.)         AngularGrid ... 4 (Lebedev-302)
Angular grid pruning method      GridPruning ... 4 (adaptive)
Weight generation scheme         WeightScheme... mBecke (2022)
Basis function cutoff            BFCut       ... 1.0000e-10
Integration weight cutoff        WCut        ... 1.0000e-14
Partially contracted basis set               ... off
Rotationally invariant grid construction     ... off
Angular grids for H and He will be reduced by one unit
Diffuse basis detected: some atoms will have their outermost
                        angular grid increased by 1.

Total number of grid points                  ...   192531
Total number of batches                      ...     3027
Average number of points per batch           ...       63
Average number of grid points per atom       ...     4696
Initializing property integral containers    ... done (  0.0 sec)

SHARK setup successfully completed in   3.1 seconds

Maximum memory used throughout the entire STARTUP-calculation: 102.2 MB
-------------------------------------------------------------------------------
                                 ORCA GUESS
                   Start orbitals & Density for SCF / CASSCF
-------------------------------------------------------------------------------

------------
SCF SETTINGS
------------
Hamiltonian:
 Density Functional     Method          .... DFT(GTOs)
  Functional kind                       .... Exchange
  Functional name                       .... Re-regularized SCAN exchange by Furness et al
  Functional family                     .... MGGA
  Functional refs                              
    [ 0] J. W. Furness, A. D. Kaplan, J. Ning, J. P. Perdew, and J. Sun.,  J. Phys. Chem. Lett. 11, 8208-8215 (2020), doi: 10.1021/acs.jpclett.0c02405
    [ 1] J. W. Furness, A. D. Kaplan, J. Ning, J. P. Perdew, and J. Sun.,  J. Phys. Chem. Lett. 11, 9248-9248 (2020), doi: 10.1021/acs.jpclett.0c03077
  Functional external parameters        .... 6
    Parameter  0 _c1        =  6.670000e-01 : c1 parameter        
    Parameter  1 _c2        =  8.000000e-01 : c2 parameter        
    Parameter  2 _d         =  1.240000e+00 : d parameter         
    Parameter  3 _k1        =  6.500000e-02 : k1 parameter        
    Parameter  4 _eta       =  1.000000e-03 : eta parameter       
    Parameter  5 _dp2       =  3.610000e-01 : dp2 parameter       
  Functional kind                       .... Correlation
  Functional name                       .... Re-regularized SCAN correlation by Furness et al
  Functional family                     .... MGGA
  Functional refs                              
    [ 0] J. W. Furness, A. D. Kaplan, J. Ning, J. P. Perdew, and J. Sun.,  J. Phys. Chem. Lett. 11, 8208-8215 (2020), doi: 10.1021/acs.jpclett.0c02405
    [ 1] J. W. Furness, A. D. Kaplan, J. Ning, J. P. Perdew, and J. Sun.,  J. Phys. Chem. Lett. 11, 9248-9248 (2020), doi: 10.1021/acs.jpclett.0c03077
  Functional external parameters        .... 1
    Parameter  0 _eta       =  1.000000e-03 : Regularization parameter
 Gradients option       PostSCFGGA      .... off
 RI-approximation to the Coulomb term is turned on
   Number of AuxJ basis functions       .... 1185


General Settings:
 Integral files         IntName         .... sp_gas
 Hartree-Fock type      HFTyp           .... RHF
 Total Charge           Charge          ....    0
 Multiplicity           Mult            ....    1
 Number of Electrons    NEL             ....  202
 Basis Dimension        Dim             ....  539
 Nuclear Repulsion      ENuc            ....   2779.5595452901 Eh

Convergence Acceleration:
 AO-DIIS                CNVDIIS         .... on
   Start iteration      DIISMaxIt       ....    12
   Startup error        DIISStart       ....  0.200000
   # of expansion vecs  DIISMaxEq       ....     5
   Bias factor          DIISBfac        ....   1.050
   Max. coefficient     DIISMaxC        ....  10.000
 MO-DIIS                CNVKDIIS        .... off
 Trust-Rad. Augm. Hess. CNVTRAH         .... auto
   Auto Start mean grad. ratio tolernc. ....  1.125000
   Auto Start start iteration           ....     1
   Auto Start num. interpolation iter.  ....    10
   Max. Number of Micro iterations      ....    24
   Max. Number of Macro iterations      .... Maxiter - #DIIS iter
   Number of Davidson start vectors     ....     2
   Converg. threshold    (grad. norm)   ....   3.330e-04
   Grad. Scal. Fac. for Micro threshold ....   0.100
   Minimum threshold for Micro iter.    ....   1.000e-02
   NR start threshold (gradient norm)   ....   1.000e-04
   Initial trust radius                 ....   0.400
   Minimum AH scaling param. (alpha)    ....   1.000
   Maximum AH scaling param. (alpha)    .... 1000.000
   Quad. conv. algorithm                .... NR
   White noise on init. David. guess    .... on
   Maximum white noise                  ....   0.010
   Pseudo random numbers                .... off
   Inactive MOs                         .... canonical
   Orbital update algorithm             .... Taylor
   Preconditioner                       .... Diag
   Full preconditioner red. dimension   ....   250
   COSX micro iterations for RIJONX calc.... off
 SOSCF                  CNVSOSCF        .... on
   Start iteration      SOSCFMaxIt      ....   150
   Startup grad/error   SOSCFStart      ....  0.003300
   Hessian update       SOSCFHessUp     .... L-BFGS
 Level Shifting         CNVShift        .... on
   Level shift para.    LevelShift      ....    0.2500
   Turn off err/grad.   ShiftErr        ....    0.0010
 Zerner damping         CNVZerner       .... off
 Static damping         CNVDamp         .... on
   Fraction old density DampFac         ....    0.7000
   Max. Damping (<1)    DampMax         ....    0.9800
   Min. Damping (>=0)   DampMin         ....    0.0000
   Turn off err/grad.   DampErr         ....    0.1000

SCF Procedure:
 Maximum # iterations   MaxIter         ....   125
 SCF integral mode      SCFMode         .... Direct
   Integral package                     .... SHARK and LIBINT hybrid scheme
 Reset frequency        DirectResetFreq ....    20
 Integral Threshold     Thresh          ....  1.000e-10 Eh
 Primitive CutOff       TCut            ....  1.000e-11 Eh

Convergence Tolerance:
 Convergence Check Mode ConvCheckMode   .... Total+1el-Energy
 Convergence forced     ConvForced      .... 0
 Energy Change          TolE            ....  1.000e-06 Eh
 1-El. energy change                    ....  1.000e-03 Eh
 Orbital Gradient       TolG            ....  3.330e-04
 Orbital Rotation angle TolX            ....  3.330e-04
 DIIS Error             TolErr          ....  1.000e-06

---------------------
INITIAL GUESS: MOREAD
---------------------
Guess MOs are being read from file: sp_gas.ges
Input Geometry matches current geometry (good)
Atom 0: N(Shells)= 9 and 6 - projection required
Input basis set needs projection
NBasis(read)= 334
NBasis(calc)= 539
Basis set overlap was calculated
Using GuessMode=FMatrix for the initial guess
C*T matrix was formed
Effective Fockian was calculated
Effective Fockian was diagonalized
Initial density was built
                      ------------------
                      INITIAL GUESS DONE (   0.2 sec)
                      ------------------
             **** ENERGY FILE WAS UPDATED (sp_gas.en.tmp) ****
Finished Guess after   0.6 sec
Maximum memory used throughout the entire GUESS-calculation: 59.2 MB

-------------------------------------------------------------------------------------------
                                      ORCA LEAN-SCF
                              memory conserving SCF solver
-------------------------------------------------------------------------------------------

----------------------------------------D-I-I-S--------------------------------------------
Iteration    Energy (Eh)           Delta-E    RMSDP     MaxDP     DIISErr   Damp  Time(sec)
-------------------------------------------------------------------------------------------
               ***  Starting incremental Fock matrix formation  ***
    1    -2932.0057753449646043     0.00e+00  2.18e-03  9.98e-02  6.35e-01  0.700   9.1
    2    -2932.1483456508622112    -1.43e-01  1.79e-03  7.47e-02  4.47e-01  0.700   7.5
    3    -2932.2490547571442221    -1.01e-01  1.32e-03  5.46e-02  3.13e-01  0.700   7.0
    4    -2932.3197110585124392    -7.07e-02  9.46e-04  3.89e-02  2.19e-01  0.700   7.1
                               ***Turning on AO-DIIS***
    5    -2932.3692459855810739    -4.95e-02  6.87e-04  2.78e-02  1.54e-01  0.700   7.3
    6    -2932.4039544730194393    -3.47e-02  4.86e-04  1.97e-02  1.07e-01  0.700   7.0
    7    -2932.4282801843064590    -2.43e-02  3.43e-04  1.40e-02  7.52e-02  0.700   7.2
    8    -2932.4453208646200437    -1.70e-02  8.04e-04  3.32e-02  5.27e-02  0.000   6.7
                              *** Initializing SOSCF ***
---------------------------------------S-O-S-C-F--------------------------------------
Iteration    Energy (Eh)           Delta-E    RMSDP     MaxDP     MaxGrad    Time(sec)
--------------------------------------------------------------------------------------
    9    -2932.4851250596511818    -3.98e-02  5.11e-06  2.20e-04  1.23e-04     7.0
               *** Restarting incremental Fock matrix formation ***
   10    -2932.4851254714121751    -4.12e-07  4.84e-06  2.13e-04  2.59e-05     9.5
                  *** Gradient check signals convergence ***

               *****************************************************
               *                     SUCCESS                       *
               *           SCF CONVERGED AFTER  10 CYCLES          *
               *****************************************************

             **** ENERGY FILE WAS UPDATED (sp_gas.en.tmp) ****

----------------
TOTAL SCF ENERGY
----------------

Total Energy       :      -2932.48512547141218 Eh          -79796.97706 eV

Components:
Nuclear Repulsion  :       2779.55954529011342 Eh           75635.66047 eV
Electronic Energy  :      -5712.04467076152469 Eh         -155432.63753 eV
One Electron Energy:      -9579.98395846502171 Eh         -260684.61646 eV
Two Electron Energy:       3867.93928770349657 Eh          105251.97893 eV

Virial components:
Potential Energy   :      -5856.14762872139545 Eh         -159353.87837 eV
Kinetic Energy     :       2923.66250324998373 Eh           79556.90131 eV
Virial Ratio       :          2.00301766096860

DFT components:
N(Alpha)           :      101.000064349909 electrons
N(Beta)            :      101.000064349909 electrons
N(Total)           :      202.000128699818 electrons
E(X)               :     -233.539664382198 Eh       
E(C)               :       -7.119700248634 Eh       
E(XC)              :     -240.659364630832 Eh       

---------------
SCF CONVERGENCE
---------------

  Last Energy change         ...    4.1176e-07  Tolerance :   1.0000e-06
  Last MAX-Density change    ...    2.1258e-04  Tolerance :   1.0000e-05
  Last RMS-Density change    ...    4.8449e-06  Tolerance :   1.0000e-06
  Last DIIS Error            ...    1.2293e-04  Tolerance :   1.0000e-06
  Last Orbital Gradient      ...    2.5919e-05  Tolerance :   3.3300e-04
  Last Orbital Rotation      ...    1.2025e-04  Tolerance :   3.3300e-04


----------------
ORBITAL ENERGIES
----------------

  NO   OCC          E(Eh)            E(eV) 
   0   2.0000     -88.579684     -2410.3757 
   1   2.0000     -88.572976     -2410.1932 
   2   2.0000     -88.522136     -2408.8098 
   3   2.0000     -88.520402     -2408.7626 
   4   2.0000     -76.917620     -2093.0349 
   5   2.0000     -76.912667     -2092.9001 
   6   2.0000     -18.996288      -516.9153 
   7   2.0000     -18.990887      -516.7683 
   8   2.0000     -18.988912      -516.7146 
   9   2.0000     -18.987356      -516.6722 
  10   2.0000     -10.111418      -275.1457 
  11   2.0000     -10.108117      -275.0559 
  12   2.0000     -10.100002      -274.8350 
  13   2.0000     -10.091432      -274.6018 
  14   2.0000     -10.091102      -274.5928 
  15   2.0000     -10.031257      -272.9644 
  16   2.0000     -10.031074      -272.9594 
  17   2.0000     -10.030153      -272.9343 
  18   2.0000     -10.024871      -272.7906 
  19   2.0000      -7.874333      -214.2715 
  20   2.0000      -7.866968      -214.0711 
  21   2.0000      -7.816811      -212.7062 
  22   2.0000      -7.815040      -212.6581 
  23   2.0000      -6.595800      -179.4808 
  24   2.0000      -6.591047      -179.3515 
  25   2.0000      -5.821143      -158.4014 
  26   2.0000      -5.818088      -158.3182 
  27   2.0000      -5.814345      -158.2164 
  28   2.0000      -5.811553      -158.1404 
  29   2.0000      -5.810533      -158.1126 
  30   2.0000      -5.803916      -157.9326 
  31   2.0000      -5.764527      -156.8608 
  32   2.0000      -5.762649      -156.8096 
  33   2.0000      -5.757165      -156.6604 
  34   2.0000      -5.756709      -156.6480 
  35   2.0000      -5.755416      -156.6128 
  36   2.0000      -5.755006      -156.6017 
  37   2.0000      -4.741340      -129.0184 
  38   2.0000      -4.740862      -129.0054 
  39   2.0000      -4.739401      -128.9657 
  40   2.0000      -4.736351      -128.8827 
  41   2.0000      -4.736142      -128.8770 
  42   2.0000      -4.734825      -128.8411 
  43   2.0000      -1.051369       -28.6092 
  44   2.0000      -1.048984       -28.5443 
  45   2.0000      -1.011173       -27.5154 
  46   2.0000      -1.009614       -27.4730 
  47   2.0000      -0.803496       -21.8642 
  48   2.0000      -0.760442       -20.6927 
  49   2.0000      -0.750130       -20.4121 
  50   2.0000      -0.732561       -19.9340 
  51   2.0000      -0.730716       -19.8838 
  52   2.0000      -0.710540       -19.3348 
  53   2.0000      -0.690242       -18.7824 
  54   2.0000      -0.670515       -18.2456 
  55   2.0000      -0.631272       -17.1778 
  56   2.0000      -0.627047       -17.0628 
  57   2.0000      -0.608186       -16.5496 
  58   2.0000      -0.598509       -16.2863 
  59   2.0000      -0.596555       -16.2331 
  60   2.0000      -0.528491       -14.3810 
  61   2.0000      -0.519030       -14.1235 
  62   2.0000      -0.496919       -13.5219 
  63   2.0000      -0.490104       -13.3364 
  64   2.0000      -0.480976       -13.0880 
  65   2.0000      -0.466771       -12.7015 
  66   2.0000      -0.456325       -12.4172 
  67   2.0000      -0.449869       -12.2416 
  68   2.0000      -0.444704       -12.1010 
  69   2.0000      -0.437412       -11.9026 
  70   2.0000      -0.432223       -11.7614 
  71   2.0000      -0.418273       -11.3818 
  72   2.0000      -0.408263       -11.1094 
  73   2.0000      -0.404311       -11.0019 
  74   2.0000      -0.396461       -10.7883 
  75   2.0000      -0.393625       -10.7111 
  76   2.0000      -0.381297       -10.3756 
  77   2.0000      -0.372819       -10.1449 
  78   2.0000      -0.371193       -10.1007 
  79   2.0000      -0.364151        -9.9091 
  80   2.0000      -0.363402        -9.8887 
  81   2.0000      -0.360948        -9.8219 
  82   2.0000      -0.358641        -9.7591 
  83   2.0000      -0.357266        -9.7217 
  84   2.0000      -0.346360        -9.4249 
  85   2.0000      -0.334853        -9.1118 
  86   2.0000      -0.325381        -8.8541 
  87   2.0000      -0.315048        -8.5729 
  88   2.0000      -0.310433        -8.4473 
  89   2.0000      -0.304472        -8.2851 
  90   2.0000      -0.300335        -8.1725 
  91   2.0000      -0.292664        -7.9638 
  92   2.0000      -0.289483        -7.8772 
  93   2.0000      -0.280987        -7.6461 
  94   2.0000      -0.268797        -7.3143 
  95   2.0000      -0.245302        -6.6750 
  96   2.0000      -0.230414        -6.2699 
  97   2.0000      -0.221042        -6.0149 
  98   2.0000      -0.219731        -5.9792 
  99   2.0000      -0.217392        -5.9155 
 100   2.0000      -0.213991        -5.8230 
 101   0.0000      -0.047317        -1.2876 
 102   0.0000      -0.016402        -0.4463 
 103   0.0000      -0.013447        -0.3659 
 104   0.0000       0.001994         0.0543 
 105   0.0000       0.005797         0.1578 
 106   0.0000       0.020113         0.5473 
 107   0.0000       0.031166         0.8481 
 108   0.0000       0.043547         1.1850 
 109   0.0000       0.053538         1.4568 
 110   0.0000       0.064287         1.7493 
 111   0.0000       0.075145         2.0448 
*Only the first 10 virtual orbitals were printed.

                    ********************************
                    * MULLIKEN POPULATION ANALYSIS *
                    ********************************

-----------------------
MULLIKEN ATOMIC CHARGES
-----------------------
   0 C :   -0.423796
   1 C :   -0.155841
   2 O :   -0.277636
   3 P :    0.618735
   4 S :   -0.449402
   5 O :   -0.269266
   6 C :   -0.152083
   7 C :   -0.442314
   8 S :   -0.122011
   9 C :   -0.254119
  10 S :   -0.116250
  11 P :    0.675727
  12 S :   -0.473487
  13 O :   -0.261176
  14 C :   -0.133361
  15 C :   -0.463158
  16 O :   -0.300121
  17 C :   -0.154107
  18 C :   -0.438039
  19 H :    0.168429
  20 H :    0.166055
  21 H :    0.147838
  22 H :    0.151335
  23 H :    0.151729
  24 H :    0.177620
  25 H :    0.159649
  26 H :    0.166101
  27 H :    0.147969
  28 H :    0.151973
  29 H :    0.200078
  30 H :    0.212843
  31 H :    0.174048
  32 H :    0.167824
  33 H :    0.157526
  34 H :    0.147448
  35 H :    0.149765
  36 H :    0.172828
  37 H :    0.148831
  38 H :    0.148091
  39 H :    0.154582
  40 H :    0.169143
Sum of atomic charges:   -0.0000000

--------------------------------
MULLIKEN REDUCED ORBITAL CHARGES
--------------------------------
  0 C s       :     3.300448  s :     3.300448
      pz      :     0.952571  p :     3.097668
      px      :     1.053047
      py      :     1.092050
      dz2     :     0.006122  d :     0.025680
      dxz     :     0.008171
      dyz     :     0.002990
      dx2y2   :     0.002122
      dxy     :     0.006277

  1 C s       :     3.280812  s :     3.280812
      pz      :     1.026620  p :     2.819804
      px      :     0.999968
      py      :     0.793216
      dz2     :     0.009963  d :     0.055224
      dxz     :     0.011434
      dyz     :     0.008580
      dx2y2   :     0.009960
      dxy     :     0.015287

  2 O s       :     3.731695  s :     3.731695
      pz      :     1.614150  p :     4.526570
      px      :     1.499479
      py      :     1.412940
      dz2     :     0.005018  d :     0.019371
      dxz     :     0.012125
      dyz     :     0.001326
      dx2y2   :     0.001176
      dxy     :    -0.000275

  3 P s       :     5.148040  s :     5.148040
      pz      :     2.825834  p :     8.513218
      px      :     2.836723
      py      :     2.850661
      dz2     :     0.168535  d :     0.720006
      dxz     :     0.156002
      dyz     :     0.159097
      dx2y2   :     0.115411
      dxy     :     0.120962

  4 S s       :     5.916813  s :     5.916813
      pz      :     3.250356  p :    10.467284
      px      :     3.605830
      py      :     3.611098
      dz2     :     0.021534  d :     0.065305
      dxz     :     0.016095
      dyz     :     0.017205
      dx2y2   :     0.005031
      dxy     :     0.005440

  5 O s       :     3.726275  s :     3.726275
      pz      :     1.680641  p :     4.527426
      px      :     1.713308
      py      :     1.133477
      dz2     :    -0.003639  d :     0.015565
      dxz     :     0.009742
      dyz     :     0.001464
      dx2y2   :    -0.005506
      dxy     :     0.013504

  6 C s       :     3.290143  s :     3.290143
      pz      :     1.100744  p :     2.807063
      px      :     1.012313
      py      :     0.694007
      dz2     :     0.011135  d :     0.054876
      dxz     :     0.006245
      dyz     :     0.009276
      dx2y2   :     0.015150
      dxy     :     0.013070

  7 C s       :     3.312020  s :     3.312020
      pz      :     1.061308  p :     3.104445
      px      :     0.967725
      py      :     1.075413
      dz2     :     0.007198  d :     0.025848
      dxz     :     0.005496
      dyz     :     0.002107
      dx2y2   :     0.007057
      dxy     :     0.003990

  8 S s       :     5.901102  s :     5.901102
      pz      :     3.370945  p :    10.116780
      px      :     3.281322
      py      :     3.464513
      dz2     :     0.023167  d :     0.104128
      dxz     :     0.021174
      dyz     :     0.016348
      dx2y2   :     0.015529
      dxy     :     0.027910

  9 C s       :     3.177529  s :     3.177529
      pz      :     0.996001  p :     3.040953
      px      :     1.078639
      py      :     0.966314
      dz2     :     0.008102  d :     0.035637
      dxz     :     0.008156
      dyz     :     0.005261
      dx2y2   :     0.004928
      dxy     :     0.009191

 10 S s       :     5.918321  s :     5.918321
      pz      :     3.580600  p :    10.091057
      px      :     3.318477
      py      :     3.191981
      dz2     :     0.014121  d :     0.106871
      dxz     :     0.026607
      dyz     :     0.014486
      dx2y2   :     0.027674
      dxy     :     0.023983

 11 P s       :     5.127847  s :     5.127847
      pz      :     2.838471  p :     8.470964
      px      :     2.815900
      py      :     2.816594
      dz2     :     0.135924  d :     0.725463
      dxz     :     0.133674
      dyz     :     0.157952
      dx2y2   :     0.170678
      dxy     :     0.127235

 12 S s       :     5.908821  s :     5.908821
      pz      :     3.640829  p :    10.498641
      px      :     3.524108
      py      :     3.333704
      dz2     :     0.008775  d :     0.066025
      dxz     :     0.007223
      dyz     :     0.014145
      dx2y2   :     0.015592
      dxy     :     0.020290

 13 O s       :     3.725967  s :     3.725967
      pz      :     1.192880  p :     4.514523
      px      :     1.692484
      py      :     1.629159
      dz2     :    -0.010217  d :     0.020686
      dxz     :    -0.001255
      dyz     :     0.017367
      dx2y2   :     0.007733
      dxy     :     0.007058

 14 C s       :     3.277357  s :     3.277357
      pz      :     0.725527  p :     2.801701
      px      :     1.088746
      py      :     0.987429
      dz2     :     0.015212  d :     0.054302
      dxz     :     0.009710
      dyz     :     0.013456
      dx2y2   :     0.007002
      dxy     :     0.008922

 15 C s       :     3.332917  s :     3.332917
      pz      :     1.013725  p :     3.104307
      px      :     1.094499
      py      :     0.996082
      dz2     :     0.005003  d :     0.025934
      dxz     :     0.003106
      dyz     :     0.007013
      dx2y2   :     0.004902
      dxy     :     0.005911

 16 O s       :     3.735319  s :     3.735319
      pz      :     1.693590  p :     4.545494
      px      :     1.253315
      py      :     1.598590
      dz2     :     0.006551  d :     0.019308
      dxz     :     0.006414
      dyz     :     0.013868
      dx2y2   :    -0.002828
      dxy     :    -0.004698

 17 C s       :     3.285154  s :     3.285154
      pz      :     1.012529  p :     2.814304
      px      :     0.714919
      py      :     1.086855
      dz2     :     0.010997  d :     0.054649
      dxz     :     0.010095
      dyz     :     0.009133
      dx2y2   :     0.012145
      dxy     :     0.012279

 18 C s       :     3.299733  s :     3.299733
      pz      :     0.964417  p :     3.112515
      px      :     1.092120
      py      :     1.055979
      dz2     :     0.007362  d :     0.025791
      dxz     :     0.001959
      dyz     :     0.007658
      dx2y2   :     0.004201
      dxy     :     0.004611

 19 H s       :     0.812990  s :     0.812990
      pz      :     0.007607  p :     0.018581
      px      :     0.007262
      py      :     0.003711

 20 H s       :     0.815766  s :     0.815766
      pz      :     0.004207  p :     0.018179
      px      :     0.006150
      py      :     0.007822

 21 H s       :     0.833642  s :     0.833642
      pz      :     0.003643  p :     0.018520
      px      :     0.005899
      py      :     0.008977

 22 H s       :     0.831340  s :     0.831340
      pz      :     0.007821  p :     0.017326
      px      :     0.007093
      py      :     0.002412

 23 H s       :     0.830766  s :     0.830766
      pz      :     0.003991  p :     0.017504
      px      :     0.006487
      py      :     0.007027

 24 H s       :     0.804222  s :     0.804222
      pz      :     0.012291  p :     0.018158
      px      :     0.003376
      py      :     0.002491

 25 H s       :     0.822944  s :     0.822944
      pz      :     0.005042  p :     0.017408
      px      :     0.008626
      py      :     0.003740

 26 H s       :     0.815552  s :     0.815552
      pz      :     0.005334  p :     0.018346
      px      :     0.007938
      py      :     0.005074

 27 H s       :     0.833556  s :     0.833556
      pz      :     0.003791  p :     0.018475
      px      :     0.003711
      py      :     0.010973

 28 H s       :     0.829851  s :     0.829851
      pz      :     0.010627  p :     0.018175
      px      :     0.003566
      py      :     0.003982

 29 H s       :     0.781127  s :     0.781127
      pz      :     0.003421  p :     0.018795
      px      :     0.008470
      py      :     0.006903

 30 H s       :     0.768195  s :     0.768195
      pz      :     0.008592  p :     0.018962
      px      :     0.007045
      py      :     0.003325

 31 H s       :     0.807932  s :     0.807932
      pz      :     0.002503  p :     0.018020
      px      :     0.011388
      py      :     0.004130

 32 H s       :     0.813894  s :     0.813894
      pz      :     0.003089  p :     0.018282
      px      :     0.006139
      py      :     0.009054

 33 H s       :     0.824256  s :     0.824256
      pz      :     0.004252  p :     0.018218
      px      :     0.005781
      py      :     0.008185

 34 H s       :     0.834102  s :     0.834102
      pz      :     0.009569  p :     0.018451
      px      :     0.004673
      py      :     0.004209

 35 H s       :     0.831994  s :     0.831994
      pz      :     0.003636  p :     0.018241
      px      :     0.010340
      py      :     0.004265

 36 H s       :     0.809479  s :     0.809479
      pz      :     0.003351  p :     0.017693
      px      :     0.004403
      py      :     0.009939

 37 H s       :     0.833778  s :     0.833778
      pz      :     0.008313  p :     0.017392
      px      :     0.002724
      py      :     0.006354

 38 H s       :     0.833423  s :     0.833423
      pz      :     0.003673  p :     0.018486
      px      :     0.010497
      py      :     0.004316

 39 H s       :     0.827280  s :     0.827280
      pz      :     0.003622  p :     0.018138
      px      :     0.006145
      py      :     0.008372

 40 H s       :     0.812445  s :     0.812445
      pz      :     0.007746  p :     0.018413
      px      :     0.003893
      py      :     0.006774


------------------------
MULLIKEN OVERLAP CHARGES
------------------------
B(  0-C ,  1-C ) :   0.4130 B(  0-C ,  2-O ) :  -0.1335 B(  0-C , 19-H ) :   0.8163 
B(  0-C , 20-H ) :   0.8100 B(  0-C , 21-H ) :   0.7976 B(  0-C , 23-H ) :  -0.1164 
B(  1-C ,  2-O ) :   0.2814 B(  1-C ,  3-P ) :  -0.1936 B(  1-C ,  8-S ) :   0.0604 
B(  1-C , 19-H ) :  -0.0573 B(  1-C , 20-H ) :  -0.0618 B(  1-C , 21-H ) :  -0.0737 
B(  1-C , 22-H ) :   0.7997 B(  1-C , 23-H ) :   0.8462 B(  2-O ,  3-P ) :   0.5551 
B(  2-O ,  4-S ) :  -0.0798 B(  2-O ,  5-O ) :  -0.2235 B(  2-O ,  8-S ) :  -0.1136 
B(  2-O , 22-H ) :  -0.1094 B(  2-O , 23-H ) :  -0.0774 B(  3-P ,  4-S ) :   1.2541 
B(  3-P ,  5-O ) :   0.5870 B(  3-P ,  6-C ) :  -0.1702 B(  3-P ,  8-S ) :   0.7144 
B(  3-P ,  9-C ) :  -0.1114 B(  4-S ,  5-O ) :  -0.1079 B(  4-S ,  8-S ) :  -0.1079 
B(  5-O ,  6-C ) :   0.2692 B(  5-O ,  7-C ) :  -0.1551 B(  5-O ,  8-S ) :  -0.1416 
B(  5-O , 24-H ) :  -0.0677 B(  5-O , 25-H ) :  -0.0968 B(  6-C ,  7-C ) :   0.4067 
B(  6-C , 24-H ) :   0.8674 B(  6-C , 25-H ) :   0.8077 B(  6-C , 26-H ) :  -0.0695 
B(  6-C , 27-H ) :  -0.0694 B(  6-C , 28-H ) :  -0.0647 B(  7-C , 24-H ) :  -0.0996 
B(  7-C , 25-H ) :  -0.0534 B(  7-C , 26-H ) :   0.8193 B(  7-C , 27-H ) :   0.7989 
B(  7-C , 28-H ) :   0.8149 B(  8-S ,  9-C ) :   0.4020 B(  8-S , 10-S ) :  -0.1504 
B(  8-S , 29-H ) :  -0.0718 B(  8-S , 30-H ) :  -0.0701 B(  9-C , 10-S ) :   0.3862 
B(  9-C , 11-P ) :  -0.0521 B(  9-C , 29-H ) :   0.7799 B(  9-C , 30-H ) :   0.8125 
B( 10-S , 11-P ) :   0.7305 B( 10-S , 12-S ) :  -0.0677 B( 10-S , 13-O ) :  -0.1081 
B( 10-S , 16-O ) :  -0.1509 B( 10-S , 29-H ) :  -0.0533 B( 10-S , 30-H ) :  -0.0751 
B( 11-P , 12-S ) :   1.2543 B( 11-P , 13-O ) :   0.4530 B( 11-P , 14-C ) :  -0.1617 
B( 11-P , 16-O ) :   0.6421 B( 11-P , 17-C ) :  -0.1711 B( 12-S , 13-O ) :  -0.0930 
B( 12-S , 16-O ) :  -0.0932 B( 13-O , 14-C ) :   0.2046 B( 13-O , 15-C ) :  -0.0881 
B( 13-O , 16-O ) :  -0.2306 B( 13-O , 18-C ) :   0.0609 B( 13-O , 31-H ) :  -0.0813 
B( 13-O , 32-H ) :  -0.0727 B( 14-C , 15-C ) :   0.4427 B( 14-C , 31-H ) :   0.7771 
B( 14-C , 32-H ) :   0.7980 B( 14-C , 33-H ) :  -0.0816 B( 14-C , 34-H ) :  -0.0789 
B( 14-C , 35-H ) :  -0.0654 B( 15-C , 33-H ) :   0.8431 B( 15-C , 34-H ) :   0.8181 
B( 15-C , 35-H ) :   0.8240 B( 16-O , 17-C ) :   0.3337 B( 16-O , 18-C ) :  -0.1604 
B( 16-O , 36-H ) :  -0.0843 B( 16-O , 37-H ) :  -0.1029 B( 17-C , 18-C ) :   0.3935 
B( 17-C , 36-H ) :   0.8832 B( 17-C , 37-H ) :   0.7981 B( 17-C , 38-H ) :  -0.0573 
B( 17-C , 39-H ) :  -0.0643 B( 17-C , 40-H ) :  -0.0702 B( 18-C , 36-H ) :  -0.1118 
B( 18-C , 38-H ) :   0.7835 B( 18-C , 39-H ) :   0.8091 B( 18-C , 40-H ) :   0.8225 
B( 22-H , 23-H ) :  -0.0533 B( 31-H , 32-H ) :  -0.0541 


                     *******************************
                     * LOEWDIN POPULATION ANALYSIS *
                     *******************************

----------------------
LOEWDIN ATOMIC CHARGES
----------------------
   0 C :   -0.406628
   1 C :    0.024223
   2 O :   -0.656515
   3 P :    0.376838
   4 S :   -0.119659
   5 O :   -0.694823
   6 C :    0.011793
   7 C :   -0.397898
   8 S :    0.174499
   9 C :   -0.406974
  10 S :    0.198342
  11 P :    0.368245
  12 S :   -0.116456
  13 O :   -0.688941
  14 C :    0.011286
  15 C :   -0.387389
  16 O :   -0.680312
  17 C :    0.024582
  18 C :   -0.401059
  19 H :    0.165918
  20 H :    0.165861
  21 H :    0.158429
  22 H :    0.182159
  23 H :    0.171385
  24 H :    0.183184
  25 H :    0.182236
  26 H :    0.164706
  27 H :    0.159879
  28 H :    0.158484
  29 H :    0.189654
  30 H :    0.192451
  31 H :    0.188312
  32 H :    0.180865
  33 H :    0.160146
  34 H :    0.159514
  35 H :    0.157454
  36 H :    0.180560
  37 H :    0.179795
  38 H :    0.159683
  39 H :    0.160750
  40 H :    0.165418

-------------------------------
LOEWDIN REDUCED ORBITAL CHARGES
-------------------------------
  0 C s       :     2.975534  s :     2.975534
      pz      :     1.082711  p :     3.370395
      px      :     1.139260
      py      :     1.148424
      dz2     :     0.014456  d :     0.060699
      dxz     :     0.019145
      dyz     :     0.006258
      dx2y2   :     0.004794
      dxy     :     0.016045

  1 C s       :     2.874020  s :     2.874020
      pz      :     1.074411  p :     2.978200
      px      :     1.030772
      py      :     0.873017
      dz2     :     0.021614  d :     0.123557
      dxz     :     0.026640
      dyz     :     0.017832
      dx2y2   :     0.022056
      dxy     :     0.035415

  2 O s       :     3.463298  s :     3.463298
      pz      :     1.657171  p :     4.733703
      px      :     1.581356
      py      :     1.495176
      dz2     :     0.071358  d :     0.459514
      dxz     :     0.089639
      dyz     :     0.084564
      dx2y2   :     0.099041
      dxy     :     0.114911

  3 P s       :     4.653812  s :     4.653812
      pz      :     2.849242  p :     8.395462
      px      :     2.760044
      py      :     2.786175
      dz2     :     0.350410  d :     1.573889
      dxz     :     0.349629
      dyz     :     0.327337
      dx2y2   :     0.215847
      dxy     :     0.330665

  4 S s       :     5.567467  s :     5.567467
      pz      :     3.285169  p :    10.412905
      px      :     3.559355
      py      :     3.568381
      dz2     :     0.048022  d :     0.139287
      dxz     :     0.034798
      dyz     :     0.035825
      dx2y2   :     0.008928
      dxy     :     0.011713

  5 O s       :     3.466108  s :     3.466108
      pz      :     1.683626  p :     4.735469
      px      :     1.684465
      py      :     1.367378
      dz2     :     0.070223  d :     0.493246
      dxz     :     0.057883
      dyz     :     0.123739
      dx2y2   :     0.113372
      dxy     :     0.128029

  6 C s       :     2.876086  s :     2.876086
      pz      :     1.108875  p :     2.989250
      px      :     1.073168
      py      :     0.807208
      dz2     :     0.025792  d :     0.122870
      dxz     :     0.012700
      dyz     :     0.020906
      dx2y2   :     0.033548
      dxy     :     0.029923

  7 C s       :     2.974878  s :     2.974878
      pz      :     1.144155  p :     3.361969
      px      :     1.083793
      py      :     1.134021
      dz2     :     0.017687  d :     0.061051
      dxz     :     0.012527
      dyz     :     0.004796
      dx2y2   :     0.017222
      dxy     :     0.008819

  8 S s       :     5.429103  s :     5.429103
      pz      :     3.367693  p :    10.090185
      px      :     3.280541
      py      :     3.441951
      dz2     :     0.071790  d :     0.306213
      dxz     :     0.070195
      dyz     :     0.044679
      dx2y2   :     0.036233
      dxy     :     0.083316

  9 C s       :     3.007378  s :     3.007378
      pz      :     1.092681  p :     3.316364
      px      :     1.123962
      py      :     1.099722
      dz2     :     0.019338  d :     0.083232
      dxz     :     0.019468
      dyz     :     0.011097
      dx2y2   :     0.011371
      dxy     :     0.021957

 10 S s       :     5.442368  s :     5.442368
      pz      :     3.531880  p :    10.058746
      px      :     3.289064
      py      :     3.237801
      dz2     :     0.036878  d :     0.300544
      dxz     :     0.069812
      dyz     :     0.041799
      dx2y2   :     0.080776
      dxy     :     0.071278

 11 P s       :     4.650029  s :     4.650029
      pz      :     2.761463  p :     8.401416
      px      :     2.809001
      py      :     2.830952
      dz2     :     0.254945  d :     1.580310
      dxz     :     0.340288
      dyz     :     0.366508
      dx2y2   :     0.308340
      dxy     :     0.310229

 12 S s       :     5.563693  s :     5.563693
      pz      :     3.582737  p :    10.418603
      px      :     3.490478
      py      :     3.345388
      dz2     :     0.018121  d :     0.134160
      dxz     :     0.014434
      dyz     :     0.026880
      dx2y2   :     0.027419
      dxy     :     0.047307

 13 O s       :     3.464630  s :     3.464630
      pz      :     1.404062  p :     4.729598
      px      :     1.681715
      py      :     1.643820
      dz2     :     0.130458  d :     0.494713
      dxz     :     0.104948
      dyz     :     0.138921
      dx2y2   :     0.055404
      dxy     :     0.064981

 14 C s       :     2.873834  s :     2.873834
      pz      :     0.847830  p :     2.993221
      px      :     1.090216
      py      :     1.055175
      dz2     :     0.033301  d :     0.121659
      dxz     :     0.019796
      dyz     :     0.033078
      dx2y2   :     0.015902
      dxy     :     0.019581

 15 C s       :     2.973771  s :     2.973771
      pz      :     1.092559  p :     3.352423
      px      :     1.155207
      py      :     1.104657
      dz2     :     0.012065  d :     0.061195
      dxz     :     0.007037
      dyz     :     0.016130
      dx2y2   :     0.011869
      dxy     :     0.014094

 16 O s       :     3.465914  s :     3.465914
      pz      :     1.673741  p :     4.740582
      px      :     1.410894
      py      :     1.655947
      dz2     :     0.063964  d :     0.473816
      dxz     :     0.105959
      dyz     :     0.062217
      dx2y2   :     0.106239
      dxy     :     0.135436

 17 C s       :     2.876142  s :     2.876142
      pz      :     1.067891  p :     2.977353
      px      :     0.815673
      py      :     1.093789
      dz2     :     0.024269  d :     0.121923
      dxz     :     0.021722
      dyz     :     0.020636
      dx2y2   :     0.026580
      dxy     :     0.028716

 18 C s       :     2.975072  s :     2.975072
      pz      :     1.082702  p :     3.365057
      px      :     1.143272
      py      :     1.139084
      dz2     :     0.017162  d :     0.060930
      dxz     :     0.003844
      dyz     :     0.017817
      dx2y2   :     0.010334
      dxy     :     0.011773

 19 H s       :     0.789249  s :     0.789249
      pz      :     0.018448  p :     0.044833
      px      :     0.018284
      py      :     0.008101

 20 H s       :     0.790323  s :     0.790323
      pz      :     0.009480  p :     0.043815
      px      :     0.015022
      py      :     0.019313

 21 H s       :     0.797399  s :     0.797399
      pz      :     0.008293  p :     0.044172
      px      :     0.013849
      py      :     0.022030

 22 H s       :     0.778016  s :     0.778016
      pz      :     0.018363  p :     0.039824
      px      :     0.015959
      py      :     0.005502

 23 H s       :     0.787510  s :     0.787510
      pz      :     0.009379  p :     0.041105
      px      :     0.016151
      py      :     0.015575

 24 H s       :     0.773565  s :     0.773565
      pz      :     0.029962  p :     0.043251
      px      :     0.007838
      py      :     0.005451

 25 H s       :     0.777662  s :     0.777662
      pz      :     0.012129  p :     0.040102
      px      :     0.020651
      py      :     0.007322

 26 H s       :     0.791102  s :     0.791102
      pz      :     0.012697  p :     0.044192
      px      :     0.019496
      py      :     0.011999

 27 H s       :     0.796104  s :     0.796104
      pz      :     0.008369  p :     0.044017
      px      :     0.008403
      py      :     0.027246

 28 H s       :     0.798045  s :     0.798045
      pz      :     0.026617  p :     0.043471
      px      :     0.007934
      py      :     0.008920

 29 H s       :     0.763714  s :     0.763714
      pz      :     0.007879  p :     0.046632
      px      :     0.021164
      py      :     0.017588

 30 H s       :     0.759982  s :     0.759982
      pz      :     0.022468  p :     0.047567
      px      :     0.017418
      py      :     0.007681

 31 H s       :     0.768398  s :     0.768398
      pz      :     0.005825  p :     0.043291
      px      :     0.027796
      py      :     0.009670

 32 H s       :     0.775818  s :     0.775818
      pz      :     0.006739  p :     0.043316
      px      :     0.015262
      py      :     0.021316

 33 H s       :     0.796368  s :     0.796368
      pz      :     0.009831  p :     0.043486
      px      :     0.013729
      py      :     0.019926

 34 H s       :     0.796647  s :     0.796647
      pz      :     0.023257  p :     0.043839
      px      :     0.010687
      py      :     0.009895

 35 H s       :     0.799167  s :     0.799167
      pz      :     0.007829  p :     0.043378
      px      :     0.025882
      py      :     0.009667

 36 H s       :     0.777156  s :     0.777156
      pz      :     0.007852  p :     0.042284
      px      :     0.009900
      py      :     0.024532

 37 H s       :     0.780325  s :     0.780325
      pz      :     0.019873  p :     0.039880
      px      :     0.005275
      py      :     0.014732

 38 H s       :     0.796253  s :     0.796253
      pz      :     0.008321  p :     0.044064
      px      :     0.026084
      py      :     0.009659

 39 H s       :     0.795704  s :     0.795704
      pz      :     0.008062  p :     0.043546
      px      :     0.014684
      py      :     0.020799

 40 H s       :     0.790131  s :     0.790131
      pz      :     0.019124  p :     0.044451
      px      :     0.008600
      py      :     0.016726


---------------------------------
LOEWDIN BOND ORDERS (THRESH 0.050000)
---------------------------------
B(  0-C ,  1-C ) :   1.0978 B(  0-C ,  2-O ) :   0.1503 B(  0-C , 19-H ) :   0.9133 
B(  0-C , 20-H ) :   0.9193 B(  0-C , 21-H ) :   0.9147 B(  1-C ,  2-O ) :   1.2984 
B(  1-C ,  3-P ) :   0.0884 B(  1-C , 21-H ) :   0.0518 B(  1-C , 22-H ) :   0.8272 
B(  1-C , 23-H ) :   0.8315 B(  2-O ,  3-P ) :   1.5717 B(  2-O ,  4-S ) :   0.1686 
B(  2-O ,  5-O ) :   0.2277 B(  2-O ,  8-S ) :   0.1516 B(  2-O , 22-H ) :   0.1006 
B(  2-O , 23-H ) :   0.0987 B(  3-P ,  4-S ) :   2.0110 B(  3-P ,  5-O ) :   1.5363 
B(  3-P ,  6-C ) :   0.0967 B(  3-P ,  8-S ) :   1.2320 B(  3-P ,  9-C ) :   0.0914 
B(  4-S ,  5-O ) :   0.1933 B(  4-S ,  6-C ) :   0.0552 B(  4-S ,  8-S ) :   0.1491 
B(  5-O ,  6-C ) :   1.2952 B(  5-O ,  7-C ) :   0.1592 B(  5-O ,  8-S ) :   0.1546 
B(  5-O , 10-S ) :   0.0620 B(  5-O , 24-H ) :   0.0967 B(  5-O , 25-H ) :   0.0994 
B(  6-C ,  7-C ) :   1.0930 B(  6-C , 24-H ) :   0.8223 B(  6-C , 25-H ) :   0.8269 
B(  6-C , 27-H ) :   0.0505 B(  7-C , 26-H ) :   0.9143 B(  7-C , 27-H ) :   0.9168 
B(  7-C , 28-H ) :   0.9230 B(  8-S ,  9-C ) :   1.2968 B(  8-S , 10-S ) :   0.2015 
B(  8-S , 13-O ) :   0.0829 B(  8-S , 29-H ) :   0.0569 B(  8-S , 30-H ) :   0.0628 
B(  9-C , 10-S ) :   1.2795 B(  9-C , 11-P ) :   0.0809 B(  9-C , 29-H ) :   0.8470 
B(  9-C , 30-H ) :   0.8411 B( 10-S , 11-P ) :   1.2382 B( 10-S , 12-S ) :   0.1302 
B( 10-S , 13-O ) :   0.1542 B( 10-S , 16-O ) :   0.1746 B( 10-S , 29-H ) :   0.0570 
B( 10-S , 30-H ) :   0.0581 B( 11-P , 12-S ) :   2.0710 B( 11-P , 13-O ) :   1.5457 
B( 11-P , 14-C ) :   0.0980 B( 11-P , 16-O ) :   1.5576 B( 11-P , 17-C ) :   0.0960 
B( 12-S , 13-O ) :   0.1889 B( 12-S , 14-C ) :   0.0544 B( 12-S , 16-O ) :   0.1794 
B( 13-O , 14-C ) :   1.2812 B( 13-O , 15-C ) :   0.1755 B( 13-O , 16-O ) :   0.2181 
B( 13-O , 31-H ) :   0.0946 B( 13-O , 32-H ) :   0.0959 B( 14-C , 15-C ) :   1.0886 
B( 14-C , 31-H ) :   0.8177 B( 14-C , 32-H ) :   0.8225 B( 14-C , 34-H ) :   0.0500 
B( 15-C , 33-H ) :   0.9200 B( 15-C , 34-H ) :   0.9177 B( 15-C , 35-H ) :   0.9224 
B( 16-O , 17-C ) :   1.2907 B( 16-O , 18-C ) :   0.1530 B( 16-O , 36-H ) :   0.0959 
B( 16-O , 37-H ) :   0.0997 B( 17-C , 18-C ) :   1.0958 B( 17-C , 36-H ) :   0.8292 
B( 17-C , 37-H ) :   0.8294 B( 17-C , 38-H ) :   0.0514 B( 18-C , 38-H ) :   0.9154 
B( 18-C , 39-H ) :   0.9217 B( 18-C , 40-H ) :   0.9133 

------------------------------------------
LOEWDIN REDUCED ORBITAL POPULATIONS PER MO
-------------------------------------------
THRESHOLD FOR PRINTING IS 0.1%%
                      0         1         2         3         4         5   
                 -88.57968 -88.57298 -88.52214 -88.52040 -76.91762 -76.91267
                   2.00000   2.00000   2.00000   2.00000   2.00000   2.00000
                  --------  --------  --------  --------  --------  --------
 3 P  s               0.0       0.0       0.0       0.0     100.0       0.0
 4 S  s               0.0       0.0     100.0       0.0       0.0       0.0
 8 S  s             100.0       0.0       0.0       0.0       0.0       0.0
10 S  s               0.0     100.0       0.0       0.0       0.0       0.0
11 P  s               0.0       0.0       0.0       0.0       0.0     100.0
12 S  s               0.0       0.0       0.0     100.0       0.0       0.0

                      6         7         8         9        10        11   
                 -18.99629 -18.99089 -18.98891 -18.98736 -10.11142 -10.10812
                   2.00000   2.00000   2.00000   2.00000   2.00000   2.00000
                  --------  --------  --------  --------  --------  --------
 1 C  s               0.0       0.0       0.0       0.0       0.0      99.4
 2 O  s              99.9       0.0       0.0       0.0       0.0       0.0
 2 O  dxy             0.0       0.0       0.0       0.0       0.0       0.2
 5 O  s               0.0       0.0       0.0      99.9       0.0       0.0
 9 C  s               0.0       0.0       0.0       0.0      99.6       0.0
13 O  s               0.0       0.0      99.9       0.0       0.0       0.0
16 O  s               0.0      99.9       0.0       0.0       0.0       0.0

                     12        13        14        15        16        17   
                 -10.10000 -10.09143 -10.09110 -10.03126 -10.03107 -10.03015
                   2.00000   2.00000   2.00000   2.00000   2.00000   2.00000
                  --------  --------  --------  --------  --------  --------
 0 C  s               0.0       0.0       0.0      99.7       0.0       0.0
 5 O  py              0.0       0.1       0.0       0.0       0.0       0.0
 5 O  dx2y2           0.0       0.2       0.0       0.0       0.0       0.0
 6 C  s               0.0      99.4       0.0       0.0       0.0       0.0
13 O  dz2             0.0       0.0       0.1       0.0       0.0       0.0
14 C  s               0.0       0.0      99.4       0.0       0.0       0.0
15 C  s               0.0       0.0       0.0       0.0       0.0      99.7
16 O  dx2y2           0.2       0.0       0.0       0.0       0.0       0.0
17 C  s              99.4       0.0       0.0       0.0       0.0       0.0
[...]
36 H  s               0.0       0.5       0.0       0.0       0.0       0.0
36 H  py              0.0       1.0       0.0       0.0       0.0       0.0
37 H  s               0.0       0.5       0.0       0.0       0.0       0.0
37 H  pz              0.0       0.8       0.0       0.0       0.0       0.0
37 H  px              0.0       0.3       0.0       0.0       0.0       0.0
37 H  py              0.0       0.3       0.0       0.0       0.0       0.0
38 H  px              0.0       0.2       0.0       0.0       0.0       0.0

                    522       523       524       525       526       527   
                  18.90426  18.91793  19.10995  19.17369  21.93534  21.96978
                   0.00000   0.00000   0.00000   0.00000   0.00000   0.00000
                  --------  --------  --------  --------  --------  --------
 0 C  s               0.0       0.0       0.0       0.0       2.6      11.8
 3 P  s               0.0       0.1       0.0       0.1       0.0       0.0
 3 P  pz              0.0       0.2       0.0       0.0       0.0       0.0
 4 S  s              15.3      78.7       0.1       4.6       0.0       0.0
 4 S  pz              0.0       0.1       0.0       0.0       0.0       0.0
 6 C  s               0.0       0.0       0.0       0.0       0.0       0.2
 7 C  s               0.0       0.0       0.0       0.0       0.2      83.3
 8 S  s               0.6       2.0      66.7      29.7       0.0       0.0
 9 C  s               0.0       0.0       0.1       0.7       0.1       1.9
10 S  s               1.8       2.5      30.5      64.2       0.0       0.0
11 P  s               0.2       0.0       0.1       0.1       0.0       0.0
11 P  py              0.2       0.0       0.0       0.0       0.0       0.0
12 S  s              81.1      15.8       1.9       0.0       0.0       0.0
14 C  s               0.0       0.0       0.0       0.0       2.7       0.0
15 C  s               0.0       0.0       0.0       0.0      66.3       0.1
17 C  s               0.0       0.0       0.0       0.0       2.0       0.0
18 C  s               0.0       0.0       0.0       0.0      25.9       2.3

                    528       529       530       531       532       533   
                  21.97835  21.98540  22.03535  22.05450  22.06611  22.09199
                   0.00000   0.00000   0.00000   0.00000   0.00000   0.00000
                  --------  --------  --------  --------  --------  --------
 0 C  s              61.3      22.2       0.0       0.5       0.1       0.6
 1 C  s               0.2       0.1       2.4      61.4      33.9       1.1
 6 C  s               0.9       0.2       9.7       4.2       3.6      77.9
 7 C  s              12.8       0.7       1.9       0.1       0.5       0.0
 9 C  s               0.3       1.2      58.8       1.6      19.3      16.2
14 C  s               0.7       0.5       5.1       3.6       2.0       2.9
15 C  s               1.4      22.3       0.8       2.4       4.9       0.7
17 C  s               0.7       3.8      20.7      25.1      34.1       0.0
18 C  s              21.1      48.5       0.0       0.6       1.2       0.1

                    534       535       536       537       538   
                  22.12933  43.80888  43.84290  43.87706  43.91035
                   0.00000   0.00000   0.00000   0.00000   0.00000
                  --------  --------  --------  --------  --------
 0 C  s               0.5       0.0       0.0       0.0       0.0
 1 C  s               0.3       0.0       0.0       0.0       0.0
 2 O  s               0.0      42.0      49.0       4.0       4.9
 5 O  s               0.0       0.4      11.4      25.8      62.3
 6 C  s               2.8       0.0       0.0       0.0       0.0
13 O  s               0.0      18.1      16.0      37.5      28.3
14 C  s              82.0       0.0       0.0       0.0       0.0
15 C  s               0.8       0.0       0.0       0.0       0.0
16 O  s               0.0      39.5      23.4      32.6       4.3
17 C  s              13.0       0.0       0.0       0.0       0.0


                      *****************************
                      * MAYER POPULATION ANALYSIS *
                      *****************************

  NA   - Mulliken gross atomic population
  ZA   - Total nuclear charge
  QA   - Mulliken gross atomic charge
  VA   - Mayer's total valence
  BVA  - Mayer's bonded valence
  FA   - Mayer's free valence

  ATOM       NA         ZA         QA         VA         BVA        FA
  0 C      6.4238     6.0000    -0.4238     3.7759     3.7759     0.0000
  1 C      6.1558     6.0000    -0.1558     3.7124     3.7124    -0.0000
  2 O      8.2776     8.0000    -0.2776     1.8345     1.8345    -0.0000
  3 P     14.3813    15.0000     0.6187     5.2107     5.2107    -0.0000
  4 S     16.4494    16.0000    -0.4494     2.0497     2.0497     0.0000
  5 O      8.2693     8.0000    -0.2693     1.8105     1.8105    -0.0000
  6 C      6.1521     6.0000    -0.1521     3.6510     3.6510    -0.0000
  7 C      6.4423     6.0000    -0.4423     3.7856     3.7856    -0.0000
  8 S     16.1220    16.0000    -0.1220     2.2060     2.2060     0.0000
  9 C      6.2541     6.0000    -0.2541     3.7634     3.7634     0.0000
 10 S     16.1162    16.0000    -0.1162     2.1904     2.1904    -0.0000
 11 P     14.3243    15.0000     0.6757     5.1864     5.1864    -0.0000
 12 S     16.4735    16.0000    -0.4735     2.0450     2.0450     0.0000
 13 O      8.2612     8.0000    -0.2612     1.7985     1.7985     0.0000
 14 C      6.1334     6.0000    -0.1334     3.5779     3.5779     0.0000
 15 C      6.4632     6.0000    -0.4632     3.8610     3.8610    -0.0000
 16 O      8.3001     8.0000    -0.3001     1.8438     1.8438    -0.0000
 17 C      6.1541     6.0000    -0.1541     3.7046     3.7046     0.0000
 18 C      6.4380     6.0000    -0.4380     3.7752     3.7752     0.0000
 19 H      0.8316     1.0000     0.1684     0.9607     0.9607     0.0000
 20 H      0.8339     1.0000     0.1661     0.9586     0.9586     0.0000
 21 H      0.8522     1.0000     0.1478     0.9628     0.9628     0.0000
 22 H      0.8487     1.0000     0.1513     0.9487     0.9487     0.0000
 23 H      0.8483     1.0000     0.1517     0.9506     0.9506     0.0000
 24 H      0.8224     1.0000     0.1776     0.9555     0.9555     0.0000
 25 H      0.8404     1.0000     0.1596     0.9500     0.9500    -0.0000
 26 H      0.8339     1.0000     0.1661     0.9612     0.9612     0.0000
 27 H      0.8520     1.0000     0.1480     0.9641     0.9641     0.0000
 28 H      0.8480     1.0000     0.1520     0.9619     0.9619    -0.0000
 29 H      0.7999     1.0000     0.2001     0.9487     0.9487     0.0000
 30 H      0.7872     1.0000     0.2128     0.9478     0.9478     0.0000
 31 H      0.8260     1.0000     0.1740     0.9542     0.9542     0.0000
 32 H      0.8322     1.0000     0.1678     0.9548     0.9548     0.0000
 33 H      0.8425     1.0000     0.1575     0.9601     0.9601     0.0000
 34 H      0.8526     1.0000     0.1474     0.9637     0.9637    -0.0000
 35 H      0.8502     1.0000     0.1498     0.9620     0.9620     0.0000
 36 H      0.8272     1.0000     0.1728     0.9518     0.9518     0.0000
 37 H      0.8512     1.0000     0.1488     0.9503     0.9503     0.0000
 38 H      0.8519     1.0000     0.1481     0.9638     0.9638    -0.0000
 39 H      0.8454     1.0000     0.1546     0.9616     0.9616    -0.0000
 40 H      0.8309     1.0000     0.1691     0.9615     0.9615    -0.0000

  Mayer bond orders larger than 0.100000
B(  0-C ,  1-C ) :   0.9381 B(  0-C , 19-H ) :   0.9538 B(  0-C , 20-H ) :   0.9658 
B(  0-C , 21-H ) :   0.9618 B(  1-C ,  2-O ) :   0.8026 B(  1-C , 22-H ) :   0.9578 
B(  1-C , 23-H ) :   0.9650 B(  2-O ,  3-P ) :   1.0968 B(  3-P ,  4-S ) :   1.7812 
B(  3-P ,  5-O ) :   1.1219 B(  3-P ,  8-S ) :   1.0712 B(  5-O ,  6-C ) :   0.7877 
B(  6-C ,  7-C ) :   0.9246 B(  6-C , 24-H ) :   0.9587 B(  6-C , 25-H ) :   0.9596 
B(  7-C , 26-H ) :   0.9611 B(  7-C , 27-H ) :   0.9644 B(  7-C , 28-H ) :   0.9733 
B(  8-S ,  9-C ) :   0.9164 B(  9-C , 10-S ) :   0.9042 B(  9-C , 29-H ) :   0.9170 
B(  9-C , 30-H ) :   0.9165 B( 10-S , 11-P ) :   1.0782 B( 11-P , 12-S ) :   1.7899 
B( 11-P , 13-O ) :   1.0636 B( 11-P , 16-O ) :   1.1439 B( 13-O , 14-C ) :   0.7468 
B( 14-C , 15-C ) :   0.9345 B( 14-C , 31-H ) :   0.9372 B( 14-C , 32-H ) :   0.9393 
B( 15-C , 33-H ) :   0.9783 B( 15-C , 34-H ) :   0.9683 B( 15-C , 35-H ) :   0.9722 
B( 16-O , 17-C ) :   0.8089 B( 17-C , 18-C ) :   0.9259 B( 17-C , 36-H ) :   0.9666 
B( 17-C , 37-H ) :   0.9618 B( 18-C , 38-H ) :   0.9600 B( 18-C , 39-H ) :   0.9701 
B( 18-C , 40-H ) :   0.9597 

-------
TIMINGS
-------

Total SCF time: 0 days 0 hours 1 min 16 sec 

Total time                  ....      76.586 sec
Sum of individual times     ....      76.060 sec  ( 99.3%)

SCF preparation             ....       0.355 sec  (  0.5%)
Fock matrix formation       ....      72.627 sec  ( 94.8%)
  Startup                   ....       0.143 sec  (  0.2% of F)
  Split-RI-J                ....      24.495 sec  ( 33.7% of F)
  XC integration            ....      46.591 sec  ( 64.2% of F)
    XC Preparation          ....       0.000 sec  (  0.0% of XC)
    Basis function eval.    ....       7.326 sec  ( 15.7% of XC)
    Density eval.           ....      17.262 sec  ( 37.1% of XC)
    XC-Functional eval.     ....       3.230 sec  (  6.9% of XC)
    XC-Potential eval.      ....      17.518 sec  ( 37.6% of XC)
Diagonalization             ....       0.000 sec  (  0.0%)
Density matrix formation    ....       0.764 sec  (  1.0%)
Total Energy calculation    ....       0.050 sec  (  0.1%)
Population analysis         ....       0.439 sec  (  0.6%)
Orbital Transformation      ....       0.241 sec  (  0.3%)
Orbital Orthonormalization  ....       0.000 sec  (  0.0%)
DIIS solution               ....       1.370 sec  (  1.8%)
  MO trafo                  ....       0.000 sec  (  0.0 % of DIIS)
  Orb grad                  ....       0.000 sec  (  0.0 % of DIIS)
  Energy W gradient         ....       0.000 sec  (  0.0 % of DIIS)
  DIIS error                ....       0.114 sec  (  8.4 % of DIIS)
  DIIS work                 ....       1.112 sec  ( 81.2 % of DIIS)
  Form Q                    ....       0.000 sec  (  0.0 % of DIIS)
  Form QpQm                 ....       0.000 sec  (  0.0 % of DIIS)
  Exp/Cayley                ....       0.000 sec  (  0.0 % of DIIS)
  Orb update                ....       0.000 sec  (  0.0 % of DIIS)
  Wake-sleep                ....       0.024 sec  (  1.8 % of DIIS)
SOSCF solution              ....       0.214 sec  (  0.3%)
  MO trafo                  ....       0.165 sec  ( 77.4 % of SOSCF)
  Orb grad                  ....       0.003 sec  (  1.5 % of SOSCF)
  Rot update                ....       0.000 sec  (  0.1 % of SOSCF)
  Step                      ....       0.045 sec  ( 20.8 % of SOSCF)
Finished LeanSCF after  76.7 sec

Maximum memory used throughout the entire LEANSCF-calculation: 74.0 MB


-------------------------------------------------------------------------------
                          DFT DISPERSION CORRECTION                            
                                                                               
                                DFTD4 V3.4.0                                   
-------------------------------------------------------------------------------
The R2SCAN3C composite method is recognized
Using three-body term ABC
Active option DFTDOPT                   ...         5   

-------------------------   ----------------
Dispersion correction           -0.021753564
-------------------------   ----------------

------------------   -----------------
gCP correction             0.046490457
------------------   -----------------

-------------------------   --------------------
FINAL SINGLE POINT ENERGY     -2932.460388579202
-------------------------   --------------------


------------------------------------------------------------------------------
                              ORCA PROPERTY CALCULATIONS
------------------------------------------------------------------------------

GBWName                                 ... sp_gas.gbw
Number of atoms                         ...     41
Number of basis functions               ...    539
Max core memory                         ...   1024 MB

Electric properties:
Dipole moment                           ... YES
Quadrupole moment                       ...  NO
Static polarizability (Dipole/Dipole)   ...  NO
Static polarizability (Dipole/Quad.)    ...  NO
Static polarizability (Quad./Quad.)     ...  NO
Static polarizability (Velocity)        ...  NO

Atomic electric properties:
Dipole moment                           ...  NO
Quadrupole moment                       ...  NO
Static polarizability                   ...  NO

Choice of electric origin               ... Center of mass
Position of electric origin             ...     0.000002    -0.000003     0.000004

General magnetic properties:
Magnetizability                         ...  NO

EPR properties:
g-Tensor (aka g-matrix)                 ...  NO
Zero-Field splitting spin-orbit         ...  NO
Zero-field splitting spin-spin          ...  NO
Hyperfine couplings                     ...  NO (   0 nuclei)
Quadrupole couplings                    ...  NO (   0 nuclei)
Contact density                         ...  NO (   0 nuclei)

NMR properties:
Chemical shifts                         ...  NO (   0 nuclei)
Spin-rotation constants                 ...  NO (   0 nuclei)
Spin-spin couplings                     ...  NO (   0 nuclei,    0 pairs)

Choice of magnetic origin               ... GIAO
Position of magnetic origin             ...     0.000000     0.000000     0.000000

Properties with geometric perturbations:
SCF Hessian                             ...  NO
IR spectrum                             ...  NO
VCD spectrum                            ...  NO
X-ray spectroscopy properties:
SCF XES/XAS/RIXS spectra                ...  NO


-------------
DIPOLE MOMENT
-------------

Method             : SCF
Type of density    : Electron Density
Multiplicity       :   1
Irrep              :   0
Energy             : -2932.4851254714121751 Eh
Relativity type    : 
Basis              : AO
                                X                 Y                 Z
Electronic contribution:     -3.059575348       7.444923554     -14.057571048
Nuclear contribution   :      3.336677261      -8.939609480      15.057810968
                        -----------------------------------------
Total Dipole Moment    :      0.277101913      -1.494685927       1.000239920
                        -----------------------------------------
Magnitude (a.u.)       :      1.819711897
Magnitude (Debye)      :      4.625340059



--------------------
Rotational spectrum 
--------------------
 
Rotational constants in cm-1:             0.013096             0.004863             0.004689 
Rotational constants in MHz :           392.620900           145.794453           140.571994 

Dipole components along the rotational axes: 
x,y,z [a.u.] :    -0.222174     1.594299    -0.848647 
x,y,z [Debye]:    -0.564721     4.052385    -2.157089 

 

Dipole moment calculation done in   0.0 sec 

Maximum memory used throughout the entire PROP-calculation: 51.9 MB

--------------------------------
SUGGESTED CITATIONS FOR THIS RUN
--------------------------------

Below you find a list of papers that are relevant to this ORCA run
We neither can nor want to force you to cite these papers, but we appreciate if you do
You receive ORCA, which is the product of decades of hard work by many enthusiastic individuals, for free
The only thing we kindly ask in return is that you cite our papers,
We deeply appreciate it, if you show your appreciation for ORCA by not just citing the generic ORCA reference.

Please note that relegating all ORCA citations to the supporting information does *not* help us.
SI sections are not indexed - citations you put there will not count into any citation statistics
But we need these citations in order to attract the funding resources that allow us to do what we are doing

Therefore, if you are a happy ORCA user, please consider citing a few of the papers listed below in the main body of your paper

In addition to the list printed below, the program has created the file sp_gas.bibtex that contains the list in bibtex format
You can import this file easily into all common literature databanks and citation aid programs


List of essential papers. We consider these as the minimum necessary citations

  1. Neese,F.
     Software update: the ORCA program system, version 5.0
     WIRES Comput. Molec. Sci., 2022 12(1)e1606
     doi.org/10.1002/wcms.1606
  2. Grimme,S.; Hansen,A.; Ehlert,S.; Mewes,J.
     r2SCAN-3c: A 'Swiss army knife' composite electronic-structure method
     J. Chem. Phys., 2021 154 064103
     doi.org/10.1063/5.0040021

List of papers to cite with high priority. The work reported in these papers was absolutely
necessary for this run to complete.
Our perspective: the developers of density functionals and basis sets usually get cited in chemistry papers
Good! But without the algorithms to do something with them, the functionals or basis sets would not do anything.
Hence, in our opinion, the algorithm design and method developments papers are equally worthy of getting cited

  1. Neese,F.
     An improvement of the resolution of the identity approximation for the formation of the Coulomb matrix
     J. Comp. Chem., 2003 24(14)1740-1747
     doi.org/10.1002/jcc.10318
  2. Neese,F.
     The SHARK Integral Generation and Digestion System
     J. Comp. Chem., 2022  1-16
     doi.org/10.1002/jcc.26942
  3. Lehtola,S.; Steigemann,C.; Oliveira,M.; Marques,M.
     Recent developments in Libxc - A comprehensive library of functionals for density functional theory
     Software X, 2018 7 
     doi.org/10.1016/j.softx.2017.11.002
  4. Caldeweyher,E.; Bannwarth,C.; Grimme,S.
     Extension of the D3 dispersion coefficient model
     J. Chem. Phys., 2017 147 034112-XXXX
     doi.org/10.1063/1.4993215
  5. Caldeweyher,E.; Ehlert,S.; Hansen,A.; Neugebauer,H.; Spicher,S.; Bannwarth,C.; Grimme,S.
     A generally applicable atomic-charge dependent London dispersion correction
     J. Chem. Phys., 2019 150 154122-XXXX
     doi.org/10.1063/1.5090222
  6. Caldeweyher,E.; Mewes,J.; Ehlert,S.; Grimme,S.
     Extension and evaluation of the D4 London-dispersion model for periodic systems
     Phys. Chem. Chem. Phys., 2020 22(16)8499-8512
     doi.org/10.1039/D0CP00502A

List of suggested additional citations. These are papers that are important in the 'surrounding' of 
of this run, or papers that preceded the highly important papers. If you like your results we are grateful for a citation.

  1. Neese,F.
     The ORCA program system
     WIRES Comput. Molec. Sci., 2012 2(1)73-78
     doi.org/10.1002/wcms.81
  2. Neese,F.
     Software update: the ORCA program system, version 4.0
     WIRES Comput. Molec. Sci., 2018 8(1)1-6
     doi.org/10.1002/wcms.1327
  3. Neese,F.; Wennmohs,F.; Becker,U.; Riplinger,C.
     The ORCA quantum chemistry program package
     J. Chem. Phys., 2020 152 Art. No. L224108
     doi.org/10.1063/5.0004608

List of optional additional citations

  1. Neese,F.
     Approximate second-order SCF convergence for spin unrestricted wavefunctions
     Chem. Phys. Lett., 2000 325(1-3)93-98
     doi.org/10.1016/s0009-2614(00)00662-x

Timings for individual modules:

Sum of individual times          ...       80.804 sec (=   1.347 min)
Startup calculation              ...        3.123 sec (=   0.052 min)   3.9 %
SCF iterations                   ...       77.520 sec (=   1.292 min)  95.9 %
Property calculations            ...        0.161 sec (=   0.003 min)   0.2 %
                             ****ORCA TERMINATED NORMALLY****
TOTAL RUN TIME: 0 days 0 hours 1 minutes 21 seconds 573 msec
