41
 energy: -2932.484025959861 gnorm: 0.001181694240 xtb: 6.7.1 (edcfbbe)
C            4.20280537480789       -2.75927361657286       -0.28172631136638
C            4.52941110201909       -1.35341895887041        0.15701786103471
O            3.35128367835669       -0.64940184106011        0.68224107762444
P            2.22252537420812        0.00076059147012       -0.26571150755087
S            2.76950261625613        0.57407124834799       -2.04479875009440
O            1.61219555571136        1.12404282244271        0.70883254728892
C            2.07849822871556        2.51847947916441        0.66178678667353
C            3.46394173496460        2.67045128084292        1.24047800564269
S            0.71219209710482       -1.48017014636300       -0.17651545591780
C           -0.38934354502840       -0.92456349528283       -1.53609282824085
S           -1.14860794658532        0.75274565655172       -1.44207572243884
P           -2.53468957811007        0.58602307005837        0.13679451438775
S           -3.82048285324648        2.04601638519544        0.04543690510508
O           -1.61397996439134        0.49728488572705        1.44590988276096
C           -2.14668563745508        0.77102118535231        2.79185306744150
C           -3.03899015135640       -0.33994454227024        3.28759208031058
O           -3.11287776612717       -0.91881876135046        0.07563231156097
C           -4.07946813755370       -1.28964693734564       -0.96579319433482
C           -4.36097927743409       -2.76126502988771       -0.80958106528128
H            3.72233819637399       -3.32072000929523        0.52485933058701
H            3.55219837984460       -2.76763336945745       -1.16082141066369
H            5.13716256137291       -3.26604494779543       -0.54480857255484
H            4.95058587404165       -0.75679813742562       -0.65759321554192
H            5.22450822219980       -1.34745201458155        0.99901441046345
H            2.02494709700666        2.86166872011036       -0.37596060979672
H            1.33290028214585        3.05409029871737        1.25284884572972
H            3.50855766231269        2.27367456181739        2.25872298313989
H            4.21555015113230        2.16476340070265        0.62647543830381
H            3.71337905899583        3.73613027273629        1.27352051275478
H           -1.17256005215006       -1.68496157521906       -1.60160390335829
H            0.17594690788642       -0.91324587526360       -2.47280375371270
H           -1.24618224615800        0.86649049292318        3.40149864856297
H           -2.66425898709472        1.73497475420238        2.76531900170849
H           -2.52640390794095       -1.30512408023169        3.24011295520789
H           -3.29542951893647       -0.13677324350931        4.33264581538862
H           -3.96911834589076       -0.40003731135610        2.71525591717967
H           -4.98036166361705       -0.68477086342447       -0.82531933452267
H           -3.64419185693303       -1.06218008118023       -1.94532544655675
H           -3.45033262040220       -3.35225515013855       -0.94209487902882
H           -4.78674934592107       -2.97430532746356        0.17503772371265
H           -5.08452896375377       -3.06471033110307       -1.57222193831984
41
 energy: -2932.484021677402 gnorm: 0.001746700617 xtb: 6.7.1 (edcfbbe)
C            4.20200142055383       -2.75867155800919       -0.28204988164264
C            4.52925157573104       -1.35333006882283        0.15722727991493
O            3.35116462520282       -0.64899726854190        0.68261492954320
P            2.22236237295114        0.00127472350151       -0.26536527780837
S            2.76807415765339        0.57376667448438       -2.04506204340228
O            1.61182286176228        1.12425716255572        0.70914299699086
C            2.07904875636134        2.51833380509028        0.66255405366516
C            3.46442412243546        2.66905842151944        1.24140524795474
S            0.71147501349917       -1.47812287425410       -0.17665676453297
C           -0.38954105650658       -0.92759510559649       -1.53858591788120
S           -1.14868522678592        0.74946312985183       -1.44044026767561
P           -2.53707267083041        0.58913622440946        0.13634318469465
S           -3.82794983358445        2.04519487938958        0.05219206954348
O           -1.61474504005939        0.49976053642648        1.44403233811369
C           -2.14671789566423        0.77221846531800        2.79095139460123
C           -3.03849097628972       -0.33889897567781        3.28705550770957
O           -3.11245679589585       -0.91672996308739        0.07475123778895
C           -4.07944863660392       -1.28970391904442       -0.96662071018235
C           -4.35860568661587       -2.76157268052037       -0.80943198762167
H            3.72261931758519       -3.32080329188653        0.52467646644616
H            3.55019667452856       -2.76656049531567       -1.16022555117943
H            5.13582555679175       -3.26550069316154       -0.54689229192742
H            4.95061383042392       -0.75628074137725       -0.65695589409733
H            5.22397032419765       -1.34772501553464        0.99953374853473
H            2.02614481866799        2.86188963751657       -0.37509761256388
H            1.33365534159569        3.05453229309874        1.25332200250253
H            3.50874068994615        2.27254158249072        2.25971713944211
H            4.21570043749177        2.16248150834215        0.62770443271935
H            3.71510375367012        3.73445752109987        1.27416096303083
H           -1.17342407751058       -1.68747931360937       -1.60303092162165
H            0.17612759843205       -0.91580560600576       -2.47505537793279
H           -1.24596958615429        0.86753033161850        3.40018744740632
H           -2.66439343461185        1.73604355739541        2.76516722707006
H           -2.52547889203449       -1.30381180927824        3.23983621209342
H           -3.29559807269871       -0.13586020341910        4.33193411580106
H           -3.96835844895424       -0.39955436124421        2.71439273523416
H           -4.98055931597799       -0.68533183263240       -0.82528588600367
H           -3.64393508289599       -1.06150859745340       -1.94598269932787
H           -3.44720406844202       -3.35137032589558       -0.94259821109489
H           -4.78317664719030       -2.97480183277633        0.17570062460693
H           -5.08247045104463       -3.06676755603530       -1.57108803101720
41
 energy: -2932.484032579945 gnorm: 0.000440157144 xtb: 6.7.1 (edcfbbe)
C            4.20115886693101       -2.75829052057044       -0.28245693608416
C            4.52829722312241       -1.35312161185686        0.15713119096022
O            3.34991899486409       -0.64882774771481        0.68232164138486
P            2.22107568570280        0.00143679402003       -0.26570196195574
S            2.76763024154492        0.57410729492007       -2.04509212742066
O            1.61112231691270        1.12458947379534        0.70891215561263
C            2.07952337629201        2.51826776715484        0.66290609163563
C            3.46484808755895        2.66793654028343        1.24204597024799
S            0.71007076757777       -1.47809472135830       -0.17615651516754
C           -0.39126306330592       -0.92540144984914       -1.53714654139907
S           -1.14991590618370        0.75264471753106       -1.44322491976878
P           -2.53565867396063        0.58741851459677        0.13615691150611
S           -3.82495072977954        2.04440220356607        0.04916492382110
O           -1.61395591703768        0.49906019573117        1.44427855698102
C           -2.14652507883106        0.77272444485581        2.79082514501895
C           -3.03841038728163       -0.33823873748873        3.28691196046253
O           -3.11204798455069       -0.91804184773667        0.07518569989186
C           -4.07922655226943       -1.29074835203728       -0.96657329035408
C           -4.35739491416144       -2.76267374177188       -0.80931162078358
H            3.72258301302207       -3.32091882798119        0.52439354675258
H            3.54862463817366       -2.76594932969812       -1.16007491151130
H            5.13483846769279       -3.26485381215157       -0.54834407799430
H            4.94996798758459       -0.75584345096983       -0.65671522598487
H            5.22271233029502       -1.34767246393982        0.99969945344383
H            2.02710808288514        2.86218742541934       -0.37464656031006
H            1.33437429983240        3.05490735198008        1.25358199946955
H            3.50875853070891        2.27152034679767        2.26040344961342
H            4.21585990547877        2.16070421583650        0.62855716232519
H            3.71644275106297        3.73312615654729        1.27469814501601
H           -1.17489691884941       -1.68558213470366       -1.60191122597487
H            0.17459246330965       -0.91438777034703       -2.47357245868902
H           -1.24592543785233        0.86821451204166        3.40022067558229
H           -2.66409846144101        1.73656795904590        2.76434638536035
H           -2.52519218444655       -1.30306290712953        3.24037072944459
H           -3.29620006707887       -0.13481600816863        4.33152968216101
H           -3.96789852771813       -0.39930705510815        2.71368537613891
H           -4.98034049093657       -0.68642890638473       -0.82493956919094
H           -3.64354412080235       -1.06215084972054       -1.94579903647642
H           -3.44553271580529       -3.35168434290699       -0.94295754240528
H           -4.78119786078289       -2.97604862704584        0.17611986230805
H           -5.08143252460079       -3.06853040621382       -1.57052818906140
41
 energy: -2932.484035184345 gnorm: 0.000576784418 xtb: 6.7.1 (edcfbbe)
C            4.19949764604029       -2.75768804547520       -0.28327044337090
C            4.52656203703448       -1.35278929746382        0.15703671453453
O            3.34791911537795       -0.64864012875749        0.68215265714850
P            2.21913064628495        0.00173216031008       -0.26595389878855
S            2.76635487874919        0.57429895370260       -2.04521494957672
O            1.60999703776310        1.12542307270542        0.70859914923137
C            2.08048150319663        2.51842774569048        0.66352112904715
C            3.46577701681622        2.66588071072900        1.24333201477740
S            0.70893986845143       -1.47924334863311       -0.17624941954112
C           -0.39143446850784       -0.92419144565433       -1.53712731932239
S           -1.15138839747237        0.75353358268943       -1.44268320074444
P           -2.53688922671344        0.58721835131819        0.13656984235294
S           -3.82554606523674        2.04484232154405        0.04698228098183
O           -1.61411904285136        0.50029336700007        1.44395310686106
C           -2.14630204532982        0.77430366163369        2.79061354978760
C           -3.03802262356414       -0.33690515645274        3.28641312130621
O           -3.11175747688336       -0.91862732112593        0.07586562235461
C           -4.07858568390377       -1.29215072741739       -0.96626075317330
C           -4.35475205828048       -2.76437108536120       -0.80918439388166
H            3.72224704462270       -3.32119518745911        0.52377381523366
H            3.54574631869020       -2.76471719836914       -1.16001827979988
H            5.13304753573740       -3.26359757775636       -0.55092965692445
H            4.94858499674356       -0.75512681326886       -0.65634245792777
H            5.22066099588550       -1.34774844827756        0.99986987571541
H            2.02893543386064        2.86289491245132       -0.37391195578037
H            1.33583460775448        3.05577178804524        1.25420927055477
H            3.50865229936409        2.26945788265786        2.26175559760968
H            4.21625475523912        2.15746375938887        0.63015761707838
H            3.71894437977800        3.73069669590067        1.27596228861795
H           -1.17519900473018       -1.68415713799176       -1.60198901016204
H            0.17401507144239       -0.91327054787219       -2.47377630284770
H           -1.24544816229905        0.87000476368566        3.39960473299628
H           -2.66400193000082        1.73805439427166        2.76372379117322
H           -2.52440404449560       -1.30156459371993        3.24068893333956
H           -3.29644474828070       -0.13296659035615        4.33078036176811
H           -3.96719272517649       -0.39862981985486        2.71274061424159
H           -4.98048832700283       -0.68912671879441       -0.82459344833584
H           -3.64353343802043       -1.06290616006748       -1.94553769263978
H           -3.44213639868463       -3.35194982815468       -0.94361097249736
H           -4.77728402468208       -2.97834010612286        0.17662583878517
H           -5.07902473030066       -3.07128362764694       -1.56975711312756
41
 energy: -2932.484035184345 gnorm: 0.000576784418 xtb: 6.7.1 (edcfbbe)
C            4.19949764604029       -2.75768804547520       -0.28327044337090
C            4.52656203703448       -1.35278929746382        0.15703671453453
O            3.34791911537795       -0.64864012875749        0.68215265714850
P            2.21913064628495        0.00173216031008       -0.26595389878855
S            2.76635487874919        0.57429895370260       -2.04521494957672
O            1.60999703776310        1.12542307270542        0.70859914923137
C            2.08048150319663        2.51842774569048        0.66352112904715
C            3.46577701681622        2.66588071072900        1.24333201477740
S            0.70893986845143       -1.47924334863311       -0.17624941954112
C           -0.39143446850784       -0.92419144565433       -1.53712731932239
S           -1.15138839747237        0.75353358268943       -1.44268320074444
P           -2.53688922671344        0.58721835131819        0.13656984235294
S           -3.82554606523674        2.04484232154405        0.04698228098183
O           -1.61411904285136        0.50029336700007        1.44395310686106
C           -2.14630204532982        0.77430366163369        2.79061354978760
C           -3.03802262356414       -0.33690515645274        3.28641312130621
O           -3.11175747688336       -0.91862732112593        0.07586562235461
C           -4.07858568390377       -1.29215072741739       -0.96626075317330
C           -4.35475205828048       -2.76437108536120       -0.80918439388166
H            3.72224704462270       -3.32119518745911        0.52377381523366
H            3.54574631869020       -2.76471719836914       -1.16001827979988
H            5.13304753573740       -3.26359757775636       -0.55092965692445
H            4.94858499674356       -0.75512681326886       -0.65634245792777
H            5.22066099588550       -1.34774844827756        0.99986987571541
H            2.02893543386064        2.86289491245132       -0.37391195578037
H            1.33583460775448        3.05577178804524        1.25420927055477
H            3.50865229936409        2.26945788265786        2.26175559760968
H            4.21625475523912        2.15746375938887        0.63015761707838
H            3.71894437977800        3.73069669590067        1.27596228861795
H           -1.17519900473018       -1.68415713799176       -1.60198901016204
H            0.17401507144239       -0.91327054787219       -2.47377630284770
H           -1.24544816229905        0.87000476368566        3.39960473299628
H           -2.66400193000082        1.73805439427166        2.76372379117322
H           -2.52440404449560       -1.30156459371993        3.24068893333956
H           -3.29644474828070       -0.13296659035615        4.33078036176811
H           -3.96719272517649       -0.39862981985486        2.71274061424159
H           -4.98048832700283       -0.68912671879441       -0.82459344833584
H           -3.64353343802043       -1.06290616006748       -1.94553769263978
H           -3.44213639868463       -3.35194982815468       -0.94361097249736
H           -4.77728402468208       -2.97834010612286        0.17662583878517
H           -5.07902473030066       -3.07128362764694       -1.56975711312756
