      -----------------------------------------------------------      
     |                   =====================                   |     
     |                           x T B                           |     
     |                   =====================                   |     
     |                         S. Grimme                         |     
     |          Mulliken Center for Theoretical Chemistry        |     
     |                    University of Bonn                     |     
      -----------------------------------------------------------      

   * xtb version 6.7.1 (edcfbbe) compiled by 'albert@albert-system' on 2024-07-22

   xtb is free software: you can redistribute it and/or modify it under
   the terms of the GNU Lesser General Public License as published by
   the Free Software Foundation, either version 3 of the License, or
   (at your option) any later version.
   
   xtb is distributed in the hope that it will be useful,
   but WITHOUT ANY WARRANTY; without even the implied warranty of
   MERCHANTABILITY or FITNESS FOR A PARTICULAR PURPOSE.  See the
   GNU Lesser General Public License for more details.
   
   Cite this work as:
   * C. Bannwarth, E. Caldeweyher, S. Ehlert, A. Hansen, P. Pracht,
     J. Seibert, S. Spicher, S. Grimme, WIREs Comput. Mol. Sci., 2020, 11,
     e01493. DOI: 10.1002/wcms.1493
   
   for GFN2-xTB:
   * C. Bannwarth, S. Ehlert and S. Grimme., J. Chem. Theory Comput., 2019,
     15, 1652-1671. DOI: 10.1021/acs.jctc.8b01176
   for GFN1-xTB:
   * S. Grimme, C. Bannwarth, P. Shushkov, J. Chem. Theory Comput., 2017,
     13, 1989-2009. DOI: 10.1021/acs.jctc.7b00118
   for GFN0-xTB:
   * P. Pracht, E. Caldeweyher, S. Ehlert, S. Grimme, ChemRxiv, 2019, preprint.
     DOI: 10.26434/chemrxiv.8326202.v1
   for GFN-FF:
   * S. Spicher and S. Grimme, Angew. Chem. Int. Ed., 2020, 59, 15665-15673.
     DOI: 10.1002/anie.202004239
   
   for ALPB and GBSA implicit solvation:
   * S. Ehlert, M. Stahn, S. Spicher, S. Grimme, J. Chem. Theory Comput.,
     2021, 17, 4250-4261. DOI: 10.1021/acs.jctc.1c00471
   
   for ddCOSMO and CPCM-X implicit solvation:
   * M. Stahn, S. Ehlert, S. Grimme, J. Phys. Chem. A,
     2023, XX, XXXX-XXXX. DOI: 10.1021/acs.jpca.3c04382
   
   for DFT-D4:
   * E. Caldeweyher, C. Bannwarth and S. Grimme, J. Chem. Phys., 2017,
     147, 034112. DOI: 10.1063/1.4993215
   * E. Caldeweyher, S. Ehlert, A. Hansen, H. Neugebauer, S. Spicher,
     C. Bannwarth and S. Grimme, J. Chem. Phys., 2019, 150, 154122.
     DOI: 10.1063/1.5090222
   * E. Caldeweyher, J.-M. Mewes, S. Ehlert and S. Grimme, Phys. Chem. Chem. Phys.
     2020, 22, 8499-8512. DOI: 10.1039/D0CP00502A
   
   for sTDA-xTB:
   * S. Grimme and C. Bannwarth, J. Chem. Phys., 2016, 145, 054103.
     DOI: 10.1063/1.4959605
   
   in the mass-spec context:
   * V. Asgeirsson, C. Bauer and S. Grimme, Chem. Sci., 2017, 8, 4879.
     DOI: 10.1039/c7sc00601b
   * J. Koopman and S. Grimme, ACS Omega 2019, 4, 12, 15120-15133.
     DOI: 10.1021/acsomega.9b02011
   
   for metadynamics refer to:
   * S. Grimme, J. Chem. Theory Comput., 2019, 155, 2847-2862
     DOI: 10.1021/acs.jctc.9b00143
   
   for SPH calculations refer to:
   * S. Spicher and S. Grimme, J. Chem. Theory Comput., 2021, 17, 1701-1714
     DOI: 10.1021/acs.jctc.0c01306
   
   for ONIOM refer to:
   * C. Plett, A. Katbashev, S. Ehlert, S. Grimme, M. Bursch,
     Phys. Chem. Chem. Phys., 2023, 25, 17860-17868. DOI: 10.1039/D3CP02178E
   
   for DIPRO refer to:
   * J. Kohn, N. Gildemeister, S. Grimme, D. Fazzi, A. Hansen,
     J. Chem. Phys., 2023, just accepted.
   
   for PTB refer to:
   * S. Grimme, M. Mueller, A. Hansen, J. Chem. Phys., 2023, 158, 124111.
     DOI: 10.1063/5.0137838
   
   with help from (in alphabetical order)
   P. Atkinson, C. Bannwarth, F. Bohle, G. Brandenburg, E. Caldeweyher
   M. Checinski, S. Dohm, S. Ehlert, S. Ehrlich, I. Gerasimov, C. Hölzer
   A. Katbashev, J. Kohn, J. Koopman, C. Lavigne, S. Lehtola, F. März, M. Müller,
   F. Musil, H. Neugebauer, J. Pisarek, C. Plett, P. Pracht, F. Pultar,
   J. Seibert, P. Shushkov, S. Spicher, M. Stahn, M. Steiner, T. Strunk,
   J. Stückrath, T. Rose, and J. Unsleber
   
 * started run on 2025/04/09 at 05:20:55.421     
   ID    Z sym.   atoms
    1    6 C      1, 2, 7, 8, 10, 15, 16, 18, 19
    2    8 O      3, 6, 14, 17
    3   15 P      4, 12
    4   16 S      5, 9, 11, 13
    5    1 H      20-41

           -------------------------------------------------
          |                Calculation Setup                |
           -------------------------------------------------

          program call               : /srv/scratch/z5358697/.xtb/bin/xtb gas.coord --gfn2 --sp --chrg 0 --norestart --parallel 1
          hostname                   : k163
          coordinate file            : gas.coord
          omp threads                :                     1


           -------------------------------------------------
          |                 G F N 2 - x T B                 |
           -------------------------------------------------

        Reference                      10.1021/acs.jctc.8b01176
      * Hamiltonian:
        H0-scaling (s, p, d)           1.850000    2.230000    2.230000
        zeta-weighting                 0.500000
      * Dispersion:
        s8                             2.700000
        a1                             0.520000
        a2                             5.000000
        s9                             5.000000
      * Repulsion:
        kExp                           1.500000    1.000000
        rExp                           1.000000
      * Coulomb:
        alpha                          2.000000
        third order                    shell-resolved
        anisotropic                    true
        a3                             3.000000
        a5                             4.000000
        cn-shift                       1.200000
        cn-exp                         4.000000
        max-rad                        5.000000


          ...................................................
          :                      SETUP                      :
          :.................................................:
          :  # basis functions                 134          :
          :  # atomic orbitals                 128          :
          :  # shells                           66          :
          :  # electrons                       116          :
          :  max. iterations                   250          :
          :  Hamiltonian                  GFN2-xTB          :
          :  restarted?                      false          :
          :  GBSA solvation                  false          :
          :  PC potential                    false          :
          :  electronic temp.          300.0000000     K    :
          :  accuracy                    1.0000000          :
          :  -> integral cutoff          0.2500000E+02      :
          :  -> integral neglect         0.1000000E-07      :
          :  -> SCF convergence          0.1000000E-05 Eh   :
          :  -> wf. convergence          0.1000000E-03 e    :
          :  Broyden damping             0.4000000          :
          :  net charge                          0          :
          :  unpaired electrons                  0          :
          ...................................................

 iter      E             dE          RMSdq      gap      omega  full diag
   1    -65.3734005 -0.653734E+02  0.628E+00    4.21       0.0  T
   2    -65.5446769 -0.171276E+00  0.397E+00    2.90       1.0  T
   3    -65.5638213 -0.191445E-01  0.144E+00    2.77       1.0  T
   4    -65.5665517 -0.273043E-02  0.629E-01    2.46       1.0  T
   5    -65.5677959 -0.124415E-02  0.276E-01    2.61       1.0  T
   6    -65.5680190 -0.223084E-03  0.131E-01    2.57       1.0  T
   7    -65.5680843 -0.653636E-04  0.506E-02    2.59       1.0  T
   8    -65.5680927 -0.839937E-05  0.217E-02    2.59       1.0  T
   9    -65.5680939 -0.114003E-05  0.613E-03    2.59       2.5  T
  10    -65.5680940 -0.115174E-06  0.270E-03    2.59       5.8  T
  11    -65.5680940 -0.773323E-08  0.644E-04    2.60      24.3  T
  12    -65.5680940 -0.114980E-08  0.319E-04    2.60      48.9  T

   *** convergence criteria satisfied after 12 iterations ***

         #    Occupation            Energy/Eh            Energy/eV
      -------------------------------------------------------------
         1        2.0000           -0.7575307             -20.6135
       ...           ...                  ...                  ...
        52        2.0000           -0.4363242             -11.8730
        53        2.0000           -0.4104811             -11.1698
        54        2.0000           -0.4010041             -10.9119
        55        2.0000           -0.3710761             -10.0975
        56        2.0000           -0.3694637             -10.0536
        57        2.0000           -0.3589535              -9.7676
        58        2.0000           -0.3537405              -9.6258 (HOMO)
        59                         -0.2583728              -7.0307 (LUMO)
        60                         -0.2412178              -6.5639
        61                         -0.2183565              -5.9418
        62                         -0.1862505              -5.0681
        63                         -0.1612219              -4.3871
       ...                                ...                  ...
       128                          1.4040178              38.2053
      -------------------------------------------------------------
                  HL-Gap            0.0953677 Eh            2.5951 eV
             Fermi-level           -0.3060566 Eh           -8.3282 eV

 SCC (total)                   0 d,  0 h,  0 min,  0.066 sec
 SCC setup                      ...        0 min,  0.000 sec (  0.443%)
 Dispersion                     ...        0 min,  0.000 sec (  0.482%)
 classical contributions        ...        0 min,  0.000 sec (  0.090%)
 integral evaluation            ...        0 min,  0.019 sec ( 28.016%)
 iterations                     ...        0 min,  0.025 sec ( 37.486%)
 molecular gradient             ...        0 min,  0.022 sec ( 33.140%)
 printout                       ...        0 min,  0.000 sec (  0.318%)

         :::::::::::::::::::::::::::::::::::::::::::::::::::::
         ::                     SUMMARY                     ::
         :::::::::::::::::::::::::::::::::::::::::::::::::::::
         :: total energy             -65.006364564653 Eh    ::
         :: gradient norm              0.041894247742 Eh/a0 ::
         :: HOMO-LUMO gap              2.595087164812 eV    ::
         ::.................................................::
         :: SCC energy               -65.567097796044 Eh    ::
         :: -> isotropic ES            0.109354967730 Eh    ::
         :: -> anisotropic ES         -0.014548065211 Eh    ::
         :: -> anisotropic XC          0.030894118891 Eh    ::
         :: -> dispersion             -0.056023133916 Eh    ::
         :: repulsion energy           0.560733231391 Eh    ::
         :: add. restraining           0.000000000000 Eh    ::
         :: total charge              -0.000000000000 e     ::
         :::::::::::::::::::::::::::::::::::::::::::::::::::::

           -------------------------------------------------
          |                Property Printout                |
           -------------------------------------------------

    * Orbital Energies and Occupations

         #    Occupation            Energy/Eh            Energy/eV
      -------------------------------------------------------------
         1        2.0000           -0.7575307             -20.6135
       ...           ...                  ...                  ...
        46        2.0000           -0.4636705             -12.6171
        47        2.0000           -0.4600995             -12.5199
        48        2.0000           -0.4567969             -12.4301
        49        2.0000           -0.4529299             -12.3248
        50        2.0000           -0.4462547             -12.1432
        51        2.0000           -0.4449262             -12.1071
        52        2.0000           -0.4363242             -11.8730
        53        2.0000           -0.4104811             -11.1698
        54        2.0000           -0.4010041             -10.9119
        55        2.0000           -0.3710761             -10.0975
        56        2.0000           -0.3694637             -10.0536
        57        2.0000           -0.3589535              -9.7676
        58        2.0000           -0.3537405              -9.6258 (HOMO)
        59                         -0.2583728              -7.0307 (LUMO)
        60                         -0.2412178              -6.5639
        61                         -0.2183565              -5.9418
        62                         -0.1862505              -5.0681
        63                         -0.1612219              -4.3871
        64                         -0.1555771              -4.2335
        65                         -0.1482716              -4.0347
        66                         -0.1322958              -3.6000
        67                         -0.1153744              -3.1395
        68                         -0.1104122              -3.0045
        69                         -0.0426756              -1.1613
       ...                                ...                  ...
       128                          1.4040178              38.2053
      -------------------------------------------------------------
                  HL-Gap            0.0953677 Eh            2.5951 eV
             Fermi-level           -0.3060566 Eh           -8.3282 eV

     #   Z          covCN         q      C6AA      α(0)
     1   6 C        3.751    -0.118    22.824     6.813
     2   6 C        3.833     0.082    19.195     6.233
     3   8 O        1.654    -0.250    18.166     5.754
     4  15 P        3.786     0.387   144.183    21.570
     5  16 S        0.929    -0.399   156.591    21.166
     6   8 O        1.654    -0.227    17.783     5.693
     7   6 C        3.807     0.081    19.223     6.241
     8   6 C        3.751    -0.115    22.764     6.804
     9  16 S        2.007    -0.162   147.890    20.468
    10   6 C        3.812     0.043    19.849     6.341
    11  16 S        2.005    -0.156   147.642    20.451
    12  15 P        3.824     0.380   144.430    21.588
    13  16 S        0.925    -0.364   154.932    21.053
    14   8 O        1.655    -0.258    18.292     5.773
    15   6 C        3.834     0.084    19.159     6.227
    16   6 C        3.751    -0.118    22.827     6.814
    17   8 O        1.656    -0.268    18.467     5.801
    18   6 C        3.867     0.086    19.115     6.217
    19   6 C        3.751    -0.113    22.731     6.799
    20   1 H        0.925     0.070     2.086     2.259
    21   1 H        0.925     0.059     2.210     2.325
    22   1 H        0.925     0.066     2.132     2.283
    23   1 H        0.924     0.068     2.109     2.271
    24   1 H        0.924     0.055     2.259     2.351
    25   1 H        0.924     0.058     2.221     2.330
    26   1 H        0.924     0.079     1.991     2.206
    27   1 H        0.925     0.066     2.127     2.281
    28   1 H        0.925     0.058     2.224     2.332
    29   1 H        0.925     0.057     2.231     2.336
    30   1 H        0.925     0.082     1.960     2.189
    31   1 H        0.925     0.087     1.912     2.162
    32   1 H        0.924     0.059     2.210     2.325
    33   1 H        0.924     0.049     2.332     2.388
    34   1 H        0.925     0.063     2.164     2.300
    35   1 H        0.925     0.064     2.148     2.292
    36   1 H        0.925     0.057     2.240     2.340
    37   1 H        0.924     0.075     2.029     2.227
    38   1 H        0.924     0.061     2.182     2.310
    39   1 H        0.925     0.059     2.215     2.327
    40   1 H        0.925     0.049     2.329     2.387
    41   1 H        0.925     0.064     2.150     2.293

 Mol. C6AA /au·bohr⁶  :      26552.695584
 Mol. C8AA /au·bohr⁸  :     863179.965543
 Mol. α(0) /au        :        258.322082


Wiberg/Mayer (AO) data.
largest (>0.10) Wiberg bond orders for each atom

 ---------------------------------------------------------------------------
     #   Z sym  total        # sym  WBO       # sym  WBO       # sym  WBO
 ---------------------------------------------------------------------------
     1   6 C    3.989 --     2 C    1.022    20 H    0.982    21 H    0.980
                            22 H    0.975
     2   6 C    3.910 --     1 C    1.022    24 H    0.970    23 H    0.969
                             3 O    0.903
     3   8 O    2.409 --     4 P    1.313     2 C    0.903
     4  15 P    5.292 --     5 S    1.545     6 O    1.356     3 O    1.313
                             9 S    0.950
     5  16 S    1.892 --     4 P    1.545     9 S    0.141
     6   8 O    2.438 --     4 P    1.356     7 C    0.884
     7   6 C    3.907 --     8 C    1.022    25 H    0.973    26 H    0.968
                             6 O    0.884
     8   6 C    3.991 --     7 C    1.022    27 H    0.981    29 H    0.980
                            28 H    0.978
     9  16 S    2.273 --    10 C    0.992     4 P    0.950     5 S    0.141
    10   6 C    3.960 --     9 S    0.992    11 S    0.978    30 H    0.968
                            31 H    0.950
    11  16 S    2.268 --    10 C    0.978    12 P    0.973    13 S    0.137
    12  15 P    5.265 --    13 S    1.585    14 O    1.296    17 O    1.269
                            11 S    0.973
    13  16 S    1.902 --    12 P    1.585    11 S    0.137
    14   8 O    2.384 --    12 P    1.296    15 C    0.900
    15   6 C    3.921 --    16 C    1.021    32 H    0.971    33 H    0.969
                            14 O    0.900
    16   6 C    3.990 --    15 C    1.021    35 H    0.984    36 H    0.980
                            34 H    0.980
    17   8 O    2.378 --    12 P    1.269    18 C    0.897
    18   6 C    3.906 --    19 C    1.022    38 H    0.969    37 H    0.963
                            17 O    0.897
    19   6 C    3.992 --    18 C    1.022    40 H    0.985    39 H    0.980
                            41 H    0.976
    20   1 H    0.995 --     1 C    0.982
    21   1 H    0.996 --     1 C    0.980
    22   1 H    0.996 --     1 C    0.975
    23   1 H    0.995 --     2 C    0.969
    24   1 H    0.997 --     2 C    0.970
    25   1 H    0.997 --     7 C    0.973
    26   1 H    0.994 --     7 C    0.968
    27   1 H    0.996 --     8 C    0.981
    28   1 H    0.997 --     8 C    0.978
    29   1 H    0.995 --     8 C    0.980
    30   1 H    0.992 --    10 C    0.968
    31   1 H    0.992 --    10 C    0.950
    32   1 H    0.996 --    15 C    0.971
    33   1 H    0.998 --    15 C    0.969
    34   1 H    0.996 --    16 C    0.980
    35   1 H    0.996 --    16 C    0.984
    36   1 H    0.995 --    16 C    0.980
    37   1 H    0.994 --    18 C    0.963
    38   1 H    0.996 --    18 C    0.969
    39   1 H    0.996 --    19 C    0.980
    40   1 H    0.997 --    19 C    0.985
    41   1 H    0.996 --    19 C    0.976
 ---------------------------------------------------------------------------

Topologies differ in total number of bonds
Writing topology from bond orders to xtbtopo.mol

molecular dipole:
                 x           y           z       tot (Debye)
 q only:        0.414      -1.929       0.802
   full:        0.312      -1.869       0.719       5.152
molecular quadrupole (traceless):
                xx          xy          yy          xz          yz          zz
 q only:       26.282       4.933     -21.574      -0.094       3.992      -4.708
  q+dip:       32.259      10.769     -22.539      -0.053       6.198      -9.720
   full:       32.696      10.051     -23.311      -0.103       5.601      -9.385


           -------------------------------------------------
          | TOTAL ENERGY              -65.006364564653 Eh   |
          | GRADIENT NORM               0.041894247742 Eh/α |
          | HOMO-LUMO GAP               2.595087164812 eV   |
           -------------------------------------------------

------------------------------------------------------------------------
 * finished run on 2025/04/09 at 05:20:55.528     
------------------------------------------------------------------------
 total:
 * wall-time:     0 d,  0 h,  0 min,  0.107 sec
 *  cpu-time:     0 d,  0 h,  0 min,  0.069 sec
 * ratio c/w:     0.651 speedup
 SCF:
 * wall-time:     0 d,  0 h,  0 min,  0.067 sec
 *  cpu-time:     0 d,  0 h,  0 min,  0.056 sec
 * ratio c/w:     0.842 speedup

