
                                 *****************
                                 * O   R   C   A *
                                 *****************

                                            #,                                       
                                            ###                                      
                                            ####                                     
                                            #####                                    
                                            ######                                   
                                           ########,                                 
                                     ,,################,,,,,                         
                               ,,#################################,,                 
                          ,,##########################################,,             
                       ,#########################################, ''#####,          
                    ,#############################################,,   '####,        
                  ,##################################################,,,,####,       
                ,###########''''           ''''###############################       
              ,#####''   ,,,,##########,,,,          '''####'''          '####       
            ,##' ,,,,###########################,,,                        '##       
           ' ,,###''''                  '''############,,,                           
         ,,##''                                '''############,,,,        ,,,,,,###''
      ,#''                                            '''#######################'''  
     '                                                          ''''####''''         
             ,#######,   #######,   ,#######,      ##                                
            ,#'     '#,  ##    ##  ,#'     '#,    #''#        ,####,   ,####,        
            ##       ##  ##   ,#'  ##            #'  '#       #'       #'  '#        
            ##       ##  #######   ##           ,######,      #####,   #    #        
            '#,     ,#'  ##    ##  '#,     ,#' ,#      #,     #,   #   #,  ,#        
             '#######'   ##     ##  '#######'  #'      '#     '####' # '####'        



                #########################################################
                #                        -***-                          #
                #          Department of theory and spectroscopy        #
                #                                                       #
                #                      Frank Neese                      #
                #                                                       #
                #     Directorship, Architecture, Infrastructure        #
                #                    SHARK, DRIVERS                     #
                #        Core code/Algorithms in most modules           #
                #                                                       #
                #        Max Planck Institute fuer Kohlenforschung      #
                #                Kaiser Wilhelm Platz 1                 #
                #                 D-45470 Muelheim/Ruhr                 #
                #                      Germany                          #
                #                                                       #
                #                  All rights reserved                  #
                #                        -***-                          #
                #########################################################


                         Program Version 6.0.0  -   RELEASE  -


 With contributions from (in alphabetic order):
   Daniel Aravena         : Magnetic Suceptibility
   Michael Atanasov       : Ab Initio Ligand Field Theory (pilot matlab implementation)
   Alexander A. Auer      : GIAO ZORA, VPT2 properties, NMR spectrum
   Ute Becker             : All parallelization in ORCA, NUMFREQ, NUMCALC
   Giovanni Bistoni       : ED, misc. LED, open-shell LED, HFLD
   Martin Brehm           : Molecular dynamics
   Dmytro Bykov           : pre 5.0 version of the SCF Hessian
   Marcos Casanova-Páez   : Triplet and SCS-CIS(D). UHF-(DLPNO)-IP/EA/STEOM-CCSD. UHF-CVS-IP/STEOM-CCSD
   Vijay G. Chilkuri      : MRCI spin determinant printing, contributions to CSF-ICE
   Pauline Colinet        : FMM embedding
   Dipayan Datta          : RHF DLPNO-CCSD density
   Achintya Kumar Dutta   : EOM-CC, STEOM-CC
   Nicolas Foglia         : Exact transition moments, OPA infrastructure, MCD improvements
   Dmitry Ganyushin       : Spin-Orbit,Spin-Spin,Magnetic field MRCI
   Miquel Garcia          : C-PCM and meta-GGA Hessian, CCSD/C-PCM, Gaussian charge scheme
   Tiago L. C. Gouveia    : GS-ROHF, GS-ROCIS
   Yang Guo               : DLPNO-NEVPT2, F12-NEVPT2, CIM, IAO-localization
   Andreas Hansen         : Spin unrestricted coupled pair/coupled cluster methods
   Ingolf Harden          : AUTO-CI MPn and infrastructure 
   Benjamin Helmich-Paris : MC-RPA, TRAH-(SCF,CASSCF), AVAS, COSX integrals, SCF dyn. polar.
   Lee Huntington         : MR-EOM, pCC
   Robert Izsak           : Overlap fitted RIJCOSX, COSX-SCS-MP3, EOM
   Riya Kayal             : Wick's Theorem for AUTO-CI, AUTO-CI UHF-CCSDT
   Emily Kempfer          : AUTO-CI, RHF CISDT and CCSDT
   Christian Kollmar      : KDIIS, OOCD, Brueckner-CCSD(T), CCSD density, CASPT2, CASPT2-K, improved NEVPT2
   Axel Koslowski         : Symmetry handling
   Simone Kossmann        : Meta GGA functionals, TD-DFT gradient, OOMP2, (MP2 Hessian; deprecated post 5.0)
   Lucas Lang             : DCDCAS
   Marvin Lechner         : AUTO-CI (C++ implementation), FIC-MRCC
   Spencer Leger          : CASSCF response
   Dagmar Lenk            : GEPOL surface, SMD, ORCA-2-JSON
   Dimitrios Liakos       : Extrapolation schemes; Compound Job, initial MDCI parallelization
   Dimitrios Manganas     : Further ROCIS development; embedding schemes. LFT, Crystal Embedding
   Dimitrios Pantazis     : SARC Basis sets
   Anastasios Papadopoulos: AUTO-CI, single reference methods and gradients
   Taras Petrenko         : pre 6.0 DFT Hessian and TD-DFT gradient, (ASA, deprecated), ECA, 1-Electron XAS/XES, NRVS
   Peter Pinski           : DLPNO-MP2, DLPNO-MP2 Gradient
   Christoph Reimann      : Effective Core Potentials
   Marius Retegan         : Local ZFS, SOC
   Christoph Riplinger    : Optimizer, TS searches, QM/MM, DLPNO-CCSD(T), (RO)-DLPNO pert. Triples
   Michael Roemelt        : Original ROCIS implementation
   Masaaki Saitow         : Open-shell DLPNO-CCSD energy and density
   Barbara Sandhoefer     : DKH picture change effects
   Kantharuban Sivalingam : CASSCF convergence/infrastructure, NEVPT2 and variants, FIC-MRCI
   Bernardo de Souza      : ESD, SOC TD-DFT
   Georgi Stoychev        : AutoAux, RI-MP2 NMR, DLPNO-MP2 response, X2C
   Van Anh Tran           : RI-MP2 g-tensors
   Willem Van den Heuvel  : Paramagnetic NMR
   Zikuan Wang            : NOTCH, Electric field optimization 
   Frank Wennmohs         : Technical directorship and infrastructure
   Hang Xu                : AUTO-CI-Response properties 


 We gratefully acknowledge several colleagues who have allowed us to
 interface, adapt or use parts of their codes:
   Stefan Grimme, W. Hujo, H. Kruse, P. Pracht,  : VdW corrections, initial TS optimization,
                  C. Bannwarth, S. Ehlert,         DFT functionals, gCP, sTDA/sTD-DF
                  L. Wittmann, M. Mueller
   Ed Valeev, F. Pavosevic, A. Kumar             : LibInt (2-el integral package), F12 methods
   Garnet Chan, S. Sharma, J. Yang, R. Olivares  : DMRG
   Ulf Ekstrom                                   : XCFun DFT Library
   Mihaly Kallay                                 : mrcc  (arbitrary order and MRCC methods)
   Frank Weinhold                                : gennbo (NPA and NBO analysis)
   Simon Mueller                                 : openCOSMO-RS
   Christopher J. Cramer and Donald G. Truhlar   : smd solvation model
   Lars Goerigk                                  : TD-DFT with DH, B97 family of functionals
   V. Asgeirsson, H. Jonsson                     : NEB implementation
   FAccTs GmbH                                   : IRC, NEB, NEB-TS, DLPNO-Multilevel, CI-OPT
                                                   MM, QMMM, 2- and 3-layer-ONIOM, Crystal-QMMM,
                                                   LR-CPCM, SF, NACMEs, symmetry and pop. for TD-DFT,
                                                   nearIR, NL-DFT gradient (VV10), updates on ESD,
                                                   ML-optimized integration grids, MBIS, APM,
                                                   GOAT, DOCKER, SOLVATOR, interface openCOSMO-RS
   S Lehtola, MJT Oliveira, MAL Marques          : LibXC Library
   Liviu Ungur et al                             : ANISO software


 Your calculation uses the libint2 library for the computation of 2-el integrals
 For citations please refer to: http://libint.valeyev.net

 Your ORCA version has been built with support for libXC version: 6.2.2
 For citations please refer to: https://libxc.gitlab.io

 This ORCA versions uses:
   CBLAS   interface :  Fast vector & matrix operations
   LAPACKE interface :  Fast linear algebra routines
   SCALAPACK package :  Parallel linear algebra routines
   Shared memory     :  Shared parallel matrices
   BLAS/LAPACK       :  OpenBLAS 0.3.27  USE64BITINT DYNAMIC_ARCH NO_AFFINITY SapphireRapids SINGLE_THREADED
        Core in use  :  SapphireRapids
   Copyright (c) 2011-2014, The OpenBLAS Project


Your calculation utilizes the geometrical counterpoise correction gCP
Please cite in your paper:
H.Kruse, S. Grimme J.Chem.Phys., 136, (2012), 154101 
   

Your calculation utilizes the atom-pairwise dispersion correction
based on EEQ partial charges (D4)


================================================================================

----- Orbital basis set information -----
Your calculation utilizes the basis: def2-SV(P)
   F. Weigend and R. Ahlrichs, Phys. Chem. Chem. Phys. 7, 3297 (2005).

----- AuxJ basis set information -----
Your calculation utilizes the auxiliary basis: def2/J
   F. Weigend, Phys. Chem. Chem. Phys. 8, 1057 (2006).

================================================================================
                                        WARNINGS
                       Please study these warnings very carefully!
================================================================================


================================================================================
                                       INPUT FILE
================================================================================
NAME = sp.inp
|  1> ! pbe def2-sv(p) def2/J RI DEFGRID1 loosescf d4 GCP(DFT/SV(P)) printgap
|  2> %output
|  3>     printlevel normal
|  4> end
|  5> * xyz 0 1
|  6> C 4.4007071081 0.2849745133 -2.4577904252
|  7> C 4.9000914812 -0.3663616459 -1.1847551746
|  8> O 3.8297846956 -0.9114804197 -0.3909910765
|  9> P 2.6980513076 -0.006463571 0.2630349345
| 10> S 3.2698858269 1.702398254 1.0182727261
| 11> O 2.1106296434 -0.9551028381 1.3742839633
| 12> C 1.6460694923 -2.3058399768 1.1229580627
| 13> C 1.0690370924 -2.827212851 2.4218505228
| 14> S 1.1938538784 0.1054405462 -1.2494529807
| 15> C 0.1785977273 1.3307181271 -0.3857691879
| 16> S -0.8741848401 0.6142911567 0.9039805747
| 17> P -2.508986963 0.1682562172 -0.4072143688
| 18> S -2.1289516026 -0.9392904299 -1.9707239099
| 19> O -3.0310514868 1.5990932599 -0.8271538086
| 20> C -3.5303191558 2.5842732151 0.1127829741
| 21> C -5.0389347353 2.5069780881 0.2248641743
| 22> O -3.639498838 -0.3666205516 0.5705565523
| 23> C -3.7954108894 -1.7669379545 0.8688512865
| 24> C -2.6005108414 -2.3215072604 1.6146528705
| 25> H 3.8316377254 1.1822545985 -2.2182745689
| 26> H 5.2489340825 0.5617662892 -3.0756362464
| 27> H 3.7599917858 -0.3993806403 -3.0089219754
| 28> H 5.4475456183 0.3566236826 -0.5725107938
| 29> H 5.5317302373 -1.2308456056 -1.39438538
| 30> H 0.8949131295 -2.2713764821 0.3273320871
| 31> H 2.4944905094 -2.9034154397 0.7844684237
| 32> H 0.273062122 -2.1709256927 2.762078805
| 33> H 0.6733532112 -3.8249103565 2.2628863026
| 34> H 1.8421835045 -2.8607782029 3.1837360081
| 35> H -0.4453576161 1.8107455969 -1.1374587607
| 36> H 0.839091219 2.0512975519 0.0999209182
| 37> H -3.0516423323 2.4245705761 1.0827629766
| 38> H -3.2131806875 3.5423333874 -0.3037037168
| 39> H -5.387195663 3.3109764386 0.8658279203
| 40> H -5.4903609532 2.6104891334 -0.758091679
| 41> H -5.3382994614 1.553340717 0.6504428525
| 42> H -4.7039818013 -1.8065784005 1.471112871
| 43> H -3.9452428038 -2.3043079392 -0.0723132358
| 44> H -2.8018297678 -3.3454938615 1.9118559461
| 45> H -1.726900554 -2.3075196805 0.9645213636
| 46> H -2.3950969711 -1.7207988811 2.4974574097
| 47> *
| 48> 
| 49>                          ****END OF INPUT****
================================================================================

                       ****************************
                       * Single Point Calculation *
                       ****************************

---------------------------------
CARTESIAN COORDINATES (ANGSTROEM)
---------------------------------
  C      4.400707    0.284975   -2.457790
  C      4.900091   -0.366362   -1.184755
  O      3.829785   -0.911480   -0.390991
  P      2.698051   -0.006464    0.263035
  S      3.269886    1.702398    1.018273
  O      2.110630   -0.955103    1.374284
  C      1.646069   -2.305840    1.122958
  C      1.069037   -2.827213    2.421851
  S      1.193854    0.105441   -1.249453
  C      0.178598    1.330718   -0.385769
  S     -0.874185    0.614291    0.903981
  P     -2.508987    0.168256   -0.407214
  S     -2.128952   -0.939290   -1.970724
  O     -3.031051    1.599093   -0.827154
  C     -3.530319    2.584273    0.112783
  C     -5.038935    2.506978    0.224864
  O     -3.639499   -0.366621    0.570557
  C     -3.795411   -1.766938    0.868851
  C     -2.600511   -2.321507    1.614653
  H      3.831638    1.182255   -2.218275
  H      5.248934    0.561766   -3.075636
  H      3.759992   -0.399381   -3.008922
  H      5.447546    0.356624   -0.572511
  H      5.531730   -1.230846   -1.394385
  H      0.894913   -2.271376    0.327332
  H      2.494491   -2.903415    0.784468
  H      0.273062   -2.170926    2.762079
  H      0.673353   -3.824910    2.262886
  H      1.842184   -2.860778    3.183736
  H     -0.445358    1.810746   -1.137459
  H      0.839091    2.051298    0.099921
  H     -3.051642    2.424571    1.082763
  H     -3.213181    3.542333   -0.303704
  H     -5.387196    3.310976    0.865828
  H     -5.490361    2.610489   -0.758092
  H     -5.338299    1.553341    0.650443
  H     -4.703982   -1.806578    1.471113
  H     -3.945243   -2.304308   -0.072313
  H     -2.801830   -3.345494    1.911856
  H     -1.726901   -2.307520    0.964521
  H     -2.395097   -1.720799    2.497457

----------------------------
CARTESIAN COORDINATES (A.U.)
----------------------------
  NO LB      ZA    FRAG     MASS         X           Y           Z
   0 C     6.0000    0    12.011    8.316131    0.538524   -4.644551
   1 C     6.0000    0    12.011    9.259831   -0.692323   -2.238863
   2 O     8.0000    0    15.999    7.237244   -1.722448   -0.738866
   3 P    15.0000    0    30.974    5.098578   -0.012214    0.497064
   4 S    16.0000    0    32.060    6.179189    3.217066    1.924257
   5 O     8.0000    0    15.999    3.988512   -1.804883    2.597020
   6 C     6.0000    0    12.011    3.110621   -4.357406    2.122083
   7 C     6.0000    0    12.011    2.020187   -5.342658    4.576634
   8 S    16.0000    0    32.060    2.256057    0.199254   -2.361124
   9 C     6.0000    0    12.011    0.337501    2.514693   -0.728998
  10 S    16.0000    0    32.060   -1.651970    1.160842    1.708276
  11 P    15.0000    0    30.974   -4.741298    0.317958   -0.769524
  12 S    16.0000    0    32.060   -4.023135   -1.775002   -3.724128
  13 O     8.0000    0    15.999   -5.727857    3.021848   -1.563094
  14 C     6.0000    0    12.011   -6.671336    4.883569    0.213129
  15 C     6.0000    0    12.011   -9.522207    4.737502    0.424932
  16 O     8.0000    0    15.999   -6.877656   -0.692812    1.078196
  17 C     6.0000    0    12.011   -7.172287   -3.339029    1.641891
  18 C     6.0000    0    12.011   -4.914253   -4.387013    3.051252
  19 H     1.0000    0     1.008    7.240746    2.234137   -4.191931
  20 H     1.0000    0     1.008    9.919048    1.061584   -5.812110
  21 H     1.0000    0     1.008    7.105355   -0.754720   -5.686038
  22 H     1.0000    0     1.008   10.294369    0.673921   -1.081889
  23 H     1.0000    0     1.008   10.453455   -2.325961   -2.635006
  24 H     1.0000    0     1.008    1.691141   -4.292279    0.618568
  25 H     1.0000    0     1.008    4.713904   -5.486660    1.482430
  26 H     1.0000    0     1.008    0.516013   -4.102455    5.219573
  27 H     1.0000    0     1.008    1.272453   -7.228033    4.276235
  28 H     1.0000    0     1.008    3.481222   -5.406087    6.016389
  29 H     1.0000    0     1.008   -0.841604    3.421813   -2.149486
  30 H     1.0000    0     1.008    1.585653    3.876391    0.188823
  31 H     1.0000    0     1.008   -5.766768    4.581774    2.046125
  32 H     1.0000    0     1.008   -6.072032    6.694040   -0.573917
  33 H     1.0000    0     1.008  -10.180324    6.256839    1.636178
  34 H     1.0000    0     1.008  -10.375279    4.933110   -1.432586
  35 H     1.0000    0     1.008  -10.087924    2.935389    1.229159
  36 H     1.0000    0     1.008   -8.889237   -3.413938    2.780000
  37 H     1.0000    0     1.008   -7.455428   -4.354511   -0.136652
  38 H     1.0000    0     1.008   -5.294691   -6.322067    3.612884
  39 H     1.0000    0     1.008   -3.263369   -4.360580    1.822681
  40 H     1.0000    0     1.008   -4.526077   -3.251839    4.719511

--------------------------------
INTERNAL COORDINATES (ANGSTROEM)
--------------------------------
 C      0   0   0     0.000000000000     0.00000000     0.00000000
 C      1   0   0     1.514675639749     0.00000000     0.00000000
 O      2   1   0     1.439712657541   112.40146279     0.00000000
 P      3   2   1     1.589850930436   122.71580094   295.89413152
 S      4   3   2     1.953864779422   116.65016968   320.23684041
 O      4   3   2     1.574755560290   102.29314704   198.54478349
 C      6   4   3     1.450335016528   123.93392955   307.39194563
 C      7   6   4     1.513908084195   107.10660650   184.17029199
 S      4   3   2     2.136059954937   103.87567968    88.85466211
 C      9   4   3     1.810524757231    95.31063786   187.46679352
 S     10   9   4     1.812477086273   113.43241226   279.59904480
 P     11  10   9     2.142605266528    95.16392121   272.55586386
 S     12  11  10     1.953368509976   117.34935216    55.59746412
 O     12  11  10     1.579935170465   103.07630592   292.77479543
 C     14  12  11     1.450285801113   123.82688242   299.73229600
 C     15  14  12     1.514746744115   110.86412889   265.20026109
 O     12  11  10     1.587509442954   103.68449928   185.11862954
 C     17  12  11     1.440200383658   122.15824226   267.74674799
 C     18  17  12     1.513787713801   111.88782808    64.86554280
 H      1   2   3     1.089182885948   109.97976485    67.82493789
 H      1   2   3     1.085281597596   109.29692577   187.29268559
 H      1   2   3     1.087476016340   110.46196106   307.73185427
 H      2   1   3     1.094192395914   110.55453152   238.87786008
 H      2   1   3     1.090983436081   111.72359349   116.06485333
 H      7   6   4     1.094734811217   108.44569847   305.09463924
 H      7   6   4     1.091553888650   108.33845244    63.23873146
 H      8   7   6     1.086298426613   109.87331563    57.55463013
 H      8   7   6     1.085004916867   109.26730346   177.74040586
 H      8   7   6     1.085979511824   109.95070895   297.95833139
 H     10   9   4     1.088477770180   106.88565376   158.89620638
 H     10   9   4     1.091504117806   108.64578656    38.70885050
 H     15  14  12     1.093388146776   108.96692972    27.99858780
 H     15  14  12     1.091749634999   104.41085904   145.31412916
 H     16  15  14     1.085602848677   108.98961085   184.94024784
 H     16  15  14     1.086601295896   109.99692845   304.73715174
 H     16  15  14     1.086352008389   110.37938716    64.89967417
 H     18  17  12     1.090775633700   103.87877482   185.68870204
 H     18  17  12     1.094078041579   108.31338387   302.68906498
 H     19  18  17     1.085084115405   109.52454508   174.01043353
 H     19  18  17     1.089064535694   109.53438808   293.42244248
 H     19  18  17     1.087377243419   110.28646643    53.41975986

---------------------------
INTERNAL COORDINATES (A.U.)
---------------------------
 C      0   0   0     0.000000000000     0.00000000     0.00000000
 C      1   0   0     2.862322140847     0.00000000     0.00000000
 O      2   1   0     2.720662634292   112.40146279     0.00000000
 P      3   2   1     3.004382852285   122.71580094   295.89413152
 S      4   3   2     3.692269335822   116.65016968   320.23684041
 O      4   3   2     2.975856736818   102.29314704   198.54478349
 C      6   4   3     2.740735983673   123.93392955   307.39194563
 C      7   6   4     2.860871671058   107.10660650   184.17029199
 S      4   3   2     4.036568320467   103.87567968    88.85466211
 C      9   4   3     3.421395949852    95.31063786   187.46679352
 S     10   9   4     3.425085317064   113.43241226   279.59904480
 P     11  10   9     4.048937166835    95.16392121   272.55586386
 S     12  11  10     3.691331522481   117.34935216    55.59746412
 O     12  11  10     2.985644781529   103.07630592   292.77479543
 C     14  12  11     2.740642980018   123.82688242   299.73229600
 C     15  14  12     2.862456508626   110.86412889   265.20026109
 O     12  11  10     2.999958082196   103.68449928   185.11862954
 C     17  12  11     2.721584303081   122.15824226   267.74674799
 C     18  17  12     2.860644203978   111.88782808    64.86554280
 H      1   2   3     2.058257364196   109.97976485    67.82493789
 H      1   2   3     2.050884997640   109.29692577   187.29268559
 H      1   2   3     2.055031848090   110.46196106   307.73185427
 H      2   1   3     2.067723966096   110.55453152   238.87786008
 H      2   1   3     2.061659910837   111.72359349   116.06485333
 H      7   6   4     2.068748982471   108.44569847   305.09463924
 H      7   6   4     2.062737909966   108.33845244    63.23873146
 H      8   7   6     2.052806526008   109.87331563    57.55463013
 H      8   7   6     2.050362146837   109.26730346   177.74040586
 H      8   7   6     2.052203864397   109.95070895   297.95833139
 H     10   9   4     2.056924888502   106.88565376   158.89620638
 H     10   9   4     2.062643856700   108.64578656    38.70885050
 H     15  14  12     2.066204155482   108.96692972    27.99858780
 H     15  14  12     2.063107816956   104.41085904   145.31412916
 H     16  15  14     2.051492074204   108.98961085   184.94024784
 H     16  15  14     2.053378866008   109.99692845   304.73715174
 H     16  15  14     2.052907780890   110.37938716    64.89967417
 H     18  17  12     2.061267221248   103.87877482   185.68870204
 H     18  17  12     2.067507867721   108.31338387   302.68906498
 H     19  18  17     2.050511810385   109.52454508   174.01043353
 H     19  18  17     2.058033714628   109.53438808   293.42244248
 H     19  18  17     2.054845194320   110.28646643    53.41975986

---------------------
BASIS SET INFORMATION
---------------------
There are 5 groups of distinct atoms

 Group   1 Type C   : 7s4p1d contracted to 3s2p1d pattern {511/31/1}
 Group   2 Type O   : 7s4p1d contracted to 3s2p1d pattern {511/31/1}
 Group   3 Type P   : 10s7p1d contracted to 4s3p1d pattern {5311/511/1}
 Group   4 Type S   : 10s7p1d contracted to 4s3p1d pattern {5311/511/1}
 Group   5 Type H   : 4s contracted to 2s pattern {31}

Atom   0C    basis set group =>   1
Atom   1C    basis set group =>   1
Atom   2O    basis set group =>   2
Atom   3P    basis set group =>   3
Atom   4S    basis set group =>   4
Atom   5O    basis set group =>   2
Atom   6C    basis set group =>   1
Atom   7C    basis set group =>   1
Atom   8S    basis set group =>   4
Atom   9C    basis set group =>   1
Atom  10S    basis set group =>   4
Atom  11P    basis set group =>   3
Atom  12S    basis set group =>   4
Atom  13O    basis set group =>   2
Atom  14C    basis set group =>   1
Atom  15C    basis set group =>   1
Atom  16O    basis set group =>   2
Atom  17C    basis set group =>   1
Atom  18C    basis set group =>   1
Atom  19H    basis set group =>   5
Atom  20H    basis set group =>   5
Atom  21H    basis set group =>   5
Atom  22H    basis set group =>   5
Atom  23H    basis set group =>   5
Atom  24H    basis set group =>   5
Atom  25H    basis set group =>   5
Atom  26H    basis set group =>   5
Atom  27H    basis set group =>   5
Atom  28H    basis set group =>   5
Atom  29H    basis set group =>   5
Atom  30H    basis set group =>   5
Atom  31H    basis set group =>   5
Atom  32H    basis set group =>   5
Atom  33H    basis set group =>   5
Atom  34H    basis set group =>   5
Atom  35H    basis set group =>   5
Atom  36H    basis set group =>   5
Atom  37H    basis set group =>   5
Atom  38H    basis set group =>   5
Atom  39H    basis set group =>   5
Atom  40H    basis set group =>   5
---------------------------------
AUXILIARY/J BASIS SET INFORMATION
---------------------------------
There are 5 groups of distinct atoms

 Group   1 Type C   : 12s5p4d2f1g contracted to 6s4p3d1f1g pattern {711111/2111/211/2/1}
 Group   2 Type O   : 12s5p4d2f1g contracted to 6s4p3d1f1g pattern {711111/2111/211/2/1}
 Group   3 Type P   : 14s5p5d2f1g contracted to 8s4p3d1f1g pattern {71111111/2111/311/2/1}
 Group   4 Type S   : 14s5p5d2f1g contracted to 8s4p3d1f1g pattern {71111111/2111/311/2/1}
 Group   5 Type H   : 5s2p1d contracted to 3s1p1d pattern {311/2/1}

Atom   0C    basis set group =>   1
Atom   1C    basis set group =>   1
Atom   2O    basis set group =>   2
Atom   3P    basis set group =>   3
Atom   4S    basis set group =>   4
Atom   5O    basis set group =>   2
Atom   6C    basis set group =>   1
Atom   7C    basis set group =>   1
Atom   8S    basis set group =>   4
Atom   9C    basis set group =>   1
Atom  10S    basis set group =>   4
Atom  11P    basis set group =>   3
Atom  12S    basis set group =>   4
Atom  13O    basis set group =>   2
Atom  14C    basis set group =>   1
Atom  15C    basis set group =>   1
Atom  16O    basis set group =>   2
Atom  17C    basis set group =>   1
Atom  18C    basis set group =>   1
Atom  19H    basis set group =>   5
Atom  20H    basis set group =>   5
Atom  21H    basis set group =>   5
Atom  22H    basis set group =>   5
Atom  23H    basis set group =>   5
Atom  24H    basis set group =>   5
Atom  25H    basis set group =>   5
Atom  26H    basis set group =>   5
Atom  27H    basis set group =>   5
Atom  28H    basis set group =>   5
Atom  29H    basis set group =>   5
Atom  30H    basis set group =>   5
Atom  31H    basis set group =>   5
Atom  32H    basis set group =>   5
Atom  33H    basis set group =>   5
Atom  34H    basis set group =>   5
Atom  35H    basis set group =>   5
Atom  36H    basis set group =>   5
Atom  37H    basis set group =>   5
Atom  38H    basis set group =>   5
Atom  39H    basis set group =>   5
Atom  40H    basis set group =>   5
------------------------------------------------------------------------------
                             ORCA STARTUP CALCULATIONS
                           -- RI-GTO INTEGRALS CHOSEN --
------------------------------------------------------------------------------
------------------------------------------------------------------------------
                   ___                                                        
                  /   \      - P O W E R E D   B Y -                         
                 /     \                                                     
                 |  |  |   _    _      __       _____    __    __             
                 |  |  |  | |  | |    /  \     |  _  \  |  |  /  |          
                  \  \/   | |  | |   /    \    | | | |  |  | /  /          
                 / \  \   | |__| |  /  /\  \   | |_| |  |  |/  /          
                |  |  |   |  __  | /  /__\  \  |    /   |      \           
                |  |  |   | |  | | |   __   |  |    \   |  |\   \          
                \     /   | |  | | |  |  |  |  | |\  \  |  | \   \       
                 \___/    |_|  |_| |__|  |__|  |_| \__\ |__|  \__/        
                                                                              
                      - O R C A' S   B I G   F R I E N D -                    
                                      &                                       
                       - I N T E G R A L  F E E D E R -                       
                                                                              
 v1 FN, 2020, v2 2021, v3 2022-2024                                           
------------------------------------------------------------------------------


----------------------
SHARK INTEGRAL PACKAGE
----------------------

Number of atoms                             ...     41
Number of basis functions                   ...    334
Number of shells                            ...    170
Maximum angular momentum                    ...      2
Integral batch strategy                     ... SHARK/LIBINT Hybrid
RI-J (if used) integral strategy            ... SPLIT-RIJ (Revised 2003 algorithm where possible)
Printlevel                                  ...      1
Contraction scheme used                     ... SEGMENTED contraction
Prescreening option                         ... SCHWARTZ
   Thresh                                   ... 1.000e-09
   Tcut                                     ... 1.000e-10
   Tpresel                                  ... 1.000e-10 
Coulomb Range Separation                    ... NOT USED
Exchange Range Separation                   ... NOT USED
Multipole approximations                    ... NOT USED
Finite Nucleus Model                        ... NOT USED
CABS basis                                  ... NOT available
Auxiliary Coulomb fitting basis             ... AVAILABLE
   # of basis functions in Aux-J            ...   1185
   # of shells in Aux-J                     ...    407
   Maximum angular momentum in Aux-J        ...      4
Auxiliary J/K fitting basis                 ... NOT available
Auxiliary Correlation fitting basis         ... NOT available
Auxiliary 'external' fitting basis          ... NOT available

Checking pre-screening integrals            ... done (  0.0 sec) Dimension = 170
Check shell pair data                       ... done (  0.0 sec)
Shell pair information
Shell pair cut-off parameter TPreSel        ...   1.0e-10
Total number of shell pairs                 ...     14535
Shell pairs after pre-screening             ...      9880
Total number of primitive shell pairs       ...     62501
Primitive shell pairs kept                  ...     24664
          la=0 lb=0:   3851 shell pairs
          la=1 lb=0:   3348 shell pairs
          la=1 lb=1:    769 shell pairs
          la=2 lb=0:   1246 shell pairs
          la=2 lb=1:    561 shell pairs
          la=2 lb=2:    105 shell pairs

Calculating one electron integrals          ... done (  0.0 sec)
Calculating RI/J V-Matrix + Cholesky decomp.... done (  0.1 sec)
Calculating Nuclear repulsion               ... done (  0.0 sec) ENN=   2719.208715732816 Eh

Diagonalization of the overlap matrix:
Smallest eigenvalue                        ... 3.140e-03
Time for diagonalization                   ...    0.010 sec
Threshold for overlap eigenvalues          ... 1.000e-07
Number of eigenvalues below threshold      ... 0
Time for construction of square roots      ...    0.030 sec
Total time needed                          ...    0.049 sec

-------------------
DFT GRID GENERATION
-------------------

General Integration Accuracy     IntAcc      ... 4.159
Radial Grid Type                 RadialGrid  ... OptM3 with GC (2021)
Angular Grid (max. ang.)         AngularGrid ... 3 (Lebedev-194)
Angular grid pruning method      GridPruning ... 4 (adaptive)
Weight generation scheme         WeightScheme... mBecke (2022)
Basis function cutoff            BFCut       ... 1.0000e-10
Integration weight cutoff        WCut        ... 1.0000e-14
Partially contracted basis set               ... off
Rotationally invariant grid construction     ... off
Angular grids for H and He will be reduced by one unit

Total number of grid points                  ...    97505
Total number of batches                      ...     1541
Average number of points per batch           ...       63
Average number of grid points per atom       ...     2378
Initializing property integral containers    ... done (  0.0 sec)

SHARK setup successfully completed in   1.5 seconds

Maximum memory used throughout the entire STARTUP-calculation: 51.3 MB
-------------------------------------------------------------------------------
                                 ORCA GUESS
                   Start orbitals & Density for SCF / CASSCF
-------------------------------------------------------------------------------

------------
SCF SETTINGS
------------
Hamiltonian:
 Density Functional     Method          .... DFT(GTOs)
 Exchange Functional    Exchange        .... PBE
   PBE kappa parameter   XKappa         ....  0.804000
   PBE mue parameter    XMuePBE         ....  0.219520
 Correlation Functional Correlation     .... PBE
   PBE beta parameter  CBetaPBE         ....  0.066725
 LDA part of GGA corr.  LDAOpt          .... PW91-LDA
 Gradients option       PostSCFGGA      .... off
   NL short-range parameter             ....  6.400000
 RI-approximation to the Coulomb term is turned on
   Number of AuxJ basis functions       .... 1185


General Settings:
 Integral files         IntName         .... sp
 Hartree-Fock type      HFTyp           .... RHF
 Total Charge           Charge          ....    0
 Multiplicity           Mult            ....    1
 Number of Electrons    NEL             ....  202
 Basis Dimension        Dim             ....  334
 Nuclear Repulsion      ENuc            ....   2719.2087157328 Eh

Convergence Acceleration:
 AO-DIIS                CNVDIIS         .... on
   Start iteration      DIISMaxIt       ....    12
   Startup error        DIISStart       ....  0.200000
   # of expansion vecs  DIISMaxEq       ....     5
   Bias factor          DIISBfac        ....   1.050
   Max. coefficient     DIISMaxC        ....  10.000
 MO-DIIS                CNVKDIIS        .... off
 Trust-Rad. Augm. Hess. CNVTRAH         .... auto
   Auto Start mean grad. ratio tolernc. ....  1.125000
   Auto Start start iteration           ....    50
   Auto Start num. interpolation iter.  ....    10
   Max. Number of Micro iterations      ....    24
   Max. Number of Macro iterations      .... Maxiter - #DIIS iter
   Number of Davidson start vectors     ....     2
   Converg. threshold    (grad. norm)   ....   1.000e-04
   Grad. Scal. Fac. for Micro threshold ....   0.100
   Minimum threshold for Micro iter.    ....   1.000e-02
   NR start threshold (gradient norm)   ....   1.000e-04
   Initial trust radius                 ....   0.400
   Minimum AH scaling param. (alpha)    ....   1.000
   Maximum AH scaling param. (alpha)    .... 1000.000
   Quad. conv. algorithm                .... NR
   White noise on init. David. guess    .... on
   Maximum white noise                  ....   0.010
   Pseudo random numbers                .... off
   Inactive MOs                         .... canonical
   Orbital update algorithm             .... Taylor
   Preconditioner                       .... Diag
   Full preconditioner red. dimension   ....   250
 SOSCF                  CNVSOSCF        .... on
   Start iteration      SOSCFMaxIt      ....   150
   Startup grad/error   SOSCFStart      ....  0.003300
   Hessian update       SOSCFHessUp     .... L-BFGS
 Level Shifting         CNVShift        .... on
   Level shift para.    LevelShift      ....    0.2500
   Turn off err/grad.   ShiftErr        ....    0.0010
 Zerner damping         CNVZerner       .... off
 Static damping         CNVDamp         .... on
   Fraction old density DampFac         ....    0.7000
   Max. Damping (<1)    DampMax         ....    0.9800
   Min. Damping (>=0)   DampMin         ....    0.0000
   Turn off err/grad.   DampErr         ....    0.1000

SCF Procedure:
 Maximum # iterations   MaxIter         ....   125
 SCF integral mode      SCFMode         .... Direct
   Integral package                     .... SHARK and LIBINT hybrid scheme
 Reset frequency        DirectResetFreq ....    20
 Integral Threshold     Thresh          ....  1.000e-09 Eh
 Primitive CutOff       TCut            ....  1.000e-10 Eh

Convergence Tolerance:
 Convergence Check Mode ConvCheckMode   .... Total+1el-Energy
 Convergence forced     ConvForced      .... 0
 Energy Change          TolE            ....  1.000e-05 Eh
 1-El. energy change                    ....  1.000e-02 Eh
 Orbital Gradient       TolG            ....  1.000e-04
 Orbital Rotation angle TolX            ....  1.000e-04
 DIIS Error             TolErr          ....  5.000e-04

------------------------------
INITIAL GUESS: MODEL POTENTIAL
------------------------------
Loading Hartree-Fock densities                     ... done
Calculating cut-offs                               ... done
Initializing the effective Hamiltonian             ... done
Setting up the integral package (SHARK)            ... done
Starting the Coulomb interaction                   ... done (   0.6 sec)
Making the grid                                    ... done (   0.5 sec)
Mapping shells                                     ... done
Starting the XC term evaluation                    ... done (   0.3 sec)
  promolecular density results
     # of electrons  =    201.993296169
     EX              =   -229.993611256
     EC              =     -7.283425921
     EX+EC           =   -237.277037177
Transforming the Hamiltonian                       ... done (   0.0 sec)
Diagonalizing the Hamiltonian                      ... done (   0.0 sec)
Back transforming the eigenvectors                 ... done (   0.0 sec)
Now organizing SCF variables                       ... done
                      ------------------
                      INITIAL GUESS DONE (   1.6 sec)
                      ------------------
             **** ENERGY FILE WAS UPDATED (sp.en.tmp) ****
Finished Guess after   1.9 sec
Maximum memory used throughout the entire GUESS-calculation: 38.6 MB

-------------------------------------------------------------------------------------------
                                      ORCA LEAN-SCF
                              memory conserving SCF solver
-------------------------------------------------------------------------------------------

----------------------------------------D-I-I-S--------------------------------------------
Iteration    Energy (Eh)           Delta-E    RMSDP     MaxDP     DIISErr   Damp  Time(sec)
-------------------------------------------------------------------------------------------
               ***  Starting incremental Fock matrix formation  ***
    1    -2929.1974704557505902     0.00e+00  2.67e-03  1.39e-01  1.84e-01  0.700   2.2
    2    -2929.4206877446340513    -2.23e-01  1.71e-03  7.18e-02  7.49e-02  0.700   2.0
                               ***Turning on AO-DIIS***
    3    -2929.4914809248239180    -7.08e-02  6.64e-04  1.67e-02  2.25e-02  0.700   2.0
    4    -2929.5361641933404826    -4.47e-02  1.02e-03  3.15e-02  1.04e-02  0.000   1.9
    5    -2929.6403326702593404    -1.04e-01  2.99e-04  1.07e-02  7.83e-03  0.000   1.9
                              *** Initializing SOSCF ***
---------------------------------------S-O-S-C-F--------------------------------------
Iteration    Energy (Eh)           Delta-E    RMSDP     MaxDP     MaxGrad    Time(sec)
--------------------------------------------------------------------------------------
    6    -2929.6413797305858679    -1.05e-03  1.06e-04  3.04e-03  2.39e-03     1.9
               *** Restarting incremental Fock matrix formation ***
    7    -2929.6415059168730295    -1.26e-04  6.66e-05  1.40e-03  1.80e-04     2.1
    8    -2929.6415099294035826    -4.01e-06  2.69e-05  8.08e-04  1.63e-04     1.7
                 **** Energy Check signals convergence ****

               *****************************************************
               *                     SUCCESS                       *
               *           SCF CONVERGED AFTER   8 CYCLES          *
               *****************************************************

             **** ENERGY FILE WAS UPDATED (sp.en.tmp) ****

----------------
TOTAL SCF ENERGY
----------------

Total Energy       :      -2929.64150992940358 Eh          -79719.59835 eV

Components:
Nuclear Repulsion  :       2719.20871573281602 Eh           73993.43091 eV
Electronic Energy  :      -5648.85022566221960 Eh         -153713.02926 eV
One Electron Energy:      -9456.81967663271098 Eh         -257333.14597 eV
Two Electron Energy:       3807.96945097049138 Eh          103620.11671 eV

Virial components:
Potential Energy   :      -5848.92786914487897 Eh         -159157.41873 eV
Kinetic Energy     :       2919.28635921547539 Eh           79437.82038 eV
Virial Ratio       :          2.00354715140611

DFT components:
N(Alpha)           :      101.000007543666 electrons
N(Beta)            :      101.000007543666 electrons
N(Total)           :      202.000015087333 electrons
E(X)               :     -231.806676358099 Eh       
E(C)               :       -7.291827776450 Eh       
E(XC)              :     -239.098504134549 Eh       

---------------
SCF CONVERGENCE
---------------

  Last Energy change         ...    4.0125e-06  Tolerance :   1.0000e-05
  Last MAX-Density change    ...    8.0793e-04  Tolerance :   1.0000e-03
  Last RMS-Density change    ...    2.6858e-05  Tolerance :   1.0000e-04
  Last DIIS Error            ...    2.3915e-03  Tolerance :   5.0000e-04
  Last Orbital Gradient      ...    1.6257e-04  Tolerance :   1.0000e-04
  Last Orbital Rotation      ...    3.8047e-04  Tolerance :   1.0000e-04


----------------
ORBITAL ENERGIES
----------------

  NO   OCC          E(Eh)            E(eV) 
   0   2.0000     -88.043154     -2395.7760 
   1   2.0000     -88.038192     -2395.6410 
   2   2.0000     -87.987871     -2394.2717 
   3   2.0000     -87.983310     -2394.1476 
   4   2.0000     -76.429933     -2079.7642 
   5   2.0000     -76.422587     -2079.5643 
   6   2.0000     -18.801391      -511.6119 
   7   2.0000     -18.796880      -511.4891 
   8   2.0000     -18.793597      -511.3998 
   9   2.0000     -18.788622      -511.2644 
  10   2.0000      -9.960737      -271.0454 
  11   2.0000      -9.958902      -270.9955 
  12   2.0000      -9.953577      -270.8506 
  13   2.0000      -9.953481      -270.8480 
  14   2.0000      -9.951120      -270.7837 
  15   2.0000      -9.892526      -269.1893 
  16   2.0000      -9.888894      -269.0905 
  17   2.0000      -9.886075      -269.0138 
  18   2.0000      -9.883208      -268.9358 
  19   2.0000      -7.687821      -209.1962 
  20   2.0000      -7.682807      -209.0598 
  21   2.0000      -7.633061      -207.7062 
  22   2.0000      -7.628643      -207.5859 
  23   2.0000      -6.427399      -174.8984 
  24   2.0000      -6.420379      -174.7074 
  25   2.0000      -5.715434      -155.5249 
  26   2.0000      -5.712475      -155.4443 
  27   2.0000      -5.710476      -155.3899 
  28   2.0000      -5.707482      -155.3085 
  29   2.0000      -5.704978      -155.2403 
  30   2.0000      -5.699881      -155.1016 
  31   2.0000      -5.662070      -154.0728 
  32   2.0000      -5.657549      -153.9497 
  33   2.0000      -5.653676      -153.8443 
  34   2.0000      -5.653153      -153.8301 
  35   2.0000      -5.649282      -153.7248 
  36   2.0000      -5.648748      -153.7102 
  37   2.0000      -4.650507      -126.5467 
  38   2.0000      -4.649103      -126.5085 
  39   2.0000      -4.647421      -126.4627 
  40   2.0000      -4.643341      -126.3517 
  41   2.0000      -4.641934      -126.3134 
  42   2.0000      -4.640632      -126.2780 
  43   2.0000      -0.994330       -27.0571 
  44   2.0000      -0.986667       -26.8486 
  45   2.0000      -0.952137       -25.9090 
  46   2.0000      -0.943675       -25.6787 
  47   2.0000      -0.762302       -20.7433 
  48   2.0000      -0.723032       -19.6747 
  49   2.0000      -0.712922       -19.3996 
  50   2.0000      -0.696997       -18.9662 
  51   2.0000      -0.688568       -18.7369 
  52   2.0000      -0.675949       -18.3935 
  53   2.0000      -0.652081       -17.7440 
  54   2.0000      -0.637791       -17.3552 
  55   2.0000      -0.600360       -16.3366 
  56   2.0000      -0.591301       -16.0901 
  57   2.0000      -0.580131       -15.7862 
  58   2.0000      -0.569638       -15.5006 
  59   2.0000      -0.558311       -15.1924 
  60   2.0000      -0.507221       -13.8022 
  61   2.0000      -0.502742       -13.6803 
  62   2.0000      -0.481397       -13.0995 
  63   2.0000      -0.473588       -12.8870 
  64   2.0000      -0.461367       -12.5544 
  65   2.0000      -0.453641       -12.3442 
  66   2.0000      -0.440546       -11.9879 
  67   2.0000      -0.433991       -11.8095 
  68   2.0000      -0.431675       -11.7465 
  69   2.0000      -0.428033       -11.6474 
  70   2.0000      -0.414781       -11.2868 
  71   2.0000      -0.398145       -10.8341 
  72   2.0000      -0.391154       -10.6439 
  73   2.0000      -0.385855       -10.4996 
  74   2.0000      -0.376119       -10.2347 
  75   2.0000      -0.373071       -10.1518 
  76   2.0000      -0.364896        -9.9293 
  77   2.0000      -0.361292        -9.8313 
  78   2.0000      -0.358771        -9.7627 
  79   2.0000      -0.356821        -9.7096 
  80   2.0000      -0.352348        -9.5879 
  81   2.0000      -0.351077        -9.5533 
  82   2.0000      -0.344827        -9.3832 
  83   2.0000      -0.337135        -9.1739 
  84   2.0000      -0.334816        -9.1108 
  85   2.0000      -0.322377        -8.7723 
  86   2.0000      -0.313861        -8.5406 
  87   2.0000      -0.303345        -8.2544 
  88   2.0000      -0.299815        -8.1584 
  89   2.0000      -0.297958        -8.1079 
  90   2.0000      -0.293821        -7.9953 
  91   2.0000      -0.275150        -7.4872 
  92   2.0000      -0.269589        -7.3359 
  93   2.0000      -0.262501        -7.1430 
  94   2.0000      -0.259713        -7.0672 
  95   2.0000      -0.239809        -6.5255 
  96   2.0000      -0.218065        -5.9339 
  97   2.0000      -0.211670        -5.7598 
  98   2.0000      -0.204941        -5.5767 
  99   2.0000      -0.200202        -5.4478 
 100   2.0000      -0.193439        -5.2637 
 101   0.0000      -0.040036        -1.0894 
 102   0.0000      -0.027121        -0.7380 
 103   0.0000      -0.007794        -0.2121 
 104   0.0000       0.004670         0.1271 
 105   0.0000       0.014635         0.3982 
 106   0.0000       0.025536         0.6949 
 107   0.0000       0.032747         0.8911 
 108   0.0000       0.033820         0.9203 
 109   0.0000       0.041437         1.1276 
 110   0.0000       0.043193         1.1753 
 111   0.0000       0.047202         1.2844 
*Only the first 10 virtual orbitals were printed.

                    ********************************
                    * MULLIKEN POPULATION ANALYSIS *
                    ********************************

-----------------------
MULLIKEN ATOMIC CHARGES
-----------------------
   0 C :   -0.323522
   1 C :    0.001714
   2 O :   -0.386514
   3 P :    0.600231
   4 S :   -0.319853
   5 O :   -0.358314
   6 C :   -0.029833
   7 C :   -0.285693
   8 S :   -0.066479
   9 C :   -0.368050
  10 S :   -0.081397
  11 P :    0.580413
  12 S :   -0.306393
  13 O :   -0.361630
  14 C :   -0.011568
  15 C :   -0.290931
  16 O :   -0.380946
  17 C :    0.011875
  18 C :   -0.361099
  19 H :    0.130619
  20 H :    0.114460
  21 H :    0.121439
  22 H :    0.113104
  23 H :    0.105125
  24 H :    0.124260
  25 H :    0.106022
  26 H :    0.129154
  27 H :    0.107775
  28 H :    0.118293
  29 H :    0.191454
  30 H :    0.191308
  31 H :    0.103591
  32 H :    0.109369
  33 H :    0.111242
  34 H :    0.120760
  35 H :    0.122402
  36 H :    0.106880
  37 H :    0.115034
  38 H :    0.117597
  39 H :    0.150431
  40 H :    0.127672
Sum of atomic charges:    0.0000000

--------------------------------
MULLIKEN REDUCED ORBITAL CHARGES
--------------------------------
  0 C s       :     3.111739  s :     3.111739
      pz      :     1.025572  p :     3.183760
      px      :     1.072490
      py      :     1.085699
      dz2     :     0.004356  d :     0.028023
      dxz     :     0.007466
      dyz     :     0.005700
      dx2y2   :     0.002921
      dxy     :     0.007580

  1 C s       :     3.074748  s :     3.074748
      pz      :     0.948329  p :     2.863179
      px      :     0.878302
      py      :     1.036548
      dz2     :     0.010898  d :     0.060359
      dxz     :     0.015422
      dyz     :     0.011565
      dx2y2   :     0.006638
      dxy     :     0.015836

  2 O s       :     3.757064  s :     3.757064
      pz      :     1.620552  p :     4.616543
      px      :     1.382198
      py      :     1.613793
      dz2     :     0.001838  d :     0.012908
      dxz     :     0.002057
      dyz     :     0.002680
      dx2y2   :     0.002176
      dxy     :     0.004155

  3 P s       :     5.218140  s :     5.218140
      pz      :     2.844988  p :     8.592016
      px      :     2.872417
      py      :     2.874611
      dz2     :     0.089589  d :     0.589613
      dxz     :     0.131697
      dyz     :     0.137153
      dx2y2   :     0.108179
      dxy     :     0.122996

  4 S s       :     5.914161  s :     5.914161
      pz      :     3.578036  p :    10.363010
      px      :     3.588715
      py      :     3.196259
      dz2     :     0.005879  d :     0.042681
      dxz     :     0.003047
      dyz     :     0.011820
      dx2y2   :     0.012008
      dxy     :     0.009928

  5 O s       :     3.760090  s :     3.760090
      pz      :     1.585330  p :     4.585090
      px      :     1.694045
      py      :     1.305716
      dz2     :     0.002702  d :     0.013134
      dxz     :     0.002341
      dyz     :     0.004002
      dx2y2   :     0.002123
      dxy     :     0.001965

  6 C s       :     3.084092  s :     3.084092
      pz      :     1.089916  p :     2.886663
      px      :     1.050143
      py      :     0.746604
      dz2     :     0.009422  d :     0.059078
      dxz     :     0.011601
      dyz     :     0.010118
      dx2y2   :     0.012942
      dxy     :     0.014994

  7 C s       :     3.092288  s :     3.092288
      pz      :     1.028270  p :     3.165626
      px      :     1.082658
      py      :     1.054698
      dz2     :     0.005626  d :     0.027780
      dxz     :     0.009027
      dyz     :     0.003215
      dx2y2   :     0.004156
      dxy     :     0.005757

  8 S s       :     5.888664  s :     5.888664
      pz      :     3.393162  p :    10.101431
      px      :     3.220475
      py      :     3.487794
      dz2     :     0.010017  d :     0.076384
      dxz     :     0.026200
      dyz     :     0.014588
      dx2y2   :     0.011365
      dxy     :     0.014214

  9 C s       :     3.221440  s :     3.221440
      pz      :     1.016424  p :     3.106317
      px      :     1.032930
      py      :     1.056963
      dz2     :     0.004374  d :     0.040293
      dxz     :     0.012380
      dyz     :     0.009180
      dx2y2   :     0.004954
      dxy     :     0.009405

 10 S s       :     5.887443  s :     5.887443
      pz      :     3.282575  p :    10.119626
      px      :     3.167653
      py      :     3.669397
      dz2     :     0.012723  d :     0.074329
      dxz     :     0.029442
      dyz     :     0.013375
      dx2y2   :     0.008697
      dxy     :     0.010092

 11 P s       :     5.225425  s :     5.225425
      pz      :     2.871837  p :     8.604953
      px      :     2.872463
      py      :     2.860653
      dz2     :     0.106966  d :     0.589208
      dxz     :     0.137034
      dyz     :     0.112469
      dx2y2   :     0.119989
      dxy     :     0.112750

 12 S s       :     5.916491  s :     5.916491
      pz      :     3.229143  p :    10.346924
      px      :     3.663541
      py      :     3.454240
      dz2     :     0.011374  d :     0.042978
      dxz     :     0.007572
      dyz     :     0.015970
      dx2y2   :     0.004205
      dxy     :     0.003857

 13 O s       :     3.758088  s :     3.758088
      pz      :     1.591519  p :     4.590460
      px      :     1.684775
      py      :     1.314166
      dz2     :     0.002758  d :     0.013082
      dxz     :     0.001911
      dyz     :     0.003903
      dx2y2   :     0.002504
      dxy     :     0.002005

 14 C s       :     3.083772  s :     3.083772
      pz      :     0.934836  p :     2.868656
      px      :     1.027097
      py      :     0.906723
      dz2     :     0.010310  d :     0.059140
      dxz     :     0.012720
      dyz     :     0.012905
      dx2y2   :     0.012264
      dxy     :     0.010941

 15 C s       :     3.093121  s :     3.093121
      pz      :     1.083374  p :     3.169946
      px      :     1.006289
      py      :     1.080283
      dz2     :     0.004602  d :     0.027864
      dxz     :     0.006260
      dyz     :     0.005782
      dx2y2   :     0.006802
      dxy     :     0.004419

 16 O s       :     3.757726  s :     3.757726
      pz      :     1.646423  p :     4.610284
      px      :     1.581016
      py      :     1.382845
      dz2     :     0.002197  d :     0.012936
      dxz     :     0.002815
      dyz     :     0.002014
      dx2y2   :     0.003608
      dxy     :     0.002301

 17 C s       :     3.067572  s :     3.067572
      pz      :     1.061799  p :     2.860242
      px      :     1.071516
      py      :     0.726928
      dz2     :     0.008683  d :     0.060311
      dxz     :     0.009042
      dyz     :     0.014471
      dx2y2   :     0.018214
      dxy     :     0.009902

 18 C s       :     3.134314  s :     3.134314
      pz      :     1.074070  p :     3.198754
      px      :     1.056840
      py      :     1.067843
      dz2     :     0.004332  d :     0.028031
      dxz     :     0.007923
      dyz     :     0.005407
      dx2y2   :     0.007490
      dxy     :     0.002879

 19 H s       :     0.869381  s :     0.869381

 20 H s       :     0.885540  s :     0.885540

 21 H s       :     0.878561  s :     0.878561

 22 H s       :     0.886896  s :     0.886896

 23 H s       :     0.894875  s :     0.894875

 24 H s       :     0.875740  s :     0.875740

 25 H s       :     0.893978  s :     0.893978

 26 H s       :     0.870846  s :     0.870846

 27 H s       :     0.892225  s :     0.892225

 28 H s       :     0.881707  s :     0.881707

 29 H s       :     0.808546  s :     0.808546

 30 H s       :     0.808692  s :     0.808692

 31 H s       :     0.896409  s :     0.896409

 32 H s       :     0.890631  s :     0.890631

 33 H s       :     0.888758  s :     0.888758

 34 H s       :     0.879240  s :     0.879240

 35 H s       :     0.877598  s :     0.877598

 36 H s       :     0.893120  s :     0.893120

 37 H s       :     0.884966  s :     0.884966

 38 H s       :     0.882403  s :     0.882403

 39 H s       :     0.849569  s :     0.849569

 40 H s       :     0.872328  s :     0.872328


------------------------
MULLIKEN OVERLAP CHARGES
------------------------
B(  0-C ,  1-C ) :   0.9296 B(  0-C ,  2-O ) :  -0.0927 B(  0-C , 19-H ) :   0.7225 
B(  0-C , 20-H ) :   0.6888 B(  0-C , 21-H ) :   0.7290 B(  0-C , 22-H ) :  -0.0676 
B(  1-C ,  2-O ) :   0.5617 B(  1-C ,  3-P ) :  -0.0871 B(  1-C , 22-H ) :   0.7289 
B(  1-C , 23-H ) :   0.7278 B(  2-O ,  3-P ) :   0.6373 B(  2-O ,  4-S ) :  -0.0627 
B(  2-O ,  5-O ) :  -0.0594 B(  2-O ,  8-S ) :  -0.0699 B(  2-O , 22-H ) :  -0.0674 
B(  2-O , 23-H ) :  -0.0585 B(  3-P ,  4-S ) :   0.9068 B(  3-P ,  5-O ) :   0.6291 
B(  3-P ,  6-C ) :  -0.0547 B(  3-P ,  8-S ) :   0.5614 B(  3-P ,  9-C ) :  -0.0921 
B(  4-S ,  5-O ) :  -0.0674 B(  4-S ,  8-S ) :  -0.0899 B(  4-S , 22-H ) :   0.0505 
B(  4-S , 30-H ) :   0.1165 B(  5-O ,  6-C ) :   0.5212 B(  5-O ,  7-C ) :  -0.1134 
B(  5-O ,  8-S ) :  -0.0720 B(  5-O , 24-H ) :  -0.0621 B(  5-O , 25-H ) :  -0.0599 
B(  6-C ,  7-C ) :   0.8775 B(  6-C , 24-H ) :   0.7106 B(  6-C , 25-H ) :   0.7225 
B(  7-C , 24-H ) :  -0.0525 B(  7-C , 25-H ) :  -0.0517 B(  7-C , 26-H ) :   0.7359 
B(  7-C , 27-H ) :   0.6976 B(  7-C , 28-H ) :   0.7362 B(  8-S ,  9-C ) :   0.5141 
B(  8-S , 10-S ) :  -0.1678 B(  8-S , 24-H ) :   0.0503 B(  8-S , 29-H ) :  -0.0513 
B(  8-S , 30-H ) :  -0.0719 B(  9-C , 10-S ) :   0.4497 B(  9-C , 11-P ) :  -0.0593 
B(  9-C , 29-H ) :   0.6836 B(  9-C , 30-H ) :   0.6289 B( 10-S , 11-P ) :   0.5828 
B( 10-S , 12-S ) :  -0.0873 B( 10-S , 13-O ) :  -0.0806 B( 10-S , 16-O ) :  -0.0719 
B( 10-S , 29-H ) :  -0.0686 B( 10-S , 31-H ) :   0.0582 B( 11-P , 12-S ) :   0.9309 
B( 11-P , 13-O ) :   0.6012 B( 11-P , 14-C ) :  -0.0684 B( 11-P , 16-O ) :   0.6064 
B( 11-P , 17-C ) :  -0.0844 B( 12-S , 13-O ) :  -0.0667 B( 12-S , 16-O ) :  -0.0660 
B( 12-S , 37-H ) :   0.0543 B( 13-O , 14-C ) :   0.5290 B( 13-O , 15-C ) :  -0.1052 
B( 13-O , 16-O ) :  -0.0525 B( 13-O , 31-H ) :  -0.0642 B( 13-O , 32-H ) :  -0.0557 
B( 14-C , 15-C ) :   0.9015 B( 14-C , 31-H ) :   0.6928 B( 14-C , 32-H ) :   0.7348 
B( 15-C , 31-H ) :  -0.0571 B( 15-C , 32-H ) :  -0.0520 B( 15-C , 33-H ) :   0.6967 
B( 15-C , 34-H ) :   0.7367 B( 15-C , 35-H ) :   0.7422 B( 16-O , 17-C ) :   0.5569 
B( 16-O , 18-C ) :  -0.0937 B( 16-O , 36-H ) :  -0.0597 B( 16-O , 37-H ) :  -0.0670 
B( 17-C , 18-C ) :   0.9033 B( 17-C , 36-H ) :   0.7228 B( 17-C , 37-H ) :   0.7256 
B( 18-C , 37-H ) :  -0.0640 B( 18-C , 38-H ) :   0.6870 B( 18-C , 39-H ) :   0.7238 
B( 18-C , 40-H ) :   0.7238 B( 19-H , 21-H ) :  -0.0536 B( 22-H , 23-H ) :  -0.0664 
B( 24-H , 25-H ) :  -0.0749 B( 31-H , 32-H ) :  -0.0662 B( 36-H , 37-H ) :  -0.0650 
B( 39-H , 40-H ) :  -0.0553 


                     *******************************
                     * LOEWDIN POPULATION ANALYSIS *
                     *******************************

----------------------
LOEWDIN ATOMIC CHARGES
----------------------
   0 C :   -0.372149
   1 C :   -0.114808
   2 O :   -0.248603
   3 P :    0.568990
   4 S :   -0.318453
   5 O :   -0.236878
   6 C :   -0.118119
   7 C :   -0.351347
   8 S :    0.091257
   9 C :   -0.487718
  10 S :    0.074180
  11 P :    0.568963
  12 S :   -0.311901
  13 O :   -0.240371
  14 C :   -0.116373
  15 C :   -0.359071
  16 O :   -0.245562
  17 C :   -0.114604
  18 C :   -0.373980
  19 H :    0.122645
  20 H :    0.131907
  21 H :    0.124629
  22 H :    0.113860
  23 H :    0.118773
  24 H :    0.106960
  25 H :    0.113078
  26 H :    0.128080
  27 H :    0.128588
  28 H :    0.128389
  29 H :    0.134322
  30 H :    0.127417
  31 H :    0.104839
  32 H :    0.120705
  33 H :    0.130426
  34 H :    0.129150
  35 H :    0.126189
  36 H :    0.119573
  37 H :    0.114740
  38 H :    0.133472
  39 H :    0.123584
  40 H :    0.125222

-------------------------------
LOEWDIN REDUCED ORBITAL CHARGES
-------------------------------
  0 C s       :     2.954603  s :     2.954603
      pz      :     1.087158  p :     3.348388
      px      :     1.131611
      py      :     1.129618
      dz2     :     0.010944  d :     0.069158
      dxz     :     0.018838
      dyz     :     0.014628
      dx2y2   :     0.006434
      dxy     :     0.018314

  1 C s       :     2.926588  s :     2.926588
      pz      :     1.020182  p :     3.053147
      px      :     0.936961
      py      :     1.096003
      dz2     :     0.024389  d :     0.135073
      dxz     :     0.034156
      dyz     :     0.026774
      dx2y2   :     0.012959
      dxy     :     0.036796

  2 O s       :     3.497147  s :     3.497147
      pz      :     1.628575  p :     4.727812
      px      :     1.445647
      py      :     1.653589
      dz2     :     0.003084  d :     0.023644
      dxz     :     0.004498
      dyz     :     0.004324
      dx2y2   :     0.003512
      dxy     :     0.008226

  3 P s       :     5.056370  s :     5.056370
      pz      :     2.844067  p :     8.554738
      px      :     2.838261
      py      :     2.872410
      dz2     :     0.115855  d :     0.819902
      dxz     :     0.191457
      dyz     :     0.198510
      dx2y2   :     0.143161
      dxy     :     0.170918

  4 S s       :     5.761968  s :     5.761968
      pz      :     3.607630  p :    10.498880
      px      :     3.609312
      py      :     3.281938
      dz2     :     0.006889  d :     0.057605
      dxz     :     0.003759
      dyz     :     0.017293
      dx2y2   :     0.016497
      dxy     :     0.013168

  5 O s       :     3.502669  s :     3.502669
      pz      :     1.632144  p :     4.710362
      px      :     1.699875
      py      :     1.378343
      dz2     :     0.004173  d :     0.023847
      dxz     :     0.003362
      dyz     :     0.007955
      dx2y2   :     0.004282
      dxy     :     0.004075

  6 C s       :     2.931290  s :     2.931290
      pz      :     1.118689  p :     3.055687
      px      :     1.099535
      py      :     0.837462
      dz2     :     0.021384  d :     0.131143
      dxz     :     0.027791
      dyz     :     0.022047
      dx2y2   :     0.027291
      dxy     :     0.032629

  7 C s       :     2.949451  s :     2.949451
      pz      :     1.088370  p :     3.332824
      px      :     1.128305
      py      :     1.116148
      dz2     :     0.014499  d :     0.069072
      dxz     :     0.022259
      dyz     :     0.008294
      dx2y2   :     0.009686
      dxy     :     0.014334

  8 S s       :     5.653759  s :     5.653759
      pz      :     3.420620  p :    10.158079
      px      :     3.237233
      py      :     3.500225
      dz2     :     0.010935  d :     0.096906
      dxz     :     0.034776
      dyz     :     0.017844
      dx2y2   :     0.014573
      dxy     :     0.018777

  9 C s       :     3.061493  s :     3.061493
      pz      :     1.109665  p :     3.337524
      px      :     1.114891
      py      :     1.112968
      dz2     :     0.008713  d :     0.088701
      dxz     :     0.028254
      dyz     :     0.021135
      dx2y2   :     0.009031
      dxy     :     0.021567

 10 S s       :     5.653912  s :     5.653912
      pz      :     3.337035  p :    10.177833
      px      :     3.186759
      py      :     3.654039
      dz2     :     0.014192  d :     0.094075
      dxz     :     0.039567
      dyz     :     0.016097
      dx2y2   :     0.011606
      dxy     :     0.012612

 11 P s       :     5.058802  s :     5.058802
      pz      :     2.879935  p :     8.552862
      px      :     2.857039
      py      :     2.815888
      dz2     :     0.142071  d :     0.819373
      dxz     :     0.201418
      dyz     :     0.157348
      dx2y2   :     0.166636
      dxy     :     0.151900

 12 S s       :     5.766562  s :     5.766562
      pz      :     3.319160  p :    10.487113
      px      :     3.670029
      py      :     3.497924
      dz2     :     0.015369  d :     0.058226
      dxz     :     0.008846
      dyz     :     0.024293
      dx2y2   :     0.005231
      dxy     :     0.004486

 13 O s       :     3.502847  s :     3.502847
      pz      :     1.629961  p :     4.713747
      px      :     1.687427
      py      :     1.396359
      dz2     :     0.004235  d :     0.023777
      dxz     :     0.002898
      dyz     :     0.007483
      dx2y2   :     0.004890
      dxy     :     0.004271

 14 C s       :     2.930855  s :     2.930855
      pz      :     1.009228  p :     3.053744
      px      :     1.076037
      py      :     0.968479
      dz2     :     0.024220  d :     0.131774
      dxz     :     0.026473
      dyz     :     0.028248
      dx2y2   :     0.031340
      dxy     :     0.021493

 15 C s       :     2.951724  s :     2.951724
      pz      :     1.132806  p :     3.338263
      px      :     1.070501
      py      :     1.134957
      dz2     :     0.012014  d :     0.069083
      dxz     :     0.014134
      dyz     :     0.013891
      dx2y2   :     0.019086
      dxy     :     0.009959

 16 O s       :     3.497397  s :     3.497397
      pz      :     1.671957  p :     4.724461
      px      :     1.623084
      py      :     1.429421
      dz2     :     0.003376  d :     0.023703
      dxz     :     0.005422
      dyz     :     0.003713
      dx2y2   :     0.007040
      dxy     :     0.004152

 17 C s       :     2.926861  s :     2.926861
      pz      :     1.119335  p :     3.052846
      px      :     1.110952
      py      :     0.822560
      dz2     :     0.017713  d :     0.134897
      dxz     :     0.022292
      dyz     :     0.032102
      dx2y2   :     0.041237
      dxy     :     0.021552

 18 C s       :     2.954752  s :     2.954752
      pz      :     1.120467  p :     3.349918
      px      :     1.106831
      py      :     1.122620
      dz2     :     0.009428  d :     0.069310
      dxz     :     0.020374
      dyz     :     0.013712
      dx2y2   :     0.018457
      dxy     :     0.007339

 19 H s       :     0.877355  s :     0.877355

 20 H s       :     0.868093  s :     0.868093

 21 H s       :     0.875371  s :     0.875371

 22 H s       :     0.886140  s :     0.886140

 23 H s       :     0.881227  s :     0.881227

 24 H s       :     0.893040  s :     0.893040

 25 H s       :     0.886922  s :     0.886922

 26 H s       :     0.871920  s :     0.871920

 27 H s       :     0.871412  s :     0.871412

 28 H s       :     0.871611  s :     0.871611

 29 H s       :     0.865678  s :     0.865678

 30 H s       :     0.872583  s :     0.872583

 31 H s       :     0.895161  s :     0.895161

 32 H s       :     0.879295  s :     0.879295

 33 H s       :     0.869574  s :     0.869574

 34 H s       :     0.870850  s :     0.870850

 35 H s       :     0.873811  s :     0.873811

 36 H s       :     0.880427  s :     0.880427

 37 H s       :     0.885260  s :     0.885260

 38 H s       :     0.866528  s :     0.866528

 39 H s       :     0.876416  s :     0.876416

 40 H s       :     0.874778  s :     0.874778


---------------------------------
LOEWDIN BOND ORDERS (THRESH 0.050000)
---------------------------------
B(  0-C ,  1-C ) :   1.1585 B(  0-C ,  2-O ) :   0.0587 B(  0-C , 19-H ) :   0.9268 
B(  0-C , 20-H ) :   0.9241 B(  0-C , 21-H ) :   0.9346 B(  1-C ,  2-O ) :   1.0902 
B(  1-C ,  3-P ) :   0.0630 B(  1-C , 22-H ) :   0.9100 B(  1-C , 23-H ) :   0.9176 
B(  2-O ,  3-P ) :   1.2702 B(  2-O ,  4-S ) :   0.0881 B(  2-O ,  5-O ) :   0.0519 
B(  2-O ,  8-S ) :   0.0576 B(  3-P ,  4-S ) :   1.7441 B(  3-P ,  5-O ) :   1.3119 
B(  3-P ,  6-C ) :   0.0636 B(  3-P ,  8-S ) :   1.0264 B(  4-S ,  5-O ) :   0.0736 
B(  4-S ,  8-S ) :   0.1272 B(  4-S , 30-H ) :   0.0653 B(  5-O ,  6-C ) :   1.0654 
B(  5-O ,  7-C ) :   0.0584 B(  5-O ,  8-S ) :   0.0730 B(  6-C ,  7-C ) :   1.1560 
B(  6-C , 24-H ) :   0.9069 B(  6-C , 25-H ) :   0.9166 B(  7-C , 26-H ) :   0.9321 
B(  7-C , 27-H ) :   0.9290 B(  7-C , 28-H ) :   0.9355 B(  8-S ,  9-C ) :   1.1729 
B(  8-S , 10-S ) :   0.1027 B(  9-C , 10-S ) :   1.1634 B(  9-C , 29-H ) :   0.9165 
B(  9-C , 30-H ) :   0.8969 B( 10-S , 11-P ) :   1.0170 B( 10-S , 12-S ) :   0.1266 
B( 10-S , 13-O ) :   0.0740 B( 10-S , 16-O ) :   0.0577 B( 11-P , 12-S ) :   1.7775 
B( 11-P , 13-O ) :   1.2902 B( 11-P , 14-C ) :   0.0634 B( 11-P , 16-O ) :   1.2676 
B( 11-P , 17-C ) :   0.0646 B( 12-S , 13-O ) :   0.0757 B( 12-S , 16-O ) :   0.0907 
B( 13-O , 14-C ) :   1.0720 B( 13-O , 15-C ) :   0.0584 B( 14-C , 15-C ) :   1.1582 
B( 14-C , 31-H ) :   0.9075 B( 14-C , 32-H ) :   0.9189 B( 15-C , 33-H ) :   0.9265 
B( 15-C , 34-H ) :   0.9357 B( 15-C , 35-H ) :   0.9329 B( 16-O , 17-C ) :   1.0867 
B( 16-O , 18-C ) :   0.0596 B( 17-C , 18-C ) :   1.1566 B( 17-C , 36-H ) :   0.9171 
B( 17-C , 37-H ) :   0.9086 B( 18-C , 38-H ) :   0.9239 B( 18-C , 39-H ) :   0.9237 
B( 18-C , 40-H ) :   0.9334 

------------------------------------------
LOEWDIN REDUCED ORBITAL POPULATIONS PER MO
-------------------------------------------
THRESHOLD FOR PRINTING IS 0.1%%
                      0         1         2         3         4         5   
                 -88.04315 -88.03819 -87.98787 -87.98331 -76.42993 -76.42259
                   2.00000   2.00000   2.00000   2.00000   2.00000   2.00000
                  --------  --------  --------  --------  --------  --------
 3 P  s               0.0       0.0       0.0       0.0       0.0     100.0
 4 S  s               0.0       0.0       0.0     100.0       0.0       0.0
 8 S  s               0.0     100.0       0.0       0.0       0.0       0.0
10 S  s             100.0       0.0       0.0       0.0       0.0       0.0
11 P  s               0.0       0.0       0.0       0.0     100.0       0.0
12 S  s               0.0       0.0     100.0       0.0       0.0       0.0

                      6         7         8         9        10        11   
                 -18.80139 -18.79688 -18.79360 -18.78862  -9.96074  -9.95890
                   2.00000   2.00000   2.00000   2.00000   2.00000   2.00000
                  --------  --------  --------  --------  --------  --------
 2 O  s               0.0       0.0      99.9       0.0       0.0       0.0
 5 O  s               0.0       0.0       0.0      99.9       0.0       0.0
13 O  s               0.0      99.9       0.0       0.0       0.0       0.0
14 C  s               0.0       0.0       0.0       0.0       0.0      99.7
15 C  px              0.0       0.0       0.0       0.0       0.0       0.1
16 O  s              99.9       0.0       0.0       0.0       0.0       0.0
17 C  s               0.0       0.0       0.0       0.0      99.7       0.0

                     12        13        14        15        16        17   
                  -9.95358  -9.95348  -9.95112  -9.89253  -9.88889  -9.88607
                   2.00000   2.00000   2.00000   2.00000   2.00000   2.00000
                  --------  --------  --------  --------  --------  --------
 1 C  s              99.6       0.1       0.0       0.0       0.0       0.0
 6 C  s               0.0       0.0      99.7       0.0       0.0       0.0
 7 C  s               0.0       0.0       0.0       0.0       0.0      99.7
 9 C  s               0.1      99.7       0.0       0.0       0.0       0.0
14 C  px              0.0       0.0       0.0       0.0       0.1       0.0
15 C  s               0.0       0.0       0.0       0.0      99.7       0.0
18 C  s               0.0       0.0       0.0      99.7       0.0       0.0

                     18        19        20        21        22        23   
                  -9.88321  -7.68782  -7.68281  -7.63306  -7.62864  -6.42740
                   2.00000   2.00000   2.00000   2.00000   2.00000   2.00000
                  --------  --------  --------  --------  --------  --------
 0 C  s              99.7       0.0       0.0       0.0       0.0       0.0
 4 S  s               0.0       0.0       0.0       0.0      99.9       0.0
 8 S  s               0.0       0.0      99.7       0.0       0.0       0.0
10 S  s               0.0      99.7       0.0       0.0       0.0       0.0
11 P  s               0.0       0.0       0.0       0.0       0.0      99.3
12 S  s               0.0       0.0       0.0      99.9       0.0       0.0
13 O  py              0.0       0.0       0.0       0.0       0.0       0.2
16 O  px              0.0       0.0       0.0       0.0       0.0       0.1

                     24        25        26        27        28        29   
                  -6.42038  -5.71543  -5.71248  -5.71048  -5.70748  -5.70498
                   2.00000   2.00000   2.00000   2.00000   2.00000   2.00000
                  --------  --------  --------  --------  --------  --------
 2 O  px              0.1       0.0       0.0       0.0       0.0       0.0
 3 P  s              99.3       0.0       0.0       0.0       0.0       0.0
 5 O  pz              0.1       0.0       0.0       0.0       0.0       0.0
 8 S  pz              0.0       0.0       0.0       2.7      77.7       0.0
 8 S  px              0.0       0.0       0.0      73.4       0.9       0.0
 8 S  py              0.0       0.0       0.0      23.9      21.4       0.0
10 S  pz              0.0       0.5      97.0       0.0       0.0       2.4
10 S  px              0.0      81.3       1.7       0.0       0.0      16.9
10 S  py              0.0      18.1       1.2       0.0       0.0      80.7

                     30        31        32        33        34        35   
                  -5.69988  -5.66207  -5.65755  -5.65368  -5.65315  -5.64928
                   2.00000   2.00000   2.00000   2.00000   2.00000   2.00000
                  --------  --------  --------  --------  --------  --------
 4 S  pz              0.0       0.0      17.2       0.0       0.0       0.8
 4 S  px              0.0       0.0      11.2       0.0       0.0      88.4
 4 S  py              0.0       0.0      71.6       0.0       0.0      10.8
 8 S  pz             19.6       0.0       0.0       0.0       0.0       0.0
 8 S  px             25.7       0.0       0.0       0.0       0.0       0.0
 8 S  py             54.7       0.0       0.0       0.0       0.0       0.0
12 S  pz              0.0      65.8       0.0      15.3      18.9       0.0
12 S  px              0.0       1.8       0.0      35.6      62.5       0.0
12 S  py              0.0      32.4       0.0      49.0      18.6       0.0

                     36        37        38        39        40        41   
                  -5.64875  -4.65051  -4.64910  -4.64742  -4.64334  -4.64193
                   2.00000   2.00000   2.00000   2.00000   2.00000   2.00000
                  --------  --------  --------  --------  --------  --------
 3 P  pz              0.0       0.0       0.0       0.0      63.6      18.2
 3 P  px              0.0       0.0       0.0       0.0      35.9      24.6
 3 P  py              0.0       0.0       0.0       0.0       0.3      57.1
 4 S  pz             82.1       0.0       0.0       0.0       0.0       0.0
 4 S  px              0.4       0.0       0.0       0.0       0.0       0.0
 4 S  py             17.5       0.0       0.0       0.0       0.0       0.0
11 P  pz              0.0      44.7       0.2      55.1       0.0       0.0
11 P  px              0.0       3.1      92.2       4.7       0.0       0.0
11 P  py              0.0      52.2       7.5      40.2       0.0       0.0

                     42        43        44        45        46        47   
                  -4.64063  -0.99433  -0.98667  -0.95214  -0.94367  -0.76230
                   2.00000   2.00000   2.00000   2.00000   2.00000   2.00000
                  --------  --------  --------  --------  --------  --------
 0 C  s               0.0       0.0       0.2       0.0       0.3       0.0
 0 C  pz              0.0       0.0       0.4       0.0       0.4       0.0
 0 C  py              0.0       0.0       0.1       0.0       0.1       0.0
 1 C  s               0.0       0.0       3.6       0.0       4.5       0.2
 1 C  pz              0.0       0.0       1.2       0.0       1.1       0.0
 1 C  px              0.0       0.0       2.4       0.0       2.4       0.0
 1 C  py              0.0       0.0       0.4       0.0       0.4       0.0
 1 C  dxz             0.0       0.0       0.2       0.0       0.2       0.0
 2 O  s               0.0       0.0      31.0       0.0      28.2       0.1
 2 O  pz              0.0       0.0       0.0       0.0       0.2       0.1
 2 O  px              0.0       0.0       0.2       0.0       0.2       0.3
 2 O  py              0.0       0.0       1.3       0.0       0.9       0.0
 3 P  s               0.0       0.0      14.1       0.0       0.1       2.4
 3 P  pz             18.1       0.0       0.1       0.0       5.5       0.6
 3 P  px             39.4       0.0       0.4       0.0       5.3       1.0
 3 P  py             42.5       0.0       4.4       0.0       0.1       0.4
 3 P  dz2             0.0       0.0       0.0       0.0       0.2       0.0
 3 P  dxz             0.0       0.0       0.9       0.0       0.0       0.2
 3 P  dyz             0.0       0.0       0.1       0.0       1.6       0.0
 3 P  dx2y2           0.0       0.0       0.0       0.0       0.2       0.0
 3 P  dxy             0.0       0.0       0.1       0.0       1.4       0.0
 4 S  s               0.0       0.0       0.3       0.0       0.0       0.5
 4 S  py              0.0       0.0       0.3       0.0       0.0       0.1
 5 O  s               0.0       0.0      26.0       0.0      32.9       0.3
 5 O  pz              0.0       0.0       1.6       0.0       0.8       0.1
 5 O  px              0.0       0.0       0.1       0.0       0.0       0.0
 5 O  py              0.0       0.0       0.0       0.0       0.2       0.5
 6 C  s               0.0       0.0       3.0       0.0       4.5       0.4
 6 C  pz              0.0       0.0       0.0       0.0       0.1       0.1
 6 C  px              0.0       0.0       0.5       0.0       0.4       0.0
 6 C  py              0.0       0.0       3.0       0.0       3.5       0.0
 6 C  dx2y2           0.0       0.0       0.1       0.0       0.2       0.0
 6 C  dxy             0.0       0.0       0.1       0.0       0.1       0.0
 7 C  s               0.0       0.0       0.2       0.0       0.4       0.2
 7 C  pz              0.0       0.0       0.2       0.0       0.3       0.0
 7 C  px              0.0       0.0       0.1       0.0       0.1       0.0
 7 C  py              0.0       0.0       0.1       0.0       0.2       0.0
 8 S  s               0.0       0.0       0.3       0.0       0.0      17.1
 8 S  pz              0.0       0.0       0.2       0.0       0.0       1.5
 8 S  px              0.0       0.0       0.2       0.0       0.0       0.4
 8 S  py              0.0       0.0       0.0       0.0       0.0       1.1
 8 S  dxy             0.0       0.0       0.0       0.0       0.0       0.1
 9 C  s               0.0       0.0       0.0       0.0       0.0      26.7
 9 C  pz              0.0       0.0       0.0       0.0       0.0       0.1
 9 C  py              0.0       0.0       0.0       0.0       0.0       2.3
10 S  s               0.0       0.3       0.0       0.0       0.0      19.1
10 S  pz              0.0       0.1       0.0       0.0       0.0       2.5
10 S  px              0.0       0.2       0.0       0.0       0.0       0.3
10 S  py              0.0       0.0       0.0       0.0       0.0       0.2
11 P  s               0.0      14.0       0.0       0.1       0.0       2.9
11 P  pz              0.0       0.7       0.0       2.9       0.0       0.1
11 P  px              0.0       3.4       0.0       0.4       0.0       2.0
11 P  py              0.0       0.7       0.0       7.7       0.0       0.0
11 P  dz2             0.0       0.1       0.0       0.3       0.0       0.0
11 P  dxz             0.0       0.4       0.0       0.8       0.0       0.1
11 P  dyz             0.0       0.5       0.0       0.0       0.0       0.0
[...]
 1 C  dx2y2           0.0       0.5       0.0       1.1
 1 C  dxy             0.0       0.3       0.0       1.0
 2 O  s               0.0       0.0       0.0       0.1
 2 O  pz              0.0       0.7       0.0       1.2
 2 O  px              0.0       1.3       0.1       2.8
 2 O  dz2             0.0       0.0       0.0       0.8
 2 O  dxz             0.0       0.7       0.1       4.3
 2 O  dyz             0.0       5.7       0.3       9.7
 2 O  dx2y2           0.0       0.3       0.0       1.5
 2 O  dxy             0.0      10.4       0.7      23.1
 3 P  s               0.0       0.6       0.0       0.1
 3 P  pz              0.0       0.1       0.0       1.7
 3 P  px              0.0       0.2       0.0       1.4
 3 P  py              0.0       0.4       0.0       0.1
 3 P  dz2             0.0       0.3       0.0       0.0
 3 P  dyz             0.0       0.0       0.0       1.0
 3 P  dx2y2           0.0       0.0       0.0       0.5
 3 P  dxy             0.0       0.0       0.0       0.6
 5 O  s               0.0       3.2       0.0       0.4
 5 O  pz              0.0       0.0       0.0       0.6
 5 O  px              0.0       0.4       0.0       0.6
 5 O  py              0.0       2.6       0.0       2.6
 5 O  dz2             0.0      11.0       0.1       6.7
 5 O  dxz             0.0       0.3       0.1       6.6
 5 O  dyz             0.0       4.3       0.2      16.9
 5 O  dx2y2           0.1      23.5       0.0       2.1
 5 O  dxy             0.0      14.7       0.0       0.0
 6 C  s               0.0       1.3       0.0       0.3
 6 C  px              0.0       0.3       0.0       0.1
 6 C  py              0.0       2.5       0.0       0.6
 6 C  dz2             0.0       2.5       0.0       1.3
 6 C  dxz             0.0       0.3       0.0       0.0
 6 C  dyz             0.0       1.0       0.0       0.0
 6 C  dx2y2           0.0       4.3       0.0       0.8
 6 C  dxy             0.0       2.4       0.0       0.7
 7 C  dyz             0.0       0.2       0.0       0.2
11 P  s               0.6       0.0       0.0       0.0
11 P  pz              0.2       0.0       0.8       0.0
11 P  px              0.3       0.0       0.1       0.0
11 P  py              0.0       0.0       2.2       0.1
11 P  dz2             0.2       0.0       0.3       0.0
11 P  dxz             0.1       0.0       0.3       0.0
11 P  dyz             0.0       0.0       0.1       0.0
11 P  dx2y2           0.0       0.0       0.3       0.0
11 P  dxy             0.0       0.0       1.1       0.0
13 O  s               2.8       0.0       0.3       0.0
13 O  pz              0.8       0.0       0.0       0.0
13 O  px              0.5       0.0       0.5       0.0
13 O  py              2.0       0.0       2.6       0.1
13 O  dz2             1.6       0.0       3.3       0.1
13 O  dxz             9.5       0.0       3.0       0.1
13 O  dyz            33.6       0.2      16.3       0.3
13 O  dx2y2           4.2       0.0       3.3       0.1
13 O  dxy             7.8       0.0       0.4       0.0
14 C  s               1.5       0.0       0.4       0.0
14 C  pz              1.1       0.0       0.2       0.0
14 C  px              0.5       0.0       0.1       0.0
14 C  py              1.3       0.0       0.3       0.0
14 C  dz2             0.3       0.0       0.0       0.0
14 C  dxz             1.5       0.0       0.2       0.0
14 C  dyz             5.8       0.0       1.1       0.0
14 C  dx2y2           1.3       0.0       0.3       0.0
14 C  dxy             2.0       0.0       0.3       0.0
15 C  dx2y2           0.2       0.0       0.0       0.0
16 O  s               0.0       0.0       0.1       0.0
16 O  pz              0.4       0.0       0.9       0.0
16 O  px              0.2       0.0       0.9       0.0
16 O  py              1.1       0.0       2.9       0.1
16 O  dz2             3.2       0.0       5.8       0.1
16 O  dxz             1.7       0.0       6.5       0.2
16 O  dyz             0.0       0.0       0.7       0.0
16 O  dx2y2           9.4       0.0      32.4       0.7
16 O  dxy             0.2       0.0       0.4       0.0
17 C  s               0.4       0.0       1.1       0.0
17 C  pz              0.0       0.0       0.1       0.0
17 C  py              0.6       0.0       1.7       0.0
17 C  dz2             0.3       0.0       0.8       0.0
17 C  dyz             0.4       0.0       0.9       0.0
17 C  dx2y2           1.2       0.0       3.5       0.1
17 C  dxy             0.2       0.0       0.7       0.0


                      *****************************
                      * MAYER POPULATION ANALYSIS *
                      *****************************

  NA   - Mulliken gross atomic population
  ZA   - Total nuclear charge
  QA   - Mulliken gross atomic charge
  VA   - Mayer's total valence
  BVA  - Mayer's bonded valence
  FA   - Mayer's free valence

  ATOM       NA         ZA         QA         VA         BVA        FA
  0 C      6.3235     6.0000    -0.3235     3.9869     3.9869    -0.0000
  1 C      5.9983     6.0000     0.0017     4.0048     4.0048    -0.0000
  2 O      8.3865     8.0000    -0.3865     2.1708     2.1708    -0.0000
  3 P     14.3998    15.0000     0.6002     4.9604     4.9604     0.0000
  4 S     16.3199    16.0000    -0.3199     2.0317     2.0317     0.0000
  5 O      8.3583     8.0000    -0.3583     2.1672     2.1672    -0.0000
  6 C      6.0298     6.0000    -0.0298     3.9782     3.9782    -0.0000
  7 C      6.2857     6.0000    -0.2857     4.0004     4.0004    -0.0000
  8 S     16.0665    16.0000    -0.0665     2.3121     2.3121     0.0000
  9 C      6.3681     6.0000    -0.3681     3.8035     3.8035     0.0000
 10 S     16.0814    16.0000    -0.0814     2.2812     2.2812    -0.0000
 11 P     14.4196    15.0000     0.5804     4.9760     4.9760    -0.0000
 12 S     16.3064    16.0000    -0.3064     2.0302     2.0302    -0.0000
 13 O      8.3616     8.0000    -0.3616     2.1618     2.1618    -0.0000
 14 C      6.0116     6.0000    -0.0116     3.9952     3.9952     0.0000
 15 C      6.2909     6.0000    -0.2909     3.9946     3.9946     0.0000
 16 O      8.3809     8.0000    -0.3809     2.1728     2.1728    -0.0000
 17 C      5.9881     6.0000     0.0119     3.9898     3.9898     0.0000
 18 C      6.3611     6.0000    -0.3611     3.9903     3.9903     0.0000
 19 H      0.8694     1.0000     0.1306     0.9840     0.9840    -0.0000
 20 H      0.8855     1.0000     0.1145     0.9548     0.9548    -0.0000
 21 H      0.8786     1.0000     0.1214     0.9604     0.9604    -0.0000
 22 H      0.8869     1.0000     0.1131     0.9760     0.9760     0.0000
 23 H      0.8949     1.0000     0.1051     0.9490     0.9490     0.0000
 24 H      0.8757     1.0000     0.1243     0.9798     0.9798    -0.0000
 25 H      0.8940     1.0000     0.1060     0.9587     0.9587    -0.0000
 26 H      0.8708     1.0000     0.1292     0.9717     0.9717     0.0000
 27 H      0.8922     1.0000     0.1078     0.9544     0.9544     0.0000
 28 H      0.8817     1.0000     0.1183     0.9574     0.9574    -0.0000
 29 H      0.8085     1.0000     0.1915     0.9539     0.9539    -0.0000
 30 H      0.8087     1.0000     0.1913     0.9909     0.9909     0.0000
 31 H      0.8964     1.0000     0.1036     0.9837     0.9837    -0.0000
 32 H      0.8906     1.0000     0.1094     0.9473     0.9473    -0.0000
 33 H      0.8888     1.0000     0.1112     0.9545     0.9545     0.0000
 34 H      0.8792     1.0000     0.1208     0.9579     0.9579     0.0000
 35 H      0.8776     1.0000     0.1224     0.9797     0.9797     0.0000
 36 H      0.8931     1.0000     0.1069     0.9481     0.9481     0.0000
 37 H      0.8850     1.0000     0.1150     0.9792     0.9792     0.0000
 38 H      0.8824     1.0000     0.1176     0.9548     0.9548     0.0000
 39 H      0.8496     1.0000     0.1504     0.9786     0.9786     0.0000
 40 H      0.8723     1.0000     0.1277     0.9571     0.9571     0.0000

  Mayer bond orders larger than 0.100000
B(  0-C ,  1-C ) :   1.1656 B(  0-C , 19-H ) :   0.9337 B(  0-C , 20-H ) :   0.9367 
B(  0-C , 21-H ) :   0.9429 B(  1-C ,  2-O ) :   0.9059 B(  1-C , 22-H ) :   0.9205 
B(  1-C , 23-H ) :   0.9344 B(  2-O ,  3-P ) :   1.0913 B(  3-P ,  4-S ) :   1.6249 
B(  3-P ,  5-O ) :   1.1431 B(  3-P ,  8-S ) :   0.9525 B(  4-S ,  8-S ) :   0.1078 
B(  4-S , 30-H ) :   0.1028 B(  5-O ,  6-C ) :   0.8888 B(  6-C ,  7-C ) :   1.1672 
B(  6-C , 24-H ) :   0.9066 B(  6-C , 25-H ) :   0.9252 B(  7-C , 26-H ) :   0.9414 
B(  7-C , 27-H ) :   0.9407 B(  7-C , 28-H ) :   0.9484 B(  8-S ,  9-C ) :   1.0118 
B(  9-C , 10-S ) :   0.9834 B(  9-C , 29-H ) :   0.8909 B(  9-C , 30-H ) :   0.8611 
B( 10-S , 11-P ) :   0.9579 B( 10-S , 12-S ) :   0.1114 B( 11-P , 12-S ) :   1.6565 
B( 11-P , 13-O ) :   1.1158 B( 11-P , 16-O ) :   1.0818 B( 13-O , 14-C ) :   0.8913 
B( 14-C , 15-C ) :   1.1667 B( 14-C , 31-H ) :   0.9095 B( 14-C , 32-H ) :   0.9356 
B( 15-C , 33-H ) :   0.9397 B( 15-C , 34-H ) :   0.9470 B( 15-C , 35-H ) :   0.9426 
B( 16-O , 17-C ) :   0.9025 B( 17-C , 18-C ) :   1.1623 B( 17-C , 36-H ) :   0.9325 
B( 17-C , 37-H ) :   0.9178 B( 18-C , 38-H ) :   0.9361 B( 18-C , 39-H ) :   0.9258 
B( 18-C , 40-H ) :   0.9396 

-------
TIMINGS
-------

Total SCF time: 0 days 0 hours 0 min 16 sec 

Total time                  ....      16.299 sec
Sum of individual times     ....      15.773 sec  ( 96.8%)

SCF preparation             ....       0.229 sec  (  1.4%)
Fock matrix formation       ....      14.364 sec  ( 88.1%)
  Startup                   ....       0.060 sec  (  0.4% of F)
  Split-RI-J                ....       8.574 sec  ( 59.7% of F)
  XC integration            ....       5.203 sec  ( 36.2% of F)
    Basis function eval.    ....       1.986 sec  ( 38.2% of XC)
    Density eval.           ....       0.984 sec  ( 18.9% of XC)
    XC-Functional eval.     ....       0.399 sec  (  7.7% of XC)
    XC-Potential eval.      ....       1.152 sec  ( 22.1% of XC)
Diagonalization             ....       0.000 sec  (  0.0%)
Density matrix formation    ....       0.251 sec  (  1.5%)
Total Energy calculation    ....       0.027 sec  (  0.2%)
Population analysis         ....       0.196 sec  (  1.2%)
Orbital Transformation      ....       0.085 sec  (  0.5%)
Orbital Orthonormalization  ....       0.000 sec  (  0.0%)
DIIS solution               ....       0.482 sec  (  3.0%)
  MO trafo                  ....       0.000 sec  (  0.0 % of DIIS)
  Orb grad                  ....       0.000 sec  (  0.0 % of DIIS)
  Energy W gradient         ....       0.000 sec  (  0.0 % of DIIS)
  DIIS error                ....       0.021 sec  (  4.4 % of DIIS)
  DIIS work                 ....       0.395 sec  ( 82.0 % of DIIS)
  Form Q                    ....       0.000 sec  (  0.0 % of DIIS)
  Form QpQm                 ....       0.000 sec  (  0.0 % of DIIS)
  Exp/Cayley                ....       0.000 sec  (  0.0 % of DIIS)
  Orb update                ....       0.000 sec  (  0.0 % of DIIS)
  Wake-sleep                ....       0.018 sec  (  3.6 % of DIIS)
SOSCF solution              ....       0.138 sec  (  0.8%)
  MO trafo                  ....       0.069 sec  ( 50.2 % of SOSCF)
  Orb grad                  ....       0.002 sec  (  1.1 % of SOSCF)
  Rot update                ....       0.028 sec  ( 20.2 % of SOSCF)
  Step                      ....       0.039 sec  ( 28.3 % of SOSCF)
Finished LeanSCF after  16.4 sec

Maximum memory used throughout the entire LEANSCF-calculation: 33.9 MB


-------------------------------------------------------------------------------
                          DFT DISPERSION CORRECTION                            
                                                                               
                                DFTD4 V3.4.0                                   
-------------------------------------------------------------------------------
The PBE functional is recognized
Active option DFTDOPT                   ...         5   

-------------------------   ----------------
Dispersion correction           -0.063923416
-------------------------   ----------------

------------------   -----------------
gCP correction             0.184876132
------------------   -----------------

-------------------------   --------------------
FINAL SINGLE POINT ENERGY     -2929.520557213168
-------------------------   --------------------


------------------------------------------------------------------------------
                              ORCA PROPERTY CALCULATIONS
------------------------------------------------------------------------------

GBWName                                 ... sp.gbw
Number of atoms                         ...     41
Number of basis functions               ...    334
Max core memory                         ...   1024 MB

Electric properties:
Dipole moment                           ... YES
Quadrupole moment                       ...  NO
Static polarizability (Dipole/Dipole)   ...  NO
Static polarizability (Dipole/Quad.)    ...  NO
Static polarizability (Quad./Quad.)     ...  NO
Static polarizability (Velocity)        ...  NO

Atomic electric properties:
Dipole moment                           ...  NO
Quadrupole moment                       ...  NO
Static polarizability                   ...  NO

Choice of electric origin               ... Center of mass
Position of electric origin             ...    -0.000002    -0.000002     0.000002

General magnetic properties:
Magnetizability                         ...  NO

EPR properties:
g-Tensor (aka g-matrix)                 ...  NO
Zero-Field splitting spin-orbit         ...  NO
Zero-field splitting spin-spin          ...  NO
Hyperfine couplings                     ...  NO (   0 nuclei)
Quadrupole couplings                    ...  NO (   0 nuclei)
Contact density                         ...  NO (   0 nuclei)

NMR properties:
Chemical shifts                         ...  NO (   0 nuclei)
Spin-rotation constants                 ...  NO (   0 nuclei)
Spin-spin couplings                     ...  NO (   0 nuclei,    0 pairs)

Choice of magnetic origin               ... GIAO
Position of magnetic origin             ...     0.000000     0.000000     0.000000

Properties with geometric perturbations:
SCF Hessian                             ...  NO
IR spectrum                             ...  NO
VCD spectrum                            ...  NO
X-ray spectroscopy properties:
SCF XES/XAS/RIXS spectra                ...  NO


-------------
DIPOLE MOMENT
-------------

Method             : SCF
Type of density    : Electron Density
Multiplicity       :   1
Irrep              :   0
Energy             : -2929.6415099294035826 Eh
Relativity type    : 
Basis              : AO
                                X                 Y                 Z
Electronic contribution:      6.679010207       6.872369102      -5.677368100
Nuclear contribution   :     -7.410442012      -7.460141502       6.109320039
                        -----------------------------------------
Total Dipole Moment    :     -0.731431805      -0.587772400       0.431951939
                        -----------------------------------------
Magnitude (a.u.)       :      1.032981780
Magnitude (Debye)      :      2.625631022



--------------------
Rotational spectrum 
--------------------
 
Rotational constants in cm-1:             0.012674             0.004524             0.004159 
Rotational constants in MHz :           379.969750           135.641060           124.683389 

Dipole components along the rotational axes: 
x,y,z [a.u.] :    -0.701111    -0.755464     0.069057 
x,y,z [Debye]:    -1.782083    -1.920237     0.175528 

 

Dipole moment calculation done in   0.0 sec 

Maximum memory used throughout the entire PROP-calculation: 23.3 MB

--------------------------------
SUGGESTED CITATIONS FOR THIS RUN
--------------------------------

Below you find a list of papers that are relevant to this ORCA run
We neither can nor want to force you to cite these papers, but we appreciate if you do
You receive ORCA, which is the product of decades of hard work by many enthusiastic individuals, for free
The only thing we kindly ask in return is that you cite our papers,
We deeply appreciate it, if you show your appreciation for ORCA by not just citing the generic ORCA reference.

Please note that relegating all ORCA citations to the supporting information does *not* help us.
SI sections are not indexed - citations you put there will not count into any citation statistics
But we need these citations in order to attract the funding resources that allow us to do what we are doing

Therefore, if you are a happy ORCA user, please consider citing a few of the papers listed below in the main body of your paper

In addition to the list printed below, the program has created the file sp.bibtex that contains the list in bibtex format
You can import this file easily into all common literature databanks and citation aid programs


List of essential papers. We consider these as the minimum necessary citations

  1. Neese,F.
     Software update: the ORCA program system, version 5.0
     WIRES Comput. Molec. Sci., 2022 12(1)e1606
     doi.org/10.1002/wcms.1606

List of papers to cite with high priority. The work reported in these papers was absolutely
necessary for this run to complete.
Our perspective: the developers of density functionals and basis sets usually get cited in chemistry papers
Good! But without the algorithms to do something with them, the functionals or basis sets would not do anything.
Hence, in our opinion, the algorithm design and method developments papers are equally worthy of getting cited

  1. Neese,F.
     An improvement of the resolution of the identity approximation for the formation of the Coulomb matrix
     J. Comp. Chem., 2003 24(14)1740-1747
     doi.org/10.1002/jcc.10318
  2. Neese,F.
     The SHARK Integral Generation and Digestion System
     J. Comp. Chem., 2022  1-16
     doi.org/10.1002/jcc.26942
  3. Caldeweyher,E.; Bannwarth,C.; Grimme,S.
     Extension of the D3 dispersion coefficient model
     J. Chem. Phys., 2017 147 034112-XXXX
     doi.org/10.1063/1.4993215
  4. Caldeweyher,E.; Ehlert,S.; Hansen,A.; Neugebauer,H.; Spicher,S.; Bannwarth,C.; Grimme,S.
     A generally applicable atomic-charge dependent London dispersion correction
     J. Chem. Phys., 2019 150 154122-XXXX
     doi.org/10.1063/1.5090222
  5. Caldeweyher,E.; Mewes,J.; Ehlert,S.; Grimme,S.
     Extension and evaluation of the D4 London-dispersion model for periodic systems
     Phys. Chem. Chem. Phys., 2020 22(16)8499-8512
     doi.org/10.1039/D0CP00502A

List of suggested additional citations. These are papers that are important in the 'surrounding' of 
of this run, or papers that preceded the highly important papers. If you like your results we are grateful for a citation.

  1. Neese,F.
     The ORCA program system
     WIRES Comput. Molec. Sci., 2012 2(1)73-78
     doi.org/10.1002/wcms.81
  2. Neese,F.
     Software update: the ORCA program system, version 4.0
     WIRES Comput. Molec. Sci., 2018 8(1)1-6
     doi.org/10.1002/wcms.1327
  3. Neese,F.; Wennmohs,F.; Becker,U.; Riplinger,C.
     The ORCA quantum chemistry program package
     J. Chem. Phys., 2020 152 Art. No. L224108
     doi.org/10.1063/5.0004608

List of optional additional citations

  1. Neese,F.
     Approximate second-order SCF convergence for spin unrestricted wavefunctions
     Chem. Phys. Lett., 2000 325(1-3)93-98
     doi.org/10.1016/s0009-2614(00)00662-x

Timings for individual modules:

Sum of individual times          ...       19.934 sec (=   0.332 min)
Startup calculation              ...        1.554 sec (=   0.026 min)   7.8 %
SCF iterations                   ...       18.269 sec (=   0.304 min)  91.6 %
Property calculations            ...        0.112 sec (=   0.002 min)   0.6 %
                             ****ORCA TERMINATED NORMALLY****
TOTAL RUN TIME: 0 days 0 hours 0 minutes 20 seconds 732 msec
