
                                 *****************
                                 * O   R   C   A *
                                 *****************

                                            #,                                       
                                            ###                                      
                                            ####                                     
                                            #####                                    
                                            ######                                   
                                           ########,                                 
                                     ,,################,,,,,                         
                               ,,#################################,,                 
                          ,,##########################################,,             
                       ,#########################################, ''#####,          
                    ,#############################################,,   '####,        
                  ,##################################################,,,,####,       
                ,###########''''           ''''###############################       
              ,#####''   ,,,,##########,,,,          '''####'''          '####       
            ,##' ,,,,###########################,,,                        '##       
           ' ,,###''''                  '''############,,,                           
         ,,##''                                '''############,,,,        ,,,,,,###''
      ,#''                                            '''#######################'''  
     '                                                          ''''####''''         
             ,#######,   #######,   ,#######,      ##                                
            ,#'     '#,  ##    ##  ,#'     '#,    #''#        ,####,   ,####,        
            ##       ##  ##   ,#'  ##            #'  '#       #'       #'  '#        
            ##       ##  #######   ##           ,######,      #####,   #    #        
            '#,     ,#'  ##    ##  '#,     ,#' ,#      #,     #,   #   #,  ,#        
             '#######'   ##     ##  '#######'  #'      '#     '####' # '####'        



                #########################################################
                #                        -***-                          #
                #          Department of theory and spectroscopy        #
                #                                                       #
                #                      Frank Neese                      #
                #                                                       #
                #     Directorship, Architecture, Infrastructure        #
                #                    SHARK, DRIVERS                     #
                #        Core code/Algorithms in most modules           #
                #                                                       #
                #        Max Planck Institute fuer Kohlenforschung      #
                #                Kaiser Wilhelm Platz 1                 #
                #                 D-45470 Muelheim/Ruhr                 #
                #                      Germany                          #
                #                                                       #
                #                  All rights reserved                  #
                #                        -***-                          #
                #########################################################


                         Program Version 6.0.0  -   RELEASE  -


 With contributions from (in alphabetic order):
   Daniel Aravena         : Magnetic Suceptibility
   Michael Atanasov       : Ab Initio Ligand Field Theory (pilot matlab implementation)
   Alexander A. Auer      : GIAO ZORA, VPT2 properties, NMR spectrum
   Ute Becker             : All parallelization in ORCA, NUMFREQ, NUMCALC
   Giovanni Bistoni       : ED, misc. LED, open-shell LED, HFLD
   Martin Brehm           : Molecular dynamics
   Dmytro Bykov           : pre 5.0 version of the SCF Hessian
   Marcos Casanova-Páez   : Triplet and SCS-CIS(D). UHF-(DLPNO)-IP/EA/STEOM-CCSD. UHF-CVS-IP/STEOM-CCSD
   Vijay G. Chilkuri      : MRCI spin determinant printing, contributions to CSF-ICE
   Pauline Colinet        : FMM embedding
   Dipayan Datta          : RHF DLPNO-CCSD density
   Achintya Kumar Dutta   : EOM-CC, STEOM-CC
   Nicolas Foglia         : Exact transition moments, OPA infrastructure, MCD improvements
   Dmitry Ganyushin       : Spin-Orbit,Spin-Spin,Magnetic field MRCI
   Miquel Garcia          : C-PCM and meta-GGA Hessian, CCSD/C-PCM, Gaussian charge scheme
   Tiago L. C. Gouveia    : GS-ROHF, GS-ROCIS
   Yang Guo               : DLPNO-NEVPT2, F12-NEVPT2, CIM, IAO-localization
   Andreas Hansen         : Spin unrestricted coupled pair/coupled cluster methods
   Ingolf Harden          : AUTO-CI MPn and infrastructure 
   Benjamin Helmich-Paris : MC-RPA, TRAH-(SCF,CASSCF), AVAS, COSX integrals, SCF dyn. polar.
   Lee Huntington         : MR-EOM, pCC
   Robert Izsak           : Overlap fitted RIJCOSX, COSX-SCS-MP3, EOM
   Riya Kayal             : Wick's Theorem for AUTO-CI, AUTO-CI UHF-CCSDT
   Emily Kempfer          : AUTO-CI, RHF CISDT and CCSDT
   Christian Kollmar      : KDIIS, OOCD, Brueckner-CCSD(T), CCSD density, CASPT2, CASPT2-K, improved NEVPT2
   Axel Koslowski         : Symmetry handling
   Simone Kossmann        : Meta GGA functionals, TD-DFT gradient, OOMP2, (MP2 Hessian; deprecated post 5.0)
   Lucas Lang             : DCDCAS
   Marvin Lechner         : AUTO-CI (C++ implementation), FIC-MRCC
   Spencer Leger          : CASSCF response
   Dagmar Lenk            : GEPOL surface, SMD, ORCA-2-JSON
   Dimitrios Liakos       : Extrapolation schemes; Compound Job, initial MDCI parallelization
   Dimitrios Manganas     : Further ROCIS development; embedding schemes. LFT, Crystal Embedding
   Dimitrios Pantazis     : SARC Basis sets
   Anastasios Papadopoulos: AUTO-CI, single reference methods and gradients
   Taras Petrenko         : pre 6.0 DFT Hessian and TD-DFT gradient, (ASA, deprecated), ECA, 1-Electron XAS/XES, NRVS
   Peter Pinski           : DLPNO-MP2, DLPNO-MP2 Gradient
   Christoph Reimann      : Effective Core Potentials
   Marius Retegan         : Local ZFS, SOC
   Christoph Riplinger    : Optimizer, TS searches, QM/MM, DLPNO-CCSD(T), (RO)-DLPNO pert. Triples
   Michael Roemelt        : Original ROCIS implementation
   Masaaki Saitow         : Open-shell DLPNO-CCSD energy and density
   Barbara Sandhoefer     : DKH picture change effects
   Kantharuban Sivalingam : CASSCF convergence/infrastructure, NEVPT2 and variants, FIC-MRCI
   Bernardo de Souza      : ESD, SOC TD-DFT
   Georgi Stoychev        : AutoAux, RI-MP2 NMR, DLPNO-MP2 response, X2C
   Van Anh Tran           : RI-MP2 g-tensors
   Willem Van den Heuvel  : Paramagnetic NMR
   Zikuan Wang            : NOTCH, Electric field optimization 
   Frank Wennmohs         : Technical directorship and infrastructure
   Hang Xu                : AUTO-CI-Response properties 


 We gratefully acknowledge several colleagues who have allowed us to
 interface, adapt or use parts of their codes:
   Stefan Grimme, W. Hujo, H. Kruse, P. Pracht,  : VdW corrections, initial TS optimization,
                  C. Bannwarth, S. Ehlert,         DFT functionals, gCP, sTDA/sTD-DF
                  L. Wittmann, M. Mueller
   Ed Valeev, F. Pavosevic, A. Kumar             : LibInt (2-el integral package), F12 methods
   Garnet Chan, S. Sharma, J. Yang, R. Olivares  : DMRG
   Ulf Ekstrom                                   : XCFun DFT Library
   Mihaly Kallay                                 : mrcc  (arbitrary order and MRCC methods)
   Frank Weinhold                                : gennbo (NPA and NBO analysis)
   Simon Mueller                                 : openCOSMO-RS
   Christopher J. Cramer and Donald G. Truhlar   : smd solvation model
   Lars Goerigk                                  : TD-DFT with DH, B97 family of functionals
   V. Asgeirsson, H. Jonsson                     : NEB implementation
   FAccTs GmbH                                   : IRC, NEB, NEB-TS, DLPNO-Multilevel, CI-OPT
                                                   MM, QMMM, 2- and 3-layer-ONIOM, Crystal-QMMM,
                                                   LR-CPCM, SF, NACMEs, symmetry and pop. for TD-DFT,
                                                   nearIR, NL-DFT gradient (VV10), updates on ESD,
                                                   ML-optimized integration grids, MBIS, APM,
                                                   GOAT, DOCKER, SOLVATOR, interface openCOSMO-RS
   S Lehtola, MJT Oliveira, MAL Marques          : LibXC Library
   Liviu Ungur et al                             : ANISO software


 Your calculation uses the libint2 library for the computation of 2-el integrals
 For citations please refer to: http://libint.valeyev.net

 Your ORCA version has been built with support for libXC version: 6.2.2
 For citations please refer to: https://libxc.gitlab.io

 This ORCA versions uses:
   CBLAS   interface :  Fast vector & matrix operations
   LAPACKE interface :  Fast linear algebra routines
   SCALAPACK package :  Parallel linear algebra routines
   Shared memory     :  Shared parallel matrices
   BLAS/LAPACK       :  OpenBLAS 0.3.27  USE64BITINT DYNAMIC_ARCH NO_AFFINITY SapphireRapids SINGLE_THREADED
        Core in use  :  SapphireRapids
   Copyright (c) 2011-2014, The OpenBLAS Project


Your calculation utilizes the geometrical counterpoise correction gCP
Please cite in your paper:
H.Kruse, S. Grimme J.Chem.Phys., 136, (2012), 154101 
   

Your calculation utilizes the atom-pairwise dispersion correction
based on EEQ partial charges (D4)


================================================================================

----- Orbital basis set information -----
Your calculation utilizes the basis: def2-SV(P)
   F. Weigend and R. Ahlrichs, Phys. Chem. Chem. Phys. 7, 3297 (2005).

----- AuxJ basis set information -----
Your calculation utilizes the auxiliary basis: def2/J
   F. Weigend, Phys. Chem. Chem. Phys. 8, 1057 (2006).

================================================================================
                                        WARNINGS
                       Please study these warnings very carefully!
================================================================================


================================================================================
                                       INPUT FILE
================================================================================
NAME = sp.inp
|  1> ! pbe def2-sv(p) def2/J RI DEFGRID1 loosescf d4 GCP(DFT/SV(P)) printgap
|  2> %output
|  3>     printlevel normal
|  4> end
|  5> * xyz 0 1
|  6> C 4.2575092441 -0.7046083947 -1.9561569688
|  7> C 4.3993627608 -0.410636942 -0.4766088012
|  8> O 3.2506366572 -0.8304422699 0.276730975
|  9> P 1.8334782231 -0.1035754439 0.1656047807
| 10> S 2.0017752455 1.8418933283 -0.0770604498
| 11> O 1.1220936587 -0.6896069671 1.4537255755
| 12> C 1.7329136852 -0.7724067615 2.7570963629
| 13> C 1.9944222748 0.5940000763 3.3572896562
| 14> S 0.8386543451 -1.1487538461 -1.3736918977
| 15> C -0.0483744801 0.2130801609 -2.1782701173
| 16> S -1.8619887709 0.1529651736 -2.0177469438
| 17> P -2.0940641405 0.0867547951 0.088841692
| 18> S -3.9002589819 0.4331463959 0.7561968401
| 19> O -0.9402214467 1.0337435813 0.6431360805
| 20> C -1.2386071981 2.3913103128 1.0237298362
| 21> C -1.5062735609 3.2775003719 -0.175927093
| 22> O -1.4642512746 -1.2911698717 0.5651375398
| 23> C -2.2442820708 -2.4981778328 0.6288749639
| 24> C -2.5738318782 -3.0407338831 -0.7481149325
| 25> H 3.9837847798 -1.7451264473 -2.1105411234
| 26> H 3.4873917019 -0.0696744256 -2.3910478284
| 27> H 5.2013014694 -0.501555463 -2.4519517815
| 28> H 4.5487904444 0.6614416544 -0.3115376298
| 29> H 5.2226037346 -0.9720540869 -0.0325081193
| 30> H 1.0016363734 -1.3303840252 3.3447689285
| 31> H 2.6579238925 -1.3475183645 2.671410114
| 32> H 1.0707893866 1.1669196664 3.4018809959
| 33> H 2.3926677314 0.4779020386 4.3604824148
| 34> H 2.714380153 1.1418102895 2.7504589583
| 35> H 0.1275874533 0.1415520489 -3.2486837242
| 36> H 0.3335425733 1.1558516301 -1.7780529918
| 37> H -2.1024841236 2.3779908606 1.6952308673
| 38> H -0.3484803432 2.718385669 1.563943856
| 39> H -0.6386524814 3.3008805231 -0.8313492643
| 40> H -2.3691114876 2.9068342387 -0.7289454948
| 41> H -1.714283913 4.2853474757 0.1686978916
| 42> H -1.6112219588 -3.1873276859 1.1899522821
| 43> H -3.159335794 -2.2892727327 1.19329895
| 44> H -1.6657128843 -3.1533316939 -1.3362631634
| 45> H -3.057422361 -4.0067361138 -0.6436307868
| 46> H -3.2497107854 -2.361676015 -1.266934717
| 47> *
| 48> 
| 49>                          ****END OF INPUT****
================================================================================

                       ****************************
                       * Single Point Calculation *
                       ****************************

---------------------------------
CARTESIAN COORDINATES (ANGSTROEM)
---------------------------------
  C      4.257509   -0.704608   -1.956157
  C      4.399363   -0.410637   -0.476609
  O      3.250637   -0.830442    0.276731
  P      1.833478   -0.103575    0.165605
  S      2.001775    1.841893   -0.077060
  O      1.122094   -0.689607    1.453726
  C      1.732914   -0.772407    2.757096
  C      1.994422    0.594000    3.357290
  S      0.838654   -1.148754   -1.373692
  C     -0.048374    0.213080   -2.178270
  S     -1.861989    0.152965   -2.017747
  P     -2.094064    0.086755    0.088842
  S     -3.900259    0.433146    0.756197
  O     -0.940221    1.033744    0.643136
  C     -1.238607    2.391310    1.023730
  C     -1.506274    3.277500   -0.175927
  O     -1.464251   -1.291170    0.565138
  C     -2.244282   -2.498178    0.628875
  C     -2.573832   -3.040734   -0.748115
  H      3.983785   -1.745126   -2.110541
  H      3.487392   -0.069674   -2.391048
  H      5.201301   -0.501555   -2.451952
  H      4.548790    0.661442   -0.311538
  H      5.222604   -0.972054   -0.032508
  H      1.001636   -1.330384    3.344769
  H      2.657924   -1.347518    2.671410
  H      1.070789    1.166920    3.401881
  H      2.392668    0.477902    4.360482
  H      2.714380    1.141810    2.750459
  H      0.127587    0.141552   -3.248684
  H      0.333543    1.155852   -1.778053
  H     -2.102484    2.377991    1.695231
  H     -0.348480    2.718386    1.563944
  H     -0.638652    3.300881   -0.831349
  H     -2.369111    2.906834   -0.728945
  H     -1.714284    4.285347    0.168698
  H     -1.611222   -3.187328    1.189952
  H     -3.159336   -2.289273    1.193299
  H     -1.665713   -3.153332   -1.336263
  H     -3.057422   -4.006736   -0.643631
  H     -3.249711   -2.361676   -1.266935

----------------------------
CARTESIAN COORDINATES (A.U.)
----------------------------
  NO LB      ZA    FRAG     MASS         X           Y           Z
   0 C     6.0000    0    12.011    8.045526   -1.331517   -3.696601
   1 C     6.0000    0    12.011    8.313591   -0.775991   -0.900660
   2 O     8.0000    0    15.999    6.142813   -1.569308    0.522946
   3 P    15.0000    0    30.974    3.464772   -0.195729    0.312948
   4 S    16.0000    0    32.060    3.782807    3.480674   -0.145623
   5 O     8.0000    0    15.999    2.120450   -1.303168    2.747143
   6 C     6.0000    0    12.011    3.274732   -1.459637    5.210157
   7 C     6.0000    0    12.011    3.768912    1.122497    6.344358
   8 S    16.0000    0    32.060    1.584827   -2.170830   -2.595901
   9 C     6.0000    0    12.011   -0.091415    0.402663   -4.116334
  10 S    16.0000    0    32.060   -3.518649    0.289062   -3.812989
  11 P    15.0000    0    30.974   -3.957208    0.163943    0.167886
  12 S    16.0000    0    32.060   -7.370421    0.818528    1.429005
  13 O     8.0000    0    15.999   -1.776761    1.953492    1.215351
  14 C     6.0000    0    12.011   -2.340628    4.518922    1.934569
  15 C     6.0000    0    12.011   -2.846445    6.193578   -0.332454
  16 O     8.0000    0    15.999   -2.767034   -2.439957    1.067955
  17 C     6.0000    0    12.011   -4.241078   -4.720872    1.188401
  18 C     6.0000    0    12.011   -4.863837   -5.746154   -1.413732
  19 H     1.0000    0     1.008    7.528262   -3.297811   -3.988345
  20 H     1.0000    0     1.008    6.590215   -0.131666   -4.518426
  21 H     1.0000    0     1.008    9.829035   -0.947802   -4.633517
  22 H     1.0000    0     1.008    8.595968    1.249944   -0.588721
  23 H     1.0000    0     1.008    9.869291   -1.836916   -0.061431
  24 H     1.0000    0     1.008    1.892818   -2.514061    6.320697
  25 H     1.0000    0     1.008    5.022748   -2.546441    5.048234
  26 H     1.0000    0     1.008    2.023499    2.205159    6.428623
  27 H     1.0000    0     1.008    4.521487    0.903104    8.240118
  28 H     1.0000    0     1.008    5.129435    2.157709    5.197614
  29 H     1.0000    0     1.008    0.241105    0.267495   -6.139123
  30 H     1.0000    0     1.008    0.630304    2.184243   -3.360033
  31 H     1.0000    0     1.008   -3.973119    4.493751    3.203522
  32 H     1.0000    0     1.008   -0.658532    5.137004    2.955426
  33 H     1.0000    0     1.008   -1.206878    6.237760   -1.571022
  34 H     1.0000    0     1.008   -4.476972    5.493121   -1.377507
  35 H     1.0000    0     1.008   -3.239527    8.098133    0.318793
  36 H     1.0000    0     1.008   -3.044768   -6.023176    2.248684
  37 H     1.0000    0     1.008   -5.970279   -4.326099    2.255008
  38 H     1.0000    0     1.008   -3.147741   -5.958933   -2.525171
  39 H     1.0000    0     1.008   -5.777691   -7.571634   -1.216286
  40 H     1.0000    0     1.008   -6.141063   -4.462921   -2.394160

--------------------------------
INTERNAL COORDINATES (ANGSTROEM)
--------------------------------
 C      0   0   0     0.000000000000     0.00000000     0.00000000
 C      1   0   0     1.515125214446     0.00000000     0.00000000
 O      2   1   0     1.436429250896   112.36841540     0.00000000
 P      3   2   1     1.596565827374   122.70315644   290.17276372
 S      4   3   2     1.967754823510   112.50596527   323.98814461
 O      4   3   2     1.583905340179    99.99794554   195.11775179
 C      6   4   3     1.441780954297   124.48246153    46.04927608
 C      7   6   4     1.515152262363   112.29836138    66.52128064
 S      4   3   2     2.109859404036   104.10963509    90.52747279
 C      9   4   3     1.813493344573   100.50441758   216.90789983
 S     10   9   4     1.821696543534   115.02931583   247.26232067
 P     11  10   9     2.120367532264   101.39315156    56.18865098
 S     12  11  10     1.956448271716   115.74744364   166.20707581
 O     12  11  10     1.592288602090   104.35717098    36.90805020
 C     14  12  11     1.441136042847   120.14192276    99.00357925
 C     15  14  12     1.515306850245   112.23495014   287.88235710
 O     12  11  10     1.588143056548   106.35847322   294.85699534
 C     17  12  11     1.438533531208   121.75187899   271.30948726
 C     18  17  12     1.516268880530   112.20042520    71.72102949
 H      1   2   3     1.086939449709   110.36602183   308.45170706
 H      1   2   3     1.088738827123   110.06822202    68.64291640
 H      1   2   3     1.085258841894   109.17136530   188.09511022
 H      2   1   3     1.094956456263   110.48508262   238.74986322
 H      2   1   3     1.090935528432   111.61240959   116.21252841
 H      7   6   4     1.091542110007   103.42845188   186.63245854
 H      7   6   4     1.092583805831   108.54271362   303.32199420
 H      8   7   6     1.087806488518   110.16106897    56.15853762
 H      8   7   6     1.085575381523   109.44707204   176.31518677
 H      8   7   6     1.089347911359   110.29867069   296.27147676
 H     10   9   4     1.087135760910   107.95440157   131.38880045
 H     10   9   4     1.093093054757   108.32095381    10.94430644
 H     15  14  12     1.094246034942   108.30393759    50.39458715
 H     15  14  12     1.091391448398   104.13227489   167.56847298
 H     16  15  14     1.087608013806   110.41114371   300.17389733
 H     16  15  14     1.089822014268   110.04014964    61.10824905
 H     16  15  14     1.085260554535   108.99970455   180.56392846
 H     18  17  12     1.091100537270   103.77617485   192.27093240
 H     18  17  12     1.095234720631   108.41072295   309.06624661
 H     19  18  17     1.087785234129   110.28027463    53.15742277
 H     19  18  17     1.085328061682   109.14119881   173.34252274
 H     19  18  17     1.089543874387   110.13613547   292.86338821

---------------------------
INTERNAL COORDINATES (A.U.)
---------------------------
 C      0   0   0     0.000000000000     0.00000000     0.00000000
 C      1   0   0     2.863171713902     0.00000000     0.00000000
 O      2   1   0     2.714457894948   112.36841540     0.00000000
 P      3   2   1     3.017072168515   122.70315644   290.17276372
 S      4   3   2     3.718517715137   112.50596527   323.98814461
 O      4   3   2     2.993147314993    99.99794554   195.11775179
 C      6   4   3     2.724571148725   124.48246153    46.04927608
 C      7   6   4     2.863222827057   112.29836138    66.52128064
 S      4   3   2     3.987056454706   104.10963509    90.52747279
 C      9   4   3     3.427005766933   100.50441758   216.90789983
 S     10   9   4     3.442507566390   115.02931583   247.26232067
 P     11  10   9     4.006913939237   101.39315156    56.18865098
 S     12  11  10     3.697151428727   115.74744364   166.20707581
 O     12  11  10     3.008989384115   104.35717098    36.90805020
 C     14  12  11     2.723352442703   120.14192276    99.00357925
 C     15  14  12     2.863514955818   112.23495014   287.88235710
 O     12  11  10     3.001155438364   106.35847322   294.85699534
 C     17  12  11     2.718434408446   121.75187899   271.30948726
 C     18  17  12     2.865332929588   112.20042520    71.72102949
 H      1   2   3     2.054017884106   110.36602183   308.45170706
 H      1   2   3     2.057418214629   110.06822202    68.64291640
 H      1   2   3     2.050841995596   109.17136530   188.09511022
 H      2   1   3     2.069167830906   110.48508262   238.74986322
 H      2   1   3     2.061569378501   111.61240959   116.21252841
 H      7   6   4     2.062715651556   103.42845188   186.63245854
 H      7   6   4     2.064684171379   108.54271362   303.32199420
 H      8   7   6     2.055656350001   110.16106897    56.15853762
 H      8   7   6     2.051440168805   109.44707204   176.31518677
 H      8   7   6     2.058569217028   110.29867069   296.27147676
 H     10   9   4     2.054388858512   107.95440157   131.38880045
 H     10   9   4     2.065646512383   108.32095381    10.94430644
 H     15  14  12     2.067825329170   108.30393759    50.39458715
 H     15  14  12     2.062430942376   104.13227489   167.56847298
 H     16  15  14     2.055281287151   110.41114371   300.17389733
 H     16  15  14     2.059465141685   110.04014964    61.10824905
 H     16  15  14     2.050845232018   108.99970455   180.56392846
 H     18  17  12     2.061881200015   103.77617485   192.27093240
 H     18  17  12     2.069693674354   108.41072295   309.06624661
 H     19  18  17     2.055616185028   110.28027463    53.15742277
 H     19  18  17     2.050972802039   109.14119881   173.34252274
 H     19  18  17     2.058939533484   110.13613547   292.86338821

---------------------
BASIS SET INFORMATION
---------------------
There are 5 groups of distinct atoms

 Group   1 Type C   : 7s4p1d contracted to 3s2p1d pattern {511/31/1}
 Group   2 Type O   : 7s4p1d contracted to 3s2p1d pattern {511/31/1}
 Group   3 Type P   : 10s7p1d contracted to 4s3p1d pattern {5311/511/1}
 Group   4 Type S   : 10s7p1d contracted to 4s3p1d pattern {5311/511/1}
 Group   5 Type H   : 4s contracted to 2s pattern {31}

Atom   0C    basis set group =>   1
Atom   1C    basis set group =>   1
Atom   2O    basis set group =>   2
Atom   3P    basis set group =>   3
Atom   4S    basis set group =>   4
Atom   5O    basis set group =>   2
Atom   6C    basis set group =>   1
Atom   7C    basis set group =>   1
Atom   8S    basis set group =>   4
Atom   9C    basis set group =>   1
Atom  10S    basis set group =>   4
Atom  11P    basis set group =>   3
Atom  12S    basis set group =>   4
Atom  13O    basis set group =>   2
Atom  14C    basis set group =>   1
Atom  15C    basis set group =>   1
Atom  16O    basis set group =>   2
Atom  17C    basis set group =>   1
Atom  18C    basis set group =>   1
Atom  19H    basis set group =>   5
Atom  20H    basis set group =>   5
Atom  21H    basis set group =>   5
Atom  22H    basis set group =>   5
Atom  23H    basis set group =>   5
Atom  24H    basis set group =>   5
Atom  25H    basis set group =>   5
Atom  26H    basis set group =>   5
Atom  27H    basis set group =>   5
Atom  28H    basis set group =>   5
Atom  29H    basis set group =>   5
Atom  30H    basis set group =>   5
Atom  31H    basis set group =>   5
Atom  32H    basis set group =>   5
Atom  33H    basis set group =>   5
Atom  34H    basis set group =>   5
Atom  35H    basis set group =>   5
Atom  36H    basis set group =>   5
Atom  37H    basis set group =>   5
Atom  38H    basis set group =>   5
Atom  39H    basis set group =>   5
Atom  40H    basis set group =>   5
---------------------------------
AUXILIARY/J BASIS SET INFORMATION
---------------------------------
There are 5 groups of distinct atoms

 Group   1 Type C   : 12s5p4d2f1g contracted to 6s4p3d1f1g pattern {711111/2111/211/2/1}
 Group   2 Type O   : 12s5p4d2f1g contracted to 6s4p3d1f1g pattern {711111/2111/211/2/1}
 Group   3 Type P   : 14s5p5d2f1g contracted to 8s4p3d1f1g pattern {71111111/2111/311/2/1}
 Group   4 Type S   : 14s5p5d2f1g contracted to 8s4p3d1f1g pattern {71111111/2111/311/2/1}
 Group   5 Type H   : 5s2p1d contracted to 3s1p1d pattern {311/2/1}

Atom   0C    basis set group =>   1
Atom   1C    basis set group =>   1
Atom   2O    basis set group =>   2
Atom   3P    basis set group =>   3
Atom   4S    basis set group =>   4
Atom   5O    basis set group =>   2
Atom   6C    basis set group =>   1
Atom   7C    basis set group =>   1
Atom   8S    basis set group =>   4
Atom   9C    basis set group =>   1
Atom  10S    basis set group =>   4
Atom  11P    basis set group =>   3
Atom  12S    basis set group =>   4
Atom  13O    basis set group =>   2
Atom  14C    basis set group =>   1
Atom  15C    basis set group =>   1
Atom  16O    basis set group =>   2
Atom  17C    basis set group =>   1
Atom  18C    basis set group =>   1
Atom  19H    basis set group =>   5
Atom  20H    basis set group =>   5
Atom  21H    basis set group =>   5
Atom  22H    basis set group =>   5
Atom  23H    basis set group =>   5
Atom  24H    basis set group =>   5
Atom  25H    basis set group =>   5
Atom  26H    basis set group =>   5
Atom  27H    basis set group =>   5
Atom  28H    basis set group =>   5
Atom  29H    basis set group =>   5
Atom  30H    basis set group =>   5
Atom  31H    basis set group =>   5
Atom  32H    basis set group =>   5
Atom  33H    basis set group =>   5
Atom  34H    basis set group =>   5
Atom  35H    basis set group =>   5
Atom  36H    basis set group =>   5
Atom  37H    basis set group =>   5
Atom  38H    basis set group =>   5
Atom  39H    basis set group =>   5
Atom  40H    basis set group =>   5
------------------------------------------------------------------------------
                             ORCA STARTUP CALCULATIONS
                           -- RI-GTO INTEGRALS CHOSEN --
------------------------------------------------------------------------------
------------------------------------------------------------------------------
                   ___                                                        
                  /   \      - P O W E R E D   B Y -                         
                 /     \                                                     
                 |  |  |   _    _      __       _____    __    __             
                 |  |  |  | |  | |    /  \     |  _  \  |  |  /  |          
                  \  \/   | |  | |   /    \    | | | |  |  | /  /          
                 / \  \   | |__| |  /  /\  \   | |_| |  |  |/  /          
                |  |  |   |  __  | /  /__\  \  |    /   |      \           
                |  |  |   | |  | | |   __   |  |    \   |  |\   \          
                \     /   | |  | | |  |  |  |  | |\  \  |  | \   \       
                 \___/    |_|  |_| |__|  |__|  |_| \__\ |__|  \__/        
                                                                              
                      - O R C A' S   B I G   F R I E N D -                    
                                      &                                       
                       - I N T E G R A L  F E E D E R -                       
                                                                              
 v1 FN, 2020, v2 2021, v3 2022-2024                                           
------------------------------------------------------------------------------


----------------------
SHARK INTEGRAL PACKAGE
----------------------

Number of atoms                             ...     41
Number of basis functions                   ...    334
Number of shells                            ...    170
Maximum angular momentum                    ...      2
Integral batch strategy                     ... SHARK/LIBINT Hybrid
RI-J (if used) integral strategy            ... SPLIT-RIJ (Revised 2003 algorithm where possible)
Printlevel                                  ...      1
Contraction scheme used                     ... SEGMENTED contraction
Prescreening option                         ... SCHWARTZ
   Thresh                                   ... 1.000e-09
   Tcut                                     ... 1.000e-10
   Tpresel                                  ... 1.000e-10 
Coulomb Range Separation                    ... NOT USED
Exchange Range Separation                   ... NOT USED
Multipole approximations                    ... NOT USED
Finite Nucleus Model                        ... NOT USED
CABS basis                                  ... NOT available
Auxiliary Coulomb fitting basis             ... AVAILABLE
   # of basis functions in Aux-J            ...   1185
   # of shells in Aux-J                     ...    407
   Maximum angular momentum in Aux-J        ...      4
Auxiliary J/K fitting basis                 ... NOT available
Auxiliary Correlation fitting basis         ... NOT available
Auxiliary 'external' fitting basis          ... NOT available

Checking pre-screening integrals            ... done (  0.0 sec) Dimension = 170
Check shell pair data                       ... done (  0.0 sec)
Shell pair information
Shell pair cut-off parameter TPreSel        ...   1.0e-10
Total number of shell pairs                 ...     14535
Shell pairs after pre-screening             ...     11143
Total number of primitive shell pairs       ...     62501
Primitive shell pairs kept                  ...     27657
          la=0 lb=0:   4334 shell pairs
          la=1 lb=0:   3756 shell pairs
          la=1 lb=1:    861 shell pairs
          la=2 lb=0:   1420 shell pairs
          la=2 lb=1:    647 shell pairs
          la=2 lb=2:    125 shell pairs

Calculating one electron integrals          ... done (  0.1 sec)
Calculating RI/J V-Matrix + Cholesky decomp.... done (  0.1 sec)
Calculating Nuclear repulsion               ... done (  0.0 sec) ENN=   2873.641044620150 Eh

Diagonalization of the overlap matrix:
Smallest eigenvalue                        ... 3.233e-03
Time for diagonalization                   ...    0.009 sec
Threshold for overlap eigenvalues          ... 1.000e-07
Number of eigenvalues below threshold      ... 0
Time for construction of square roots      ...    0.031 sec
Total time needed                          ...    0.055 sec

-------------------
DFT GRID GENERATION
-------------------

General Integration Accuracy     IntAcc      ... 4.159
Radial Grid Type                 RadialGrid  ... OptM3 with GC (2021)
Angular Grid (max. ang.)         AngularGrid ... 3 (Lebedev-194)
Angular grid pruning method      GridPruning ... 4 (adaptive)
Weight generation scheme         WeightScheme... mBecke (2022)
Basis function cutoff            BFCut       ... 1.0000e-10
Integration weight cutoff        WCut        ... 1.0000e-14
Partially contracted basis set               ... off
Rotationally invariant grid construction     ... off
Angular grids for H and He will be reduced by one unit

Total number of grid points                  ...    97162
Total number of batches                      ...     1538
Average number of points per batch           ...       63
Average number of grid points per atom       ...     2370
Initializing property integral containers    ... done (  0.0 sec)

SHARK setup successfully completed in   1.6 seconds

Maximum memory used throughout the entire STARTUP-calculation: 53.1 MB
-------------------------------------------------------------------------------
                                 ORCA GUESS
                   Start orbitals & Density for SCF / CASSCF
-------------------------------------------------------------------------------

------------
SCF SETTINGS
------------
Hamiltonian:
 Density Functional     Method          .... DFT(GTOs)
 Exchange Functional    Exchange        .... PBE
   PBE kappa parameter   XKappa         ....  0.804000
   PBE mue parameter    XMuePBE         ....  0.219520
 Correlation Functional Correlation     .... PBE
   PBE beta parameter  CBetaPBE         ....  0.066725
 LDA part of GGA corr.  LDAOpt          .... PW91-LDA
 Gradients option       PostSCFGGA      .... off
   NL short-range parameter             ....  6.400000
 RI-approximation to the Coulomb term is turned on
   Number of AuxJ basis functions       .... 1185


General Settings:
 Integral files         IntName         .... sp
 Hartree-Fock type      HFTyp           .... RHF
 Total Charge           Charge          ....    0
 Multiplicity           Mult            ....    1
 Number of Electrons    NEL             ....  202
 Basis Dimension        Dim             ....  334
 Nuclear Repulsion      ENuc            ....   2873.6410446202 Eh

Convergence Acceleration:
 AO-DIIS                CNVDIIS         .... on
   Start iteration      DIISMaxIt       ....    12
   Startup error        DIISStart       ....  0.200000
   # of expansion vecs  DIISMaxEq       ....     5
   Bias factor          DIISBfac        ....   1.050
   Max. coefficient     DIISMaxC        ....  10.000
 MO-DIIS                CNVKDIIS        .... off
 Trust-Rad. Augm. Hess. CNVTRAH         .... auto
   Auto Start mean grad. ratio tolernc. ....  1.125000
   Auto Start start iteration           ....    50
   Auto Start num. interpolation iter.  ....    10
   Max. Number of Micro iterations      ....    24
   Max. Number of Macro iterations      .... Maxiter - #DIIS iter
   Number of Davidson start vectors     ....     2
   Converg. threshold    (grad. norm)   ....   1.000e-04
   Grad. Scal. Fac. for Micro threshold ....   0.100
   Minimum threshold for Micro iter.    ....   1.000e-02
   NR start threshold (gradient norm)   ....   1.000e-04
   Initial trust radius                 ....   0.400
   Minimum AH scaling param. (alpha)    ....   1.000
   Maximum AH scaling param. (alpha)    .... 1000.000
   Quad. conv. algorithm                .... NR
   White noise on init. David. guess    .... on
   Maximum white noise                  ....   0.010
   Pseudo random numbers                .... off
   Inactive MOs                         .... canonical
   Orbital update algorithm             .... Taylor
   Preconditioner                       .... Diag
   Full preconditioner red. dimension   ....   250
 SOSCF                  CNVSOSCF        .... on
   Start iteration      SOSCFMaxIt      ....   150
   Startup grad/error   SOSCFStart      ....  0.003300
   Hessian update       SOSCFHessUp     .... L-BFGS
 Level Shifting         CNVShift        .... on
   Level shift para.    LevelShift      ....    0.2500
   Turn off err/grad.   ShiftErr        ....    0.0010
 Zerner damping         CNVZerner       .... off
 Static damping         CNVDamp         .... on
   Fraction old density DampFac         ....    0.7000
   Max. Damping (<1)    DampMax         ....    0.9800
   Min. Damping (>=0)   DampMin         ....    0.0000
   Turn off err/grad.   DampErr         ....    0.1000

SCF Procedure:
 Maximum # iterations   MaxIter         ....   125
 SCF integral mode      SCFMode         .... Direct
   Integral package                     .... SHARK and LIBINT hybrid scheme
 Reset frequency        DirectResetFreq ....    20
 Integral Threshold     Thresh          ....  1.000e-09 Eh
 Primitive CutOff       TCut            ....  1.000e-10 Eh

Convergence Tolerance:
 Convergence Check Mode ConvCheckMode   .... Total+1el-Energy
 Convergence forced     ConvForced      .... 0
 Energy Change          TolE            ....  1.000e-05 Eh
 1-El. energy change                    ....  1.000e-02 Eh
 Orbital Gradient       TolG            ....  1.000e-04
 Orbital Rotation angle TolX            ....  1.000e-04
 DIIS Error             TolErr          ....  5.000e-04

------------------------------
INITIAL GUESS: MODEL POTENTIAL
------------------------------
Loading Hartree-Fock densities                     ... done
Calculating cut-offs                               ... done
Initializing the effective Hamiltonian             ... done
Setting up the integral package (SHARK)            ... done
Starting the Coulomb interaction                   ... done (   0.7 sec)
Making the grid                                    ... done (   0.6 sec)
Mapping shells                                     ... done
Starting the XC term evaluation                    ... done (   0.4 sec)
  promolecular density results
     # of electrons  =    201.986981485
     EX              =   -229.998676972
     EC              =     -7.295154739
     EX+EC           =   -237.293831711
Transforming the Hamiltonian                       ... done (   0.0 sec)
Diagonalizing the Hamiltonian                      ... done (   0.0 sec)
Back transforming the eigenvectors                 ... done (   0.0 sec)
Now organizing SCF variables                       ... done
                      ------------------
                      INITIAL GUESS DONE (   1.8 sec)
                      ------------------
             **** ENERGY FILE WAS UPDATED (sp.en.tmp) ****
Finished Guess after   2.0 sec
Maximum memory used throughout the entire GUESS-calculation: 40.4 MB

-------------------------------------------------------------------------------------------
                                      ORCA LEAN-SCF
                              memory conserving SCF solver
-------------------------------------------------------------------------------------------

----------------------------------------D-I-I-S--------------------------------------------
Iteration    Energy (Eh)           Delta-E    RMSDP     MaxDP     DIISErr   Damp  Time(sec)
-------------------------------------------------------------------------------------------
               ***  Starting incremental Fock matrix formation  ***
    1    -2929.1876451411467315     0.00e+00  2.68e-03  1.37e-01  1.83e-01  0.700   2.4
    2    -2929.4119019022687098    -2.24e-01  1.74e-03  7.23e-02  7.47e-02  0.700   2.2
                               ***Turning on AO-DIIS***
    3    -2929.4831875377017241    -7.13e-02  6.79e-04  1.68e-02  2.13e-02  0.700   2.1
    4    -2929.5281925407484778    -4.50e-02  1.02e-03  3.15e-02  1.01e-02  0.000   2.0
    5    -2929.6329832892038212    -1.05e-01  3.11e-04  1.06e-02  7.85e-03  0.000   2.0
                              *** Initializing SOSCF ***
---------------------------------------S-O-S-C-F--------------------------------------
Iteration    Energy (Eh)           Delta-E    RMSDP     MaxDP     MaxGrad    Time(sec)
--------------------------------------------------------------------------------------
    6    -2929.6340447368661444    -1.06e-03  1.11e-04  3.17e-03  2.58e-03     2.0
               *** Restarting incremental Fock matrix formation ***
    7    -2929.6341784923338309    -1.34e-04  7.11e-05  1.79e-03  1.95e-04     2.3
    8    -2929.6341820868824470    -3.59e-06  3.22e-05  9.60e-04  2.35e-04     1.9
                 **** Energy Check signals convergence ****

               *****************************************************
               *                     SUCCESS                       *
               *           SCF CONVERGED AFTER   8 CYCLES          *
               *****************************************************

             **** ENERGY FILE WAS UPDATED (sp.en.tmp) ****

----------------
TOTAL SCF ENERGY
----------------

Total Energy       :      -2929.63418208688245 Eh          -79719.39895 eV

Components:
Nuclear Repulsion  :       2873.64104462015030 Eh           78195.74822 eV
Electronic Energy  :      -5803.27522670703183 Eh         -157915.14717 eV
One Electron Energy:      -9766.11819880991425 Eh         -265749.58664 eV
Two Electron Energy:       3962.84297210288196 Eh          107834.43947 eV

Virial components:
Potential Energy   :      -5848.90556627582464 Eh         -159156.81183 eV
Kinetic Energy     :       2919.27138418894219 Eh           79437.41288 eV
Virial Ratio       :          2.00354978915426

DFT components:
N(Alpha)           :      100.999910922820 electrons
N(Beta)            :      100.999910922820 electrons
N(Total)           :      201.999821845640 electrons
E(X)               :     -231.802526191612 Eh       
E(C)               :       -7.300739226254 Eh       
E(XC)              :     -239.103265417866 Eh       

---------------
SCF CONVERGENCE
---------------

  Last Energy change         ...    3.5945e-06  Tolerance :   1.0000e-05
  Last MAX-Density change    ...    9.5969e-04  Tolerance :   1.0000e-03
  Last RMS-Density change    ...    3.2230e-05  Tolerance :   1.0000e-04
  Last DIIS Error            ...    2.5786e-03  Tolerance :   5.0000e-04
  Last Orbital Gradient      ...    2.3540e-04  Tolerance :   1.0000e-04
  Last Orbital Rotation      ...    4.0989e-04  Tolerance :   1.0000e-04


----------------
ORBITAL ENERGIES
----------------

  NO   OCC          E(Eh)            E(eV) 
   0   2.0000     -88.047012     -2395.8810 
   1   2.0000     -88.040111     -2395.6932 
   2   2.0000     -87.993089     -2394.4137 
   3   2.0000     -87.984030     -2394.1672 
   4   2.0000     -76.431543     -2079.8080 
   5   2.0000     -76.421508     -2079.5350 
   6   2.0000     -18.798092      -511.5221 
   7   2.0000     -18.788423      -511.2590 
   8   2.0000     -18.785739      -511.1859 
   9   2.0000     -18.781281      -511.0646 
  10   2.0000      -9.957145      -270.9477 
  11   2.0000      -9.955467      -270.9020 
  12   2.0000      -9.954806      -270.8841 
  13   2.0000      -9.946401      -270.6553 
  14   2.0000      -9.942187      -270.5407 
  15   2.0000      -9.886575      -269.0274 
  16   2.0000      -9.885310      -268.9929 
  17   2.0000      -9.878421      -268.8055 
  18   2.0000      -9.874035      -268.6862 
  19   2.0000      -7.691872      -209.3065 
  20   2.0000      -7.685195      -209.1248 
  21   2.0000      -7.637764      -207.8341 
  22   2.0000      -7.629236      -207.6021 
  23   2.0000      -6.428473      -174.9276 
  24   2.0000      -6.419079      -174.6720 
  25   2.0000      -5.719784      -155.6432 
  26   2.0000      -5.716516      -155.5543 
  27   2.0000      -5.713398      -155.4695 
  28   2.0000      -5.709376      -155.3600 
  29   2.0000      -5.708599      -155.3389 
  30   2.0000      -5.702184      -155.1643 
  31   2.0000      -5.666550      -154.1947 
  32   2.0000      -5.658703      -153.9811 
  33   2.0000      -5.658161      -153.9664 
  34   2.0000      -5.657711      -153.9541 
  35   2.0000      -5.649845      -153.7401 
  36   2.0000      -5.649388      -153.7277 
  37   2.0000      -4.651306      -126.5685 
  38   2.0000      -4.649887      -126.5299 
  39   2.0000      -4.649132      -126.5093 
  40   2.0000      -4.641416      -126.2993 
  41   2.0000      -4.641180      -126.2929 
  42   2.0000      -4.639417      -126.2450 
  43   2.0000      -0.990263       -26.9464 
  44   2.0000      -0.980675       -26.6855 
  45   2.0000      -0.944511       -25.7014 
  46   2.0000      -0.938559       -25.5395 
  47   2.0000      -0.762397       -20.7459 
  48   2.0000      -0.720284       -19.5999 
  49   2.0000      -0.705310       -19.1925 
  50   2.0000      -0.690426       -18.7874 
  51   2.0000      -0.678467       -18.4620 
  52   2.0000      -0.675103       -18.3705 
  53   2.0000      -0.655049       -17.8248 
  54   2.0000      -0.638528       -17.3752 
  55   2.0000      -0.601329       -16.3630 
  56   2.0000      -0.592362       -16.1190 
  57   2.0000      -0.579952       -15.7813 
  58   2.0000      -0.562314       -15.3014 
  59   2.0000      -0.561008       -15.2658 
  60   2.0000      -0.499454       -13.5908 
  61   2.0000      -0.487769       -13.2729 
  62   2.0000      -0.472768       -12.8647 
  63   2.0000      -0.460492       -12.5306 
  64   2.0000      -0.458670       -12.4810 
  65   2.0000      -0.446345       -12.1457 
  66   2.0000      -0.438030       -11.9194 
  67   2.0000      -0.433619       -11.7994 
  68   2.0000      -0.421726       -11.4757 
  69   2.0000      -0.416825       -11.3424 
  70   2.0000      -0.411577       -11.1996 
  71   2.0000      -0.408782       -11.1235 
  72   2.0000      -0.391492       -10.6530 
  73   2.0000      -0.388392       -10.5687 
  74   2.0000      -0.382754       -10.4153 
  75   2.0000      -0.375024       -10.2049 
  76   2.0000      -0.366586        -9.9753 
  77   2.0000      -0.355822        -9.6824 
  78   2.0000      -0.351144        -9.5551 
  79   2.0000      -0.347501        -9.4560 
  80   2.0000      -0.344801        -9.3825 
  81   2.0000      -0.341955        -9.3051 
  82   2.0000      -0.337334        -9.1793 
  83   2.0000      -0.332880        -9.0581 
  84   2.0000      -0.326963        -8.8971 
  85   2.0000      -0.318728        -8.6730 
  86   2.0000      -0.317096        -8.6286 
  87   2.0000      -0.299479        -8.1492 
  88   2.0000      -0.296521        -8.0687 
  89   2.0000      -0.291531        -7.9330 
  90   2.0000      -0.276836        -7.5331 
  91   2.0000      -0.275478        -7.4961 
  92   2.0000      -0.264172        -7.1885 
  93   2.0000      -0.263579        -7.1723 
  94   2.0000      -0.255940        -6.9645 
  95   2.0000      -0.226129        -6.1533 
  96   2.0000      -0.220817        -6.0087 
  97   2.0000      -0.212395        -5.7796 
  98   2.0000      -0.206693        -5.6244 
  99   2.0000      -0.200671        -5.4605 
 100   2.0000      -0.198980        -5.4145 
 101   0.0000      -0.042074        -1.1449 
 102   0.0000      -0.030789        -0.8378 
 103   0.0000      -0.020017        -0.5447 
 104   0.0000       0.003002         0.0817 
 105   0.0000       0.008690         0.2365 
 106   0.0000       0.023867         0.6495 
 107   0.0000       0.032048         0.8721 
 108   0.0000       0.039923         1.0864 
 109   0.0000       0.046982         1.2785 
 110   0.0000       0.052105         1.4178 
 111   0.0000       0.054503         1.4831 
*Only the first 10 virtual orbitals were printed.

                    ********************************
                    * MULLIKEN POPULATION ANALYSIS *
                    ********************************

-----------------------
MULLIKEN ATOMIC CHARGES
-----------------------
   0 C :   -0.307625
   1 C :   -0.003779
   2 O :   -0.385119
   3 P :    0.652540
   4 S :   -0.335071
   5 O :   -0.354018
   6 C :   -0.002409
   7 C :   -0.322238
   8 S :   -0.081926
   9 C :   -0.361596
  10 S :   -0.090622
  11 P :    0.592814
  12 S :   -0.323784
  13 O :   -0.369369
  14 C :   -0.004878
  15 C :   -0.321778
  16 O :   -0.345811
  17 C :   -0.000655
  18 C :   -0.314054
  19 H :    0.117659
  20 H :    0.118124
  21 H :    0.112669
  22 H :    0.110624
  23 H :    0.102742
  24 H :    0.107941
  25 H :    0.108377
  26 H :    0.130829
  27 H :    0.110025
  28 H :    0.126092
  29 H :    0.179898
  30 H :    0.210843
  31 H :    0.111849
  32 H :    0.111539
  33 H :    0.126650
  34 H :    0.124346
  35 H :    0.108023
  36 H :    0.100967
  37 H :    0.109462
  38 H :    0.117453
  39 H :    0.108892
  40 H :    0.124373
Sum of atomic charges:   -0.0000000

--------------------------------
MULLIKEN REDUCED ORBITAL CHARGES
--------------------------------
  0 C s       :     3.101656  s :     3.101656
      pz      :     1.016919  p :     3.177918
      px      :     1.076040
      py      :     1.084959
      dz2     :     0.006430  d :     0.028051
      dxz     :     0.006193
      dyz     :     0.004752
      dx2y2   :     0.006101
      dxy     :     0.004575

  1 C s       :     3.073617  s :     3.073617
      pz      :     0.964710  p :     2.869603
      px      :     0.841768
      py      :     1.063126
      dz2     :     0.012619  d :     0.060558
      dxz     :     0.017177
      dyz     :     0.007916
      dx2y2   :     0.012201
      dxy     :     0.010645

  2 O s       :     3.759359  s :     3.759359
      pz      :     1.672994  p :     4.612854
      px      :     1.259099
      py      :     1.680761
      dz2     :     0.001995  d :     0.012906
      dxz     :     0.002831
      dyz     :     0.001861
      dx2y2   :     0.002367
      dxy     :     0.003851

  3 P s       :     5.188756  s :     5.188756
      pz      :     2.884579  p :     8.574020
      px      :     2.820501
      py      :     2.868940
      dz2     :     0.107187  d :     0.584684
      dxz     :     0.114096
      dyz     :     0.121750
      dx2y2   :     0.113213
      dxy     :     0.128438

  4 S s       :     5.920975  s :     5.920975
      pz      :     3.656013  p :    10.371017
      px      :     3.669487
      py      :     3.045518
      dz2     :     0.006016  d :     0.043079
      dxz     :     0.000930
      dyz     :     0.009593
      dx2y2   :     0.017481
      dxy     :     0.009059

  5 O s       :     3.755297  s :     3.755297
      pz      :     1.229881  p :     4.585477
      px      :     1.642079
      py      :     1.713517
      dz2     :     0.002411  d :     0.013243
      dxz     :     0.004635
      dyz     :     0.002364
      dx2y2   :     0.001838
      dxy     :     0.001995

  6 C s       :     3.076776  s :     3.076776
      pz      :     0.767096  p :     2.865037
      px      :     1.021799
      py      :     1.076143
      dz2     :     0.016155  d :     0.060596
      dxz     :     0.014595
      dyz     :     0.012462
      dx2y2   :     0.005310
      dxy     :     0.012073

  7 C s       :     3.111062  s :     3.111062
      pz      :     1.053280  p :     3.183273
      px      :     1.099472
      py      :     1.030520
      dz2     :     0.006152  d :     0.027904
      dxz     :     0.004788
      dyz     :     0.004336
      dx2y2   :     0.003784
      dxy     :     0.008845

  8 S s       :     5.881027  s :     5.881027
      pz      :     3.336958  p :    10.125322
      px      :     3.490022
      py      :     3.298342
      dz2     :     0.011592  d :     0.075578
      dxz     :     0.012091
      dyz     :     0.021447
      dx2y2   :     0.011753
      dxy     :     0.018694

  9 C s       :     3.216288  s :     3.216288
      pz      :     1.109269  p :     3.105769
      px      :     0.928941
      py      :     1.067558
      dz2     :     0.010570  d :     0.039539
      dxz     :     0.004412
      dyz     :     0.004895
      dx2y2   :     0.009374
      dxy     :     0.010288

 10 S s       :     5.881456  s :     5.881456
      pz      :     3.221922  p :    10.135253
      px      :     3.090035
      py      :     3.823296
      dz2     :     0.027861  d :     0.073913
      dxz     :     0.013699
      dyz     :     0.005331
      dx2y2   :     0.018826
      dxy     :     0.008196

 11 P s       :     5.219954  s :     5.219954
      pz      :     2.904786  p :     8.601047
      px      :     2.857020
      py      :     2.839241
      dz2     :     0.132269  d :     0.586185
      dxz     :     0.098365
      dyz     :     0.098669
      dx2y2   :     0.110874
      dxy     :     0.146009

 12 S s       :     5.918984  s :     5.918984
      pz      :     3.562491  p :    10.362112
      px      :     3.143198
      py      :     3.656423
      dz2     :     0.005392  d :     0.042689
      dxz     :     0.012300
      dyz     :     0.001858
      dx2y2   :     0.013964
      dxy     :     0.009175

 13 O s       :     3.766068  s :     3.766068
      pz      :     1.699779  p :     4.589969
      px      :     1.566348
      py      :     1.323842
      dz2     :     0.001844  d :     0.013332
      dxz     :     0.002398
      dyz     :     0.001856
      dx2y2   :     0.002931
      dxy     :     0.004303

 14 C s       :     3.073701  s :     3.073701
      pz      :     1.065227  p :     2.870821
      px      :     1.073540
      py      :     0.732053
      dz2     :     0.007480  d :     0.060356
      dxz     :     0.012753
      dyz     :     0.013393
      dx2y2   :     0.016732
      dxy     :     0.009998

 15 C s       :     3.104993  s :     3.104993
      pz      :     1.049000  p :     3.188830
      px      :     1.095486
      py      :     1.044344
      dz2     :     0.003028  d :     0.027954
      dxz     :     0.010005
      dyz     :     0.005521
      dx2y2   :     0.006773
      dxy     :     0.002627

 16 O s       :     3.759882  s :     3.759882
      pz      :     1.728840  p :     4.572523
      px      :     1.599203
      py      :     1.244479
      dz2     :     0.001803  d :     0.013407
      dxz     :     0.001918
      dyz     :     0.002356
      dx2y2   :     0.002550
      dxy     :     0.004780

 17 C s       :     3.073815  s :     3.073815
      pz      :     1.073954  p :     2.865984
      px      :     0.985413
      py      :     0.806617
      dz2     :     0.008539  d :     0.060856
      dxz     :     0.012088
      dyz     :     0.012445
      dx2y2   :     0.011218
      dxy     :     0.016566

 18 C s       :     3.106168  s :     3.106168
      pz      :     1.031943  p :     3.179883
      px      :     1.084932
      py      :     1.063008
      dz2     :     0.005130  d :     0.028003
      dxz     :     0.008467
      dyz     :     0.004545
      dx2y2   :     0.003894
      dxy     :     0.005968

 19 H s       :     0.882341  s :     0.882341

 20 H s       :     0.881876  s :     0.881876

 21 H s       :     0.887331  s :     0.887331

 22 H s       :     0.889376  s :     0.889376

 23 H s       :     0.897258  s :     0.897258

 24 H s       :     0.892059  s :     0.892059

 25 H s       :     0.891623  s :     0.891623

 26 H s       :     0.869171  s :     0.869171

 27 H s       :     0.889975  s :     0.889975

 28 H s       :     0.873908  s :     0.873908

 29 H s       :     0.820102  s :     0.820102

 30 H s       :     0.789157  s :     0.789157

 31 H s       :     0.888151  s :     0.888151

 32 H s       :     0.888461  s :     0.888461

 33 H s       :     0.873350  s :     0.873350

 34 H s       :     0.875654  s :     0.875654

 35 H s       :     0.891977  s :     0.891977

 36 H s       :     0.899033  s :     0.899033

 37 H s       :     0.890538  s :     0.890538

 38 H s       :     0.882547  s :     0.882547

 39 H s       :     0.891108  s :     0.891108

 40 H s       :     0.875627  s :     0.875627


------------------------
MULLIKEN OVERLAP CHARGES
------------------------
B(  0-C ,  1-C ) :   0.9324 B(  0-C ,  2-O ) :  -0.0942 B(  0-C , 19-H ) :   0.7317 
B(  0-C , 20-H ) :   0.7299 B(  0-C , 21-H ) :   0.6929 B(  0-C , 22-H ) :  -0.0679 
B(  0-C , 23-H ) :  -0.0512 B(  1-C ,  2-O ) :   0.5706 B(  1-C ,  3-P ) :  -0.0867 
B(  1-C , 22-H ) :   0.7182 B(  1-C , 23-H ) :   0.7229 B(  2-O ,  3-P ) :   0.6187 
B(  2-O ,  4-S ) :  -0.0783 B(  2-O ,  5-O ) :  -0.0727 B(  2-O ,  8-S ) :  -0.0591 
B(  2-O , 22-H ) :  -0.0686 B(  2-O , 23-H ) :  -0.0596 B(  3-P ,  4-S ) :   0.9221 
B(  3-P ,  5-O ) :   0.6707 B(  3-P ,  6-C ) :  -0.0844 B(  3-P ,  8-S ) :   0.5243 
B(  3-P ,  9-C ) :  -0.0627 B(  4-S ,  5-O ) :  -0.0540 B(  4-S ,  8-S ) :  -0.0934 
B(  4-S ,  9-C ) :  -0.0530 B(  4-S , 22-H ) :   0.0687 B(  4-S , 30-H ) :   0.1131 
B(  5-O ,  6-C ) :   0.5625 B(  5-O ,  7-C ) :  -0.1000 B(  5-O ,  8-S ) :  -0.0715 
B(  5-O , 24-H ) :  -0.0608 B(  5-O , 25-H ) :  -0.0575 B(  6-C ,  7-C ) :   0.8973 
B(  6-C , 24-H ) :   0.7346 B(  6-C , 25-H ) :   0.7409 B(  7-C , 24-H ) :  -0.0510 
B(  7-C , 25-H ) :  -0.0731 B(  7-C , 26-H ) :   0.7402 B(  7-C , 27-H ) :   0.6869 
B(  7-C , 28-H ) :   0.7348 B(  8-S ,  9-C ) :   0.4932 B(  8-S , 10-S ) :  -0.1428 
B(  8-S , 29-H ) :  -0.0543 B(  8-S , 30-H ) :  -0.0689 B(  9-C , 10-S ) :   0.3793 
B(  9-C , 29-H ) :   0.7156 B(  9-C , 30-H ) :   0.6323 B( 10-S , 11-P ) :   0.5332 
B( 10-S , 12-S ) :  -0.0727 B( 10-S , 13-O ) :  -0.0886 B( 10-S , 16-O ) :  -0.0685 
B( 10-S , 29-H ) :  -0.0653 B( 11-P , 12-S ) :   0.9277 B( 11-P , 13-O ) :   0.6037 
B( 11-P , 14-C ) :  -0.0953 B( 11-P , 16-O ) :   0.6227 B( 11-P , 17-C ) :  -0.0865 
B( 12-S , 13-O ) :  -0.0593 B( 12-S , 16-O ) :  -0.0671 B( 12-S , 31-H ) :   0.0630 
B( 12-S , 37-H ) :   0.0683 B( 13-O , 14-C ) :   0.5584 B( 13-O , 15-C ) :  -0.0814 
B( 13-O , 16-O ) :  -0.0657 B( 13-O , 31-H ) :  -0.0633 B( 13-O , 32-H ) :  -0.0663 
B( 14-C , 15-C ) :   0.9215 B( 14-C , 31-H ) :   0.7219 B( 14-C , 32-H ) :   0.7003 
B( 15-C , 31-H ) :  -0.0623 B( 15-C , 33-H ) :   0.7336 B( 15-C , 34-H ) :   0.7209 
B( 15-C , 35-H ) :   0.6938 B( 16-O , 17-C ) :   0.5813 B( 16-O , 18-C ) :  -0.0914 
B( 16-O , 36-H ) :  -0.0619 B( 16-O , 37-H ) :  -0.0668 B( 17-C , 18-C ) :   0.9186 
B( 17-C , 36-H ) :   0.7253 B( 17-C , 37-H ) :   0.7201 B( 18-C , 36-H ) :  -0.0533 
B( 18-C , 37-H ) :  -0.0665 B( 18-C , 38-H ) :   0.7360 B( 18-C , 39-H ) :   0.6899 
B( 18-C , 40-H ) :   0.7269 B( 19-H , 20-H ) :  -0.0550 B( 22-H , 23-H ) :  -0.0639 
B( 24-H , 25-H ) :  -0.0722 B( 26-H , 28-H ) :  -0.0513 B( 31-H , 32-H ) :  -0.0688 
B( 36-H , 37-H ) :  -0.0673 B( 38-H , 40-H ) :  -0.0513 


                     *******************************
                     * LOEWDIN POPULATION ANALYSIS *
                     *******************************

----------------------
LOEWDIN ATOMIC CHARGES
----------------------
   0 C :   -0.368477
   1 C :   -0.121643
   2 O :   -0.249578
   3 P :    0.584475
   4 S :   -0.298073
   5 O :   -0.227393
   6 C :   -0.110525
   7 C :   -0.366636
   8 S :    0.107687
   9 C :   -0.482882
  10 S :    0.077441
  11 P :    0.567167
  12 S :   -0.319481
  13 O :   -0.238752
  14 C :   -0.126078
  15 C :   -0.369359
  16 O :   -0.232049
  17 C :   -0.118492
  18 C :   -0.369438
  19 H :    0.124504
  20 H :    0.118812
  21 H :    0.130633
  22 H :    0.108670
  23 H :    0.117216
  24 H :    0.121037
  25 H :    0.111671
  26 H :    0.129761
  27 H :    0.129379
  28 H :    0.121185
  29 H :    0.138322
  30 H :    0.121764
  31 H :    0.108673
  32 H :    0.113743
  33 H :    0.121754
  34 H :    0.119857
  35 H :    0.130122
  36 H :    0.117069
  37 H :    0.108574
  38 H :    0.120960
  39 H :    0.128532
  40 H :    0.119848

-------------------------------
LOEWDIN REDUCED ORBITAL CHARGES
-------------------------------
  0 C s       :     2.953424  s :     2.953424
      pz      :     1.076572  p :     3.345732
      px      :     1.135867
      py      :     1.133293
      dz2     :     0.018434  d :     0.069322
      dxz     :     0.014821
      dyz     :     0.010433
      dx2y2   :     0.014623
      dxy     :     0.011011

  1 C s       :     2.927140  s :     2.927140
      pz      :     1.029570  p :     3.058820
      px      :     0.909544
      py      :     1.119706
      dz2     :     0.032701  d :     0.135683
      dxz     :     0.036534
      dyz     :     0.015583
      dx2y2   :     0.027387
      dxy     :     0.023479

  2 O s       :     3.498549  s :     3.498549
      pz      :     1.672893  p :     4.727136
      px      :     1.342439
      py      :     1.711805
      dz2     :     0.003532  d :     0.023893
      dxz     :     0.005622
      dyz     :     0.002290
      dx2y2   :     0.004458
      dxy     :     0.007991

  3 P s       :     5.059156  s :     5.059156
      pz      :     2.845493  p :     8.547086
      px      :     2.790398
      py      :     2.911195
      dz2     :     0.149181  d :     0.809283
      dxz     :     0.158527
      dyz     :     0.164551
      dx2y2   :     0.158873
      dxy     :     0.178151

  4 S s       :     5.763024  s :     5.763024
      pz      :     3.661857  p :    10.477701
      px      :     3.662515
      py      :     3.153328
      dz2     :     0.008891  d :     0.057348
      dxz     :     0.000843
      dyz     :     0.011062
      dx2y2   :     0.026477
      dxy     :     0.010075

  5 O s       :     3.497041  s :     3.497041
      pz      :     1.314626  p :     4.706397
      px      :     1.668386
      py      :     1.723386
      dz2     :     0.005357  d :     0.023955
      dxz     :     0.009121
      dyz     :     0.004900
      dx2y2   :     0.002033
      dxy     :     0.002544

  6 C s       :     2.925517  s :     2.925517
      pz      :     0.853583  p :     3.050318
      px      :     1.085344
      py      :     1.111390
      dz2     :     0.034466  d :     0.134691
      dxz     :     0.031373
      dyz     :     0.028534
      dx2y2   :     0.013056
      dxy     :     0.027262

  7 C s       :     2.953252  s :     2.953252
      pz      :     1.117410  p :     3.344307
      px      :     1.137766
      py      :     1.089131
      dz2     :     0.015146  d :     0.069077
      dxz     :     0.011439
      dyz     :     0.011804
      dx2y2   :     0.010351
      dxy     :     0.020337

  8 S s       :     5.639045  s :     5.639045
      pz      :     3.324394  p :    10.157953
      px      :     3.486198
      py      :     3.347361
      dz2     :     0.013874  d :     0.095315
      dxz     :     0.016745
      dyz     :     0.027182
      dx2y2   :     0.012836
      dxy     :     0.024678

  9 C s       :     3.062321  s :     3.062321
      pz      :     1.155317  p :     3.332985
      px      :     1.047021
      py      :     1.130646
      dz2     :     0.024346  d :     0.087577
      dxz     :     0.008936
      dyz     :     0.010694
      dx2y2   :     0.021484
      dxy     :     0.022116

 10 S s       :     5.647216  s :     5.647216
      pz      :     3.241450  p :    10.181488
      px      :     3.141193
      py      :     3.798846
      dz2     :     0.036115  d :     0.093855
      dxz     :     0.016261
      dyz     :     0.006222
      dx2y2   :     0.025898
      dxy     :     0.009360

 11 P s       :     5.061530  s :     5.061530
      pz      :     2.901608  p :     8.557782
      px      :     2.875699
      py      :     2.780475
      dz2     :     0.192089  d :     0.813521
      dxz     :     0.132675
      dyz     :     0.130861
      dx2y2   :     0.149450
      dxy     :     0.208447

 12 S s       :     5.764415  s :     5.764415
      pz      :     3.595251  p :    10.497138
      px      :     3.242235
      py      :     3.659652
      dz2     :     0.006755  d :     0.057928
      dxz     :     0.017111
      dyz     :     0.002215
      dx2y2   :     0.020909
      dxy     :     0.010938

 13 O s       :     3.505517  s :     3.505517
      pz      :     1.711799  p :     4.709165
      px      :     1.623826
      py      :     1.373540
      dz2     :     0.002975  d :     0.024070
      dxz     :     0.003618
      dyz     :     0.003705
      dx2y2   :     0.005360
      dxy     :     0.008413

 14 C s       :     2.928512  s :     2.928512
      pz      :     1.096926  p :     3.063140
      px      :     1.136349
      py      :     0.829866
      dz2     :     0.015299  d :     0.134425
      dxz     :     0.029413
      dyz     :     0.033013
      dx2y2   :     0.036652
      dxy     :     0.020047

 15 C s       :     2.952928  s :     2.952928
      pz      :     1.104332  p :     3.347279
      px      :     1.136464
      py      :     1.106484
      dz2     :     0.007641  d :     0.069151
      dxz     :     0.023365
      dyz     :     0.015533
      dx2y2   :     0.016727
      dxy     :     0.005885

 16 O s       :     3.502761  s :     3.502761
      pz      :     1.737426  p :     4.705074
      px      :     1.643861
      py      :     1.323787
      dz2     :     0.002898  d :     0.024214
      dxz     :     0.002390
      dyz     :     0.004631
      dx2y2   :     0.004523
      dxy     :     0.009773

 17 C s       :     2.926594  s :     2.926594
      pz      :     1.111677  p :     3.056478
      px      :     1.053600
      py      :     0.891201
      dz2     :     0.020304  d :     0.135419
      dxz     :     0.027245
      dyz     :     0.028499
      dx2y2   :     0.022981
      dxy     :     0.036390

 18 C s       :     2.954141  s :     2.954141
      pz      :     1.091252  p :     3.346081
      px      :     1.132162
      py      :     1.122667
      dz2     :     0.013902  d :     0.069216
      dxz     :     0.019807
      dyz     :     0.011819
      dx2y2   :     0.009316
      dxy     :     0.014372

 19 H s       :     0.875496  s :     0.875496

 20 H s       :     0.881188  s :     0.881188

 21 H s       :     0.869367  s :     0.869367

 22 H s       :     0.891330  s :     0.891330

 23 H s       :     0.882784  s :     0.882784

 24 H s       :     0.878963  s :     0.878963

 25 H s       :     0.888329  s :     0.888329

 26 H s       :     0.870239  s :     0.870239

 27 H s       :     0.870621  s :     0.870621

 28 H s       :     0.878815  s :     0.878815

 29 H s       :     0.861678  s :     0.861678

 30 H s       :     0.878236  s :     0.878236

 31 H s       :     0.891327  s :     0.891327

 32 H s       :     0.886257  s :     0.886257

 33 H s       :     0.878246  s :     0.878246

 34 H s       :     0.880143  s :     0.880143

 35 H s       :     0.869878  s :     0.869878

 36 H s       :     0.882931  s :     0.882931

 37 H s       :     0.891426  s :     0.891426

 38 H s       :     0.879040  s :     0.879040

 39 H s       :     0.871468  s :     0.871468

 40 H s       :     0.880152  s :     0.880152


---------------------------------
LOEWDIN BOND ORDERS (THRESH 0.050000)
---------------------------------
B(  0-C ,  1-C ) :   1.1564 B(  0-C ,  2-O ) :   0.0580 B(  0-C , 19-H ) :   0.9354 
B(  0-C , 20-H ) :   0.9301 B(  0-C , 21-H ) :   0.9251 B(  1-C ,  2-O ) :   1.0963 
B(  1-C ,  3-P ) :   0.0627 B(  1-C , 22-H ) :   0.9060 B(  1-C , 23-H ) :   0.9167 
B(  2-O ,  3-P ) :   1.2478 B(  2-O ,  4-S ) :   0.0883 B(  2-O ,  5-O ) :   0.0565 
B(  2-O ,  8-S ) :   0.0573 B(  3-P ,  4-S ) :   1.6727 B(  3-P ,  5-O ) :   1.2998 
B(  3-P ,  6-C ) :   0.0609 B(  3-P ,  8-S ) :   1.0789 B(  4-S ,  5-O ) :   0.0822 
B(  4-S ,  8-S ) :   0.1370 B(  4-S , 30-H ) :   0.0725 B(  5-O ,  6-C ) :   1.0863 
B(  5-O ,  7-C ) :   0.0581 B(  6-C ,  7-C ) :   1.1579 B(  6-C , 24-H ) :   0.9167 
B(  6-C , 25-H ) :   0.9152 B(  7-C , 26-H ) :   0.9345 B(  7-C , 27-H ) :   0.9254 
B(  7-C , 28-H ) :   0.9278 B(  8-S ,  9-C ) :   1.1730 B(  8-S , 10-S ) :   0.0936 
B(  9-C , 10-S ) :   1.1601 B(  9-C , 29-H ) :   0.9235 B(  9-C , 30-H ) :   0.8933 
B( 10-S , 11-P ) :   1.0587 B( 10-S , 12-S ) :   0.1062 B( 10-S , 13-O ) :   0.0710 
B( 10-S , 16-O ) :   0.0711 B( 11-P , 12-S ) :   1.7542 B( 11-P , 13-O ) :   1.2576 
B( 11-P , 14-C ) :   0.0680 B( 11-P , 16-O ) :   1.2763 B( 11-P , 17-C ) :   0.0672 
B( 12-S , 13-O ) :   0.0893 B( 12-S , 16-O ) :   0.0934 B( 13-O , 14-C ) :   1.0823 
B( 13-O , 15-C ) :   0.0584 B( 14-C , 15-C ) :   1.1548 B( 14-C , 31-H ) :   0.9075 
B( 14-C , 32-H ) :   0.9093 B( 15-C , 33-H ) :   0.9318 B( 15-C , 34-H ) :   0.9269 
B( 15-C , 35-H ) :   0.9252 B( 16-O , 17-C ) :   1.0936 B( 16-O , 18-C ) :   0.0585 
B( 17-C , 18-C ) :   1.1556 B( 17-C , 36-H ) :   0.9167 B( 17-C , 37-H ) :   0.9072 
B( 18-C , 38-H ) :   0.9340 B( 18-C , 39-H ) :   0.9259 B( 18-C , 40-H ) :   0.9296 


------------------------------------------
LOEWDIN REDUCED ORBITAL POPULATIONS PER MO
-------------------------------------------
THRESHOLD FOR PRINTING IS 0.1%%
                      0         1         2         3         4         5   
                 -88.04701 -88.04011 -87.99309 -87.98403 -76.43154 -76.42151
                   2.00000   2.00000   2.00000   2.00000   2.00000   2.00000
                  --------  --------  --------  --------  --------  --------
 3 P  s               0.0       0.0       0.0       0.0     100.0       0.0
 4 S  s               0.0       0.0     100.0       0.0       0.0       0.0
 8 S  s             100.0       0.0       0.0       0.0       0.0       0.0
10 S  s               0.0     100.0       0.0       0.0       0.0       0.0
11 P  s               0.0       0.0       0.0       0.0       0.0     100.0
12 S  s               0.0       0.0       0.0     100.0       0.0       0.0

                      6         7         8         9        10        11   
                 -18.79809 -18.78842 -18.78574 -18.78128  -9.95714  -9.95547
                   2.00000   2.00000   2.00000   2.00000   2.00000   2.00000
                  --------  --------  --------  --------  --------  --------
 2 O  s              99.9       0.0       0.0       0.0       0.0       0.0
 5 O  s               0.0      99.9       0.0       0.0       0.0       0.0
 6 C  s               0.0       0.0       0.0       0.0       0.0      99.6
 9 C  s               0.0       0.0       0.0       0.0      99.8       0.0
13 O  s               0.0       0.0      99.9       0.0       0.0       0.0
16 O  s               0.0       0.0       0.0      99.9       0.0       0.0

                     12        13        14        15        16        17   
                  -9.95481  -9.94640  -9.94219  -9.88657  -9.88531  -9.87842
                   2.00000   2.00000   2.00000   2.00000   2.00000   2.00000
                  --------  --------  --------  --------  --------  --------
 0 C  s               0.0       0.0       0.0      99.7       0.0       0.0
 0 C  pz              0.1       0.0       0.0       0.0       0.0       0.0
 1 C  s              99.6       0.0       0.0       0.0       0.0       0.0
 1 C  pz              0.0       0.0       0.0       0.1       0.0       0.0
 7 C  s               0.0       0.0       0.0       0.0      99.7       0.0
14 C  s               0.0       0.0      99.7       0.0       0.0       0.0
17 C  s               0.0      99.7       0.0       0.0       0.0       0.0
18 C  s               0.0       0.0       0.0       0.0       0.0      99.7

                     18        19        20        21        22        23   
                  -9.87403  -7.69187  -7.68520  -7.63776  -7.62924  -6.42847
                   2.00000   2.00000   2.00000   2.00000   2.00000   2.00000
                  --------  --------  --------  --------  --------  --------
 2 O  px              0.0       0.0       0.0       0.0       0.0       0.2
 3 P  s               0.0       0.0       0.0       0.0       0.0      99.3
 3 P  py              0.0       0.0       0.0       0.1       0.0       0.0
 4 S  s               0.0       0.0       0.0      99.9       0.0       0.0
 4 S  py              0.0       0.0       0.0       0.0       0.0       0.1
 5 O  pz              0.0       0.0       0.0       0.0       0.0       0.2
 8 S  s               0.0      99.7       0.0       0.0       0.0       0.0
 9 C  px              0.0       0.0       0.2       0.0       0.0       0.0
10 S  s               0.0       0.0      99.7       0.0       0.0       0.0
12 S  s               0.0       0.0       0.0       0.0      99.9       0.0
15 C  s              99.7       0.0       0.0       0.0       0.0       0.0

                     24        25        26        27        28        29   
                  -6.41908  -5.71978  -5.71652  -5.71340  -5.70938  -5.70860
                   2.00000   2.00000   2.00000   2.00000   2.00000   2.00000
                  --------  --------  --------  --------  --------  --------
 8 S  pz              0.0      60.9       4.1       0.0       0.0      35.0
 8 S  px              0.0      38.0       0.8       0.0       0.0      61.3
 8 S  py              0.0       1.1      95.1       0.0       0.0       3.7
10 S  pz              0.0       0.0       0.0      45.5      54.4       0.0
10 S  px              0.0       0.0       0.0      54.4      45.6       0.0
11 P  s              99.3       0.0       0.0       0.0       0.0       0.0
13 O  px              0.1       0.0       0.0       0.0       0.0       0.0
16 O  py              0.2       0.0       0.0       0.0       0.0       0.0

                     30        31        32        33        34        35   
                  -5.70218  -5.66655  -5.65870  -5.65816  -5.65771  -5.64984
                   2.00000   2.00000   2.00000   2.00000   2.00000   2.00000
                  --------  --------  --------  --------  --------  --------
 4 S  pz              0.0       0.4      80.1       0.0      19.4       0.0
 4 S  px              0.0       2.5      19.8       0.0      77.7       0.0
 4 S  py              0.0      97.1       0.0       0.0       2.9       0.0
10 S  py             99.9       0.0       0.0       0.0       0.0       0.0
12 S  pz              0.0       0.0       0.0      18.6       0.0      28.5
12 S  px              0.0       0.0       0.0      78.7       0.0      15.8
12 S  py              0.0       0.0       0.0       2.7       0.0      55.7

                     36        37        38        39        40        41   
                  -5.64939  -4.65131  -4.64989  -4.64913  -4.64142  -4.64118
                   2.00000   2.00000   2.00000   2.00000   2.00000   2.00000
                  --------  --------  --------  --------  --------  --------
 3 P  pz              0.0      11.9      85.5       2.6       0.0       0.0
 3 P  px              0.0      86.7      10.0       3.2       0.0       0.0
 3 P  py              0.0       1.3       4.5      94.2       0.0       0.0
11 P  pz              0.0       0.0       0.0       0.0      25.2      10.2
11 P  px              0.0       0.0       0.0       0.0      56.7       8.7
11 P  py              0.0       0.0       0.0       0.0      18.0      81.0
12 S  pz             53.0       0.0       0.0       0.0       0.0       0.0
12 S  px              5.5       0.0       0.0       0.0       0.0       0.0
12 S  py             41.6       0.0       0.0       0.0       0.0       0.0

                     42        43        44        45        46        47   
                  -4.63942  -0.99026  -0.98067  -0.94451  -0.93856  -0.76240
                   2.00000   2.00000   2.00000   2.00000   2.00000   2.00000
                  --------  --------  --------  --------  --------  --------
 0 C  s               0.0       0.2       0.0       0.3       0.0       0.1
 0 C  pz              0.0       0.4       0.0       0.5       0.0       0.0
 1 C  s               0.0       3.5       0.2       4.5       0.0       0.4
 1 C  pz              0.0       0.9       0.1       0.9       0.0       0.0
 1 C  px              0.0       2.8       0.2       2.6       0.0       0.0
 1 C  py              0.0       0.2       0.0       0.3       0.0       0.0
 1 C  dxz             0.0       0.2       0.0       0.2       0.0       0.0
 1 C  dx2y2           0.0       0.1       0.0       0.1       0.0       0.0
 2 O  s               0.0      30.4       1.8      27.0       0.0       0.2
 2 O  pz              0.0       0.3       0.0       0.6       0.0       0.0
 2 O  px              0.0       0.4       0.0       0.2       0.0       0.6
 2 O  py              0.0       0.8       0.0       0.5       0.0       0.0
 3 P  s               0.0      13.5       0.4       0.1       0.0       3.6
 3 P  pz              0.0       2.0       0.0       3.1       0.0       1.8
 3 P  px              0.0       0.8       0.3       7.2       0.0       0.8
 3 P  py              0.0       2.1       0.1       0.0       0.0       0.0
 3 P  dz2             0.0       0.0       0.0       1.3       0.0       0.0
 3 P  dxz             0.0       0.2       0.0       0.6       0.0       0.1
 3 P  dyz             0.0       0.3       0.0       0.3       0.0       0.1
 3 P  dx2y2           0.0       0.3       0.0       0.3       0.0       0.0
 3 P  dxy             0.0       0.2       0.0       1.0       0.0       0.1
 4 S  s               0.0       0.3       0.0       0.0       0.0       0.8
 4 S  py              0.0       0.4       0.0       0.0       0.0       0.3
 5 O  s               0.0      24.3       0.4      33.9       0.1       0.2
 5 O  pz              0.0       0.2       0.0       0.1       0.0       1.0
 5 O  px              0.0       1.3       0.1       0.8       0.0       0.0
 5 O  py              0.0       0.2       0.0       0.1       0.0       0.0
 6 C  s               0.0       3.0       0.1       4.8       0.0       0.8
 6 C  pz              0.0       3.0       0.1       3.4       0.0       0.0
 6 C  px              0.0       0.3       0.0       0.8       0.0       0.0
 6 C  dz2             0.0       0.2       0.0       0.2       0.0       0.0
 6 C  dxz             0.0       0.1       0.0       0.2       0.0       0.0
 7 C  s               0.0       0.2       0.0       0.4       0.0       0.2
 7 C  pz              0.0       0.2       0.0       0.2       0.0       0.0
 7 C  py              0.0       0.2       0.0       0.3       0.0       0.1
 8 S  s               0.0       0.3       0.0       0.0       0.0      21.9
 8 S  pz              0.0       0.2       0.0       0.0       0.0       0.0
 8 S  px              0.0       0.1       0.0       0.0       0.0       0.3
 8 S  py              0.0       0.1       0.0       0.0       0.0       2.5
 8 S  dxz             0.0       0.0       0.0       0.0       0.0       0.1
 9 C  s               0.0       0.0       0.0       0.0       0.0      26.2
 9 C  pz              0.0       0.0       0.0       0.0       0.0       0.8
 9 C  px              0.0       0.0       0.0       0.0       0.0       0.2
 9 C  py              0.0       0.0       0.0       0.0       0.0       1.3
10 S  s               0.0       0.0       0.3       0.0       0.0      15.4
10 S  pz              0.0       0.0       0.4       0.0       0.0       0.1
10 S  px              0.0       0.0       0.0       0.0       0.0       2.5
10 S  dx2y2           0.0       0.0       0.0       0.0       0.0       0.2
11 P  s               0.0       0.5      13.7       0.0       0.0       1.4
11 P  pz             64.6       0.0       1.1       0.0       0.0       1.7
11 P  px             34.6       0.2       3.7       0.0       0.4       0.0
11 P  py              0.9       0.0       0.2       0.0      10.0       0.0
11 P  dz2             0.0       0.0       0.4       0.0       0.0       0.2
11 P  dxz             0.0       0.0       0.3       0.0       0.1       0.0
11 P  dyz             0.0       0.0       0.0       0.0       0.8       0.0
11 P  dx2y2           0.0       0.0       0.1       0.0       0.5       0.0
[...]
                   3.17490   3.22543   3.23354   3.24083
                   0.00000   0.00000   0.00000   0.00000
                  --------  --------  --------  --------
 1 C  s               0.3       0.9       0.2       0.1
 1 C  pz              0.1       0.5       0.1       0.1
 1 C  px              0.3       1.0       0.3       0.1
 1 C  dz2             0.1       0.1       0.0       0.0
 1 C  dxz             0.6       2.5       0.6       0.3
 1 C  dyz             0.0       0.2       0.0       0.0
 1 C  dx2y2           0.6       1.4       0.3       0.2
 1 C  dxy             0.1       0.8       0.2       0.1
 2 O  s               0.1       0.4       0.1       0.0
 2 O  pz              0.2       0.4       0.1       0.0
 2 O  px              1.8       2.9       0.7       0.4
 2 O  dz2             1.7       0.6       0.2       0.1
 2 O  dxz             3.9      17.3       4.4       2.0
 2 O  dyz             0.7       1.1       0.3       0.1
 2 O  dx2y2           0.4       1.6       0.4       0.1
 2 O  dxy             8.0      14.2       3.8       1.8
 3 P  s               0.5       0.0       0.0       0.0
 3 P  pz              0.1       0.5       0.2       0.1
 3 P  px              0.7       1.0       0.3       0.1
 3 P  py              0.1       0.0       0.0       0.0
 3 P  dz2             0.0       0.5       0.2       0.1
 3 P  dyz             0.0       0.3       0.1       0.0
 3 P  dx2y2           0.0       0.3       0.1       0.1
 3 P  dxy             0.5       0.1       0.0       0.0
 5 O  s               3.8       0.1       0.0       0.0
 5 O  pz              2.3       1.4       0.9       0.4
 5 O  px              0.4       0.0       0.0       0.0
 5 O  dz2            32.8       0.1       0.3       0.1
 5 O  dxz            21.1      12.5       6.7       2.9
 5 O  dyz             1.0       1.4       0.6       0.3
 5 O  dx2y2           1.4       0.0       0.0       0.0
 5 O  dxy             0.0       0.7       0.3       0.1
 6 C  s               1.5       0.2       0.2       0.1
 6 C  pz              2.4       0.3       0.2       0.1
 6 C  px              0.5       0.0       0.0       0.0
 6 C  dz2             5.2       0.8       0.6       0.2
 6 C  dxz             4.5       0.2       0.2       0.1
 6 C  dyz             0.1       0.0       0.0       0.0
 6 C  dx2y2           0.5       0.0       0.0       0.0
 7 C  dyz             0.3       0.0       0.0       0.0
11 P  s               0.0       0.0       0.2       0.0
11 P  px              0.0       0.0       0.0       0.2
11 P  py              0.0       0.1       0.4       2.8
11 P  dyz             0.0       0.0       0.0       0.5
11 P  dx2y2           0.0       0.1       0.7       0.1
11 P  dxy             0.0       0.2       0.0       1.3
13 O  s               0.0       0.5       1.3       0.0
13 O  pz              0.0       0.1       0.0       0.6
13 O  px              0.0       0.0       0.0       0.3
13 O  py              0.0       1.0       0.3       4.2
13 O  dz2             0.1       1.6       3.5       0.6
13 O  dxz             0.0       0.5       0.0       5.1
13 O  dyz             0.0       1.4       2.7       0.3
13 O  dx2y2           0.2      10.7       6.7      15.7
13 O  dxy             0.1       2.6       0.0      20.9
14 C  s               0.0       0.4       0.3       1.0
14 C  py              0.0       0.7       0.5       1.5
14 C  dz2             0.0       0.4       0.4       0.6
14 C  dyz             0.0       0.6       0.4       1.2
14 C  dx2y2           0.0       1.4       0.8       3.0
14 C  dxy             0.0       0.3       0.4       0.1
16 O  s               0.0       0.6       1.1       0.1
16 O  pz              0.0       0.0       0.1       0.1
16 O  px              0.0       0.1       0.2       0.0
16 O  py              0.0       0.1       3.1       2.9
16 O  dz2             0.1       2.2       6.1       0.0
16 O  dxz             0.0       0.0       0.5       0.7
16 O  dyz             0.0       0.2       0.3       2.6
16 O  dx2y2           0.1       2.2       2.5       1.1
16 O  dxy             0.1       2.5      33.5      18.6
17 C  s               0.0       0.1       1.2       0.4
17 C  px              0.0       0.1       0.6       0.1
17 C  py              0.0       0.2       1.5       0.5
17 C  dz2             0.0       0.3       1.8       0.3
17 C  dx2y2           0.0       0.0       1.0       0.7
17 C  dxy             0.0       0.7       4.1       0.7
18 C  dyz             0.0       0.0       0.1       0.0


                      *****************************
                      * MAYER POPULATION ANALYSIS *
                      *****************************

  NA   - Mulliken gross atomic population
  ZA   - Total nuclear charge
  QA   - Mulliken gross atomic charge
  VA   - Mayer's total valence
  BVA  - Mayer's bonded valence
  FA   - Mayer's free valence

  ATOM       NA         ZA         QA         VA         BVA        FA
  0 C      6.3076     6.0000    -0.3076     3.9965     3.9965    -0.0000
  1 C      6.0038     6.0000    -0.0038     4.0049     4.0049     0.0000
  2 O      8.3851     8.0000    -0.3851     2.1773     2.1773     0.0000
  3 P     14.3475    15.0000     0.6525     4.9359     4.9359    -0.0000
  4 S     16.3351    16.0000    -0.3351     2.0854     2.0854    -0.0000
  5 O      8.3540     8.0000    -0.3540     2.2021     2.2021     0.0000
  6 C      6.0024     6.0000    -0.0024     4.0296     4.0296    -0.0000
  7 C      6.3222     6.0000    -0.3222     3.9971     3.9971    -0.0000
  8 S     16.0819    16.0000    -0.0819     2.3144     2.3144     0.0000
  9 C      6.3616     6.0000    -0.3616     3.8244     3.8244     0.0000
 10 S     16.0906    16.0000    -0.0906     2.2414     2.2414     0.0000
 11 P     14.4072    15.0000     0.5928     4.9489     4.9489    -0.0000
 12 S     16.3238    16.0000    -0.3238     2.0318     2.0318    -0.0000
 13 O      8.3694     8.0000    -0.3694     2.1862     2.1862     0.0000
 14 C      6.0049     6.0000    -0.0049     3.9787     3.9787     0.0000
 15 C      6.3218     6.0000    -0.3218     4.0042     4.0042    -0.0000
 16 O      8.3458     8.0000    -0.3458     2.1987     2.1987    -0.0000
 17 C      6.0007     6.0000    -0.0007     4.0031     4.0031     0.0000
 18 C      6.3141     6.0000    -0.3141     3.9959     3.9959    -0.0000
 19 H      0.8823     1.0000     0.1177     0.9639     0.9639     0.0000
 20 H      0.8819     1.0000     0.1181     0.9820     0.9820     0.0000
 21 H      0.8873     1.0000     0.1127     0.9543     0.9543     0.0000
 22 H      0.8894     1.0000     0.1106     0.9841     0.9841    -0.0000
 23 H      0.8973     1.0000     0.1027     0.9490     0.9490    -0.0000
 24 H      0.8921     1.0000     0.1079     0.9478     0.9478    -0.0000
 25 H      0.8916     1.0000     0.1084     0.9623     0.9623    -0.0000
 26 H      0.8692     1.0000     0.1308     0.9601     0.9601     0.0000
 27 H      0.8900     1.0000     0.1100     0.9531     0.9531     0.0000
 28 H      0.8739     1.0000     0.1261     0.9808     0.9808     0.0000
 29 H      0.8201     1.0000     0.1799     0.9325     0.9325    -0.0000
 30 H      0.7892     1.0000     0.2108     0.9798     0.9798    -0.0000
 31 H      0.8882     1.0000     0.1118     0.9798     0.9798    -0.0000
 32 H      0.8885     1.0000     0.1115     0.9665     0.9665    -0.0000
 33 H      0.8734     1.0000     0.1266     0.9696     0.9696    -0.0000
 34 H      0.8757     1.0000     0.1243     0.9819     0.9819    -0.0000
 35 H      0.8920     1.0000     0.1080     0.9559     0.9559    -0.0000
 36 H      0.8990     1.0000     0.1010     0.9503     0.9503     0.0000
 37 H      0.8905     1.0000     0.1095     0.9835     0.9835     0.0000
 38 H      0.8825     1.0000     0.1175     0.9716     0.9716    -0.0000
 39 H      0.8911     1.0000     0.1089     0.9542     0.9542    -0.0000
 40 H      0.8756     1.0000     0.1244     0.9743     0.9743    -0.0000

  Mayer bond orders larger than 0.100000
B(  0-C ,  1-C ) :   1.1677 B(  0-C , 19-H ) :   0.9443 B(  0-C , 20-H ) :   0.9385 
B(  0-C , 21-H ) :   0.9378 B(  1-C ,  2-O ) :   0.9136 B(  1-C , 22-H ) :   0.9127 
B(  1-C , 23-H ) :   0.9330 B(  2-O ,  3-P ) :   1.0756 B(  3-P ,  4-S ) :   1.5672 
B(  3-P ,  5-O ) :   1.1392 B(  3-P ,  8-S ) :   0.9733 B(  4-S ,  8-S ) :   0.1215 
B(  4-S , 30-H ) :   0.1002 B(  5-O ,  6-C ) :   0.9133 B(  6-C ,  7-C ) :   1.1649 
B(  6-C , 24-H ) :   0.9332 B(  6-C , 25-H ) :   0.9269 B(  7-C , 26-H ) :   0.9431 
B(  7-C , 27-H ) :   0.9366 B(  7-C , 28-H ) :   0.9358 B(  8-S ,  9-C ) :   1.0150 
B(  9-C , 10-S ) :   0.9805 B(  9-C , 29-H ) :   0.9099 B(  9-C , 30-H ) :   0.8465 
B( 10-S , 11-P ) :   0.9679 B( 11-P , 12-S ) :   1.6341 B( 11-P , 13-O ) :   1.0907 
B( 11-P , 16-O ) :   1.1079 B( 13-O , 14-C ) :   0.8992 B( 14-C , 15-C ) :   1.1714 
B( 14-C , 31-H ) :   0.9151 B( 14-C , 32-H ) :   0.9141 B( 15-C , 33-H ) :   0.9361 
B( 15-C , 34-H ) :   0.9340 B( 15-C , 35-H ) :   0.9383 B( 16-O , 17-C ) :   0.9168 
B( 17-C , 18-C ) :   1.1631 B( 17-C , 36-H ) :   0.9333 B( 17-C , 37-H ) :   0.9150 
B( 18-C , 38-H ) :   0.9430 B( 18-C , 39-H ) :   0.9384 B( 18-C , 40-H ) :   0.9379 


-------
TIMINGS
-------

Total SCF time: 0 days 0 hours 0 min 17 sec 

Total time                  ....      17.439 sec
Sum of individual times     ....      16.978 sec  ( 97.4%)

SCF preparation             ....       0.229 sec  (  1.3%)
Fock matrix formation       ....      15.619 sec  ( 89.6%)
  Startup                   ....       0.076 sec  (  0.5% of F)
  Split-RI-J                ....       9.259 sec  ( 59.3% of F)
  XC integration            ....       5.788 sec  ( 37.1% of F)
    XC Preparation          ....       0.000 sec  (  0.0% of XC)
    Basis function eval.    ....       2.190 sec  ( 37.8% of XC)
    Density eval.           ....       1.179 sec  ( 20.4% of XC)
    XC-Functional eval.     ....       0.411 sec  (  7.1% of XC)
    XC-Potential eval.      ....       1.317 sec  ( 22.7% of XC)
Diagonalization             ....       0.000 sec  (  0.0%)
Density matrix formation    ....       0.226 sec  (  1.3%)
Total Energy calculation    ....       0.030 sec  (  0.2%)
Population analysis         ....       0.202 sec  (  1.2%)
Orbital Transformation      ....       0.088 sec  (  0.5%)
Orbital Orthonormalization  ....       0.000 sec  (  0.0%)
DIIS solution               ....       0.454 sec  (  2.6%)
  MO trafo                  ....       0.000 sec  (  0.0 % of DIIS)
  Orb grad                  ....       0.000 sec  (  0.0 % of DIIS)
  Energy W gradient         ....       0.000 sec  (  0.0 % of DIIS)
  DIIS error                ....       0.021 sec  (  4.6 % of DIIS)
  DIIS work                 ....       0.372 sec  ( 82.0 % of DIIS)
  Form Q                    ....       0.000 sec  (  0.0 % of DIIS)
  Form QpQm                 ....       0.000 sec  (  0.0 % of DIIS)
  Exp/Cayley                ....       0.000 sec  (  0.0 % of DIIS)
  Orb update                ....       0.000 sec  (  0.0 % of DIIS)
  Wake-sleep                ....       0.013 sec  (  2.9 % of DIIS)
SOSCF solution              ....       0.132 sec  (  0.8%)
  MO trafo                  ....       0.067 sec  ( 50.6 % of SOSCF)
  Orb grad                  ....       0.002 sec  (  1.3 % of SOSCF)
  Rot update                ....       0.028 sec  ( 21.2 % of SOSCF)
  Step                      ....       0.035 sec  ( 26.8 % of SOSCF)
Finished LeanSCF after  17.5 sec

Maximum memory used throughout the entire LEANSCF-calculation: 36.4 MB


-------------------------------------------------------------------------------
                          DFT DISPERSION CORRECTION                            
                                                                               
                                DFTD4 V3.4.0                                   
-------------------------------------------------------------------------------
The PBE functional is recognized
Active option DFTDOPT                   ...         5   

-------------------------   ----------------
Dispersion correction           -0.070421985
-------------------------   ----------------

------------------   -----------------
gCP correction             0.188416235
------------------   -----------------

-------------------------   --------------------
FINAL SINGLE POINT ENERGY     -2929.516187837315
-------------------------   --------------------


------------------------------------------------------------------------------
                              ORCA PROPERTY CALCULATIONS
------------------------------------------------------------------------------

GBWName                                 ... sp.gbw
Number of atoms                         ...     41
Number of basis functions               ...    334
Max core memory                         ...   1024 MB

Electric properties:
Dipole moment                           ... YES
Quadrupole moment                       ...  NO
Static polarizability (Dipole/Dipole)   ...  NO
Static polarizability (Dipole/Quad.)    ...  NO
Static polarizability (Quad./Quad.)     ...  NO
Static polarizability (Velocity)        ...  NO

Atomic electric properties:
Dipole moment                           ...  NO
Quadrupole moment                       ...  NO
Static polarizability                   ...  NO

Choice of electric origin               ... Center of mass
Position of electric origin             ...     0.000002     0.000003    -0.000003

General magnetic properties:
Magnetizability                         ...  NO

EPR properties:
g-Tensor (aka g-matrix)                 ...  NO
Zero-Field splitting spin-orbit         ...  NO
Zero-field splitting spin-spin          ...  NO
Hyperfine couplings                     ...  NO (   0 nuclei)
Quadrupole couplings                    ...  NO (   0 nuclei)
Contact density                         ...  NO (   0 nuclei)

NMR properties:
Chemical shifts                         ...  NO (   0 nuclei)
Spin-rotation constants                 ...  NO (   0 nuclei)
Spin-spin couplings                     ...  NO (   0 nuclei,    0 pairs)

Choice of magnetic origin               ... GIAO
Position of magnetic origin             ...     0.000000     0.000000     0.000000

Properties with geometric perturbations:
SCF Hessian                             ...  NO
IR spectrum                             ...  NO
VCD spectrum                            ...  NO
X-ray spectroscopy properties:
SCF XES/XAS/RIXS spectra                ...  NO


-------------
DIPOLE MOMENT
-------------

Method             : SCF
Type of density    : Electron Density
Multiplicity       :   1
Irrep              :   0
Energy             : -2929.6341820868824470 Eh
Relativity type    : 
Basis              : AO
                                X                 Y                 Z
Electronic contribution:    -10.806347783      -0.060570301      -4.583420464
Nuclear contribution   :     12.379539686      -0.639131445       4.781323029
                        -----------------------------------------
Total Dipole Moment    :      1.573191902      -0.699701746       0.197902565
                        -----------------------------------------
Magnitude (a.u.)       :      1.733113014
Magnitude (Debye)      :      4.405223193



--------------------
Rotational spectrum 
--------------------
 
Rotational constants in cm-1:             0.011626             0.006090             0.005757 
Rotational constants in MHz :           348.546683           182.572154           172.584072 

Dipole components along the rotational axes: 
x,y,z [a.u.] :     1.583099    -0.390713     0.587214 
x,y,z [Debye]:     4.023919    -0.993114     1.492580 

 

Dipole moment calculation done in   0.0 sec 

Maximum memory used throughout the entire PROP-calculation: 25.3 MB

--------------------------------
SUGGESTED CITATIONS FOR THIS RUN
--------------------------------

Below you find a list of papers that are relevant to this ORCA run
We neither can nor want to force you to cite these papers, but we appreciate if you do
You receive ORCA, which is the product of decades of hard work by many enthusiastic individuals, for free
The only thing we kindly ask in return is that you cite our papers,
We deeply appreciate it, if you show your appreciation for ORCA by not just citing the generic ORCA reference.

Please note that relegating all ORCA citations to the supporting information does *not* help us.
SI sections are not indexed - citations you put there will not count into any citation statistics
But we need these citations in order to attract the funding resources that allow us to do what we are doing

Therefore, if you are a happy ORCA user, please consider citing a few of the papers listed below in the main body of your paper

In addition to the list printed below, the program has created the file sp.bibtex that contains the list in bibtex format
You can import this file easily into all common literature databanks and citation aid programs


List of essential papers. We consider these as the minimum necessary citations

  1. Neese,F.
     Software update: the ORCA program system, version 5.0
     WIRES Comput. Molec. Sci., 2022 12(1)e1606
     doi.org/10.1002/wcms.1606

List of papers to cite with high priority. The work reported in these papers was absolutely
necessary for this run to complete.
Our perspective: the developers of density functionals and basis sets usually get cited in chemistry papers
Good! But without the algorithms to do something with them, the functionals or basis sets would not do anything.
Hence, in our opinion, the algorithm design and method developments papers are equally worthy of getting cited

  1. Neese,F.
     An improvement of the resolution of the identity approximation for the formation of the Coulomb matrix
     J. Comp. Chem., 2003 24(14)1740-1747
     doi.org/10.1002/jcc.10318
  2. Neese,F.
     The SHARK Integral Generation and Digestion System
     J. Comp. Chem., 2022  1-16
     doi.org/10.1002/jcc.26942
  3. Caldeweyher,E.; Bannwarth,C.; Grimme,S.
     Extension of the D3 dispersion coefficient model
     J. Chem. Phys., 2017 147 034112-XXXX
     doi.org/10.1063/1.4993215
  4. Caldeweyher,E.; Ehlert,S.; Hansen,A.; Neugebauer,H.; Spicher,S.; Bannwarth,C.; Grimme,S.
     A generally applicable atomic-charge dependent London dispersion correction
     J. Chem. Phys., 2019 150 154122-XXXX
     doi.org/10.1063/1.5090222
  5. Caldeweyher,E.; Mewes,J.; Ehlert,S.; Grimme,S.
     Extension and evaluation of the D4 London-dispersion model for periodic systems
     Phys. Chem. Chem. Phys., 2020 22(16)8499-8512
     doi.org/10.1039/D0CP00502A

List of suggested additional citations. These are papers that are important in the 'surrounding' of 
of this run, or papers that preceded the highly important papers. If you like your results we are grateful for a citation.

  1. Neese,F.
     The ORCA program system
     WIRES Comput. Molec. Sci., 2012 2(1)73-78
     doi.org/10.1002/wcms.81
  2. Neese,F.
     Software update: the ORCA program system, version 4.0
     WIRES Comput. Molec. Sci., 2018 8(1)1-6
     doi.org/10.1002/wcms.1327
  3. Neese,F.; Wennmohs,F.; Becker,U.; Riplinger,C.
     The ORCA quantum chemistry program package
     J. Chem. Phys., 2020 152 Art. No. L224108
     doi.org/10.1063/5.0004608

List of optional additional citations

  1. Neese,F.
     Approximate second-order SCF convergence for spin unrestricted wavefunctions
     Chem. Phys. Lett., 2000 325(1-3)93-98
     doi.org/10.1016/s0009-2614(00)00662-x

Timings for individual modules:

Sum of individual times          ...       21.402 sec (=   0.357 min)
Startup calculation              ...        1.668 sec (=   0.028 min)   7.8 %
SCF iterations                   ...       19.600 sec (=   0.327 min)  91.6 %
Property calculations            ...        0.134 sec (=   0.002 min)   0.6 %
                             ****ORCA TERMINATED NORMALLY****
TOTAL RUN TIME: 0 days 0 hours 0 minutes 22 seconds 361 msec
