      -----------------------------------------------------------      
     |                   =====================                   |     
     |                           x T B                           |     
     |                   =====================                   |     
     |                         S. Grimme                         |     
     |          Mulliken Center for Theoretical Chemistry        |     
     |                    University of Bonn                     |     
      -----------------------------------------------------------      

   * xtb version 6.7.1 (edcfbbe) compiled by 'albert@albert-system' on 2024-07-22

   xtb is free software: you can redistribute it and/or modify it under
   the terms of the GNU Lesser General Public License as published by
   the Free Software Foundation, either version 3 of the License, or
   (at your option) any later version.
   
   xtb is distributed in the hope that it will be useful,
   but WITHOUT ANY WARRANTY; without even the implied warranty of
   MERCHANTABILITY or FITNESS FOR A PARTICULAR PURPOSE.  See the
   GNU Lesser General Public License for more details.
   
   Cite this work as:
   * C. Bannwarth, E. Caldeweyher, S. Ehlert, A. Hansen, P. Pracht,
     J. Seibert, S. Spicher, S. Grimme, WIREs Comput. Mol. Sci., 2020, 11,
     e01493. DOI: 10.1002/wcms.1493
   
   for GFN2-xTB:
   * C. Bannwarth, S. Ehlert and S. Grimme., J. Chem. Theory Comput., 2019,
     15, 1652-1671. DOI: 10.1021/acs.jctc.8b01176
   for GFN1-xTB:
   * S. Grimme, C. Bannwarth, P. Shushkov, J. Chem. Theory Comput., 2017,
     13, 1989-2009. DOI: 10.1021/acs.jctc.7b00118
   for GFN0-xTB:
   * P. Pracht, E. Caldeweyher, S. Ehlert, S. Grimme, ChemRxiv, 2019, preprint.
     DOI: 10.26434/chemrxiv.8326202.v1
   for GFN-FF:
   * S. Spicher and S. Grimme, Angew. Chem. Int. Ed., 2020, 59, 15665-15673.
     DOI: 10.1002/anie.202004239
   
   for ALPB and GBSA implicit solvation:
   * S. Ehlert, M. Stahn, S. Spicher, S. Grimme, J. Chem. Theory Comput.,
     2021, 17, 4250-4261. DOI: 10.1021/acs.jctc.1c00471
   
   for ddCOSMO and CPCM-X implicit solvation:
   * M. Stahn, S. Ehlert, S. Grimme, J. Phys. Chem. A,
     2023, XX, XXXX-XXXX. DOI: 10.1021/acs.jpca.3c04382
   
   for DFT-D4:
   * E. Caldeweyher, C. Bannwarth and S. Grimme, J. Chem. Phys., 2017,
     147, 034112. DOI: 10.1063/1.4993215
   * E. Caldeweyher, S. Ehlert, A. Hansen, H. Neugebauer, S. Spicher,
     C. Bannwarth and S. Grimme, J. Chem. Phys., 2019, 150, 154122.
     DOI: 10.1063/1.5090222
   * E. Caldeweyher, J.-M. Mewes, S. Ehlert and S. Grimme, Phys. Chem. Chem. Phys.
     2020, 22, 8499-8512. DOI: 10.1039/D0CP00502A
   
   for sTDA-xTB:
   * S. Grimme and C. Bannwarth, J. Chem. Phys., 2016, 145, 054103.
     DOI: 10.1063/1.4959605
   
   in the mass-spec context:
   * V. Asgeirsson, C. Bauer and S. Grimme, Chem. Sci., 2017, 8, 4879.
     DOI: 10.1039/c7sc00601b
   * J. Koopman and S. Grimme, ACS Omega 2019, 4, 12, 15120-15133.
     DOI: 10.1021/acsomega.9b02011
   
   for metadynamics refer to:
   * S. Grimme, J. Chem. Theory Comput., 2019, 155, 2847-2862
     DOI: 10.1021/acs.jctc.9b00143
   
   for SPH calculations refer to:
   * S. Spicher and S. Grimme, J. Chem. Theory Comput., 2021, 17, 1701-1714
     DOI: 10.1021/acs.jctc.0c01306
   
   for ONIOM refer to:
   * C. Plett, A. Katbashev, S. Ehlert, S. Grimme, M. Bursch,
     Phys. Chem. Chem. Phys., 2023, 25, 17860-17868. DOI: 10.1039/D3CP02178E
   
   for DIPRO refer to:
   * J. Kohn, N. Gildemeister, S. Grimme, D. Fazzi, A. Hansen,
     J. Chem. Phys., 2023, just accepted.
   
   for PTB refer to:
   * S. Grimme, M. Mueller, A. Hansen, J. Chem. Phys., 2023, 158, 124111.
     DOI: 10.1063/5.0137838
   
   with help from (in alphabetical order)
   P. Atkinson, C. Bannwarth, F. Bohle, G. Brandenburg, E. Caldeweyher
   M. Checinski, S. Dohm, S. Ehlert, S. Ehrlich, I. Gerasimov, C. Hölzer
   A. Katbashev, J. Kohn, J. Koopman, C. Lavigne, S. Lehtola, F. März, M. Müller,
   F. Musil, H. Neugebauer, J. Pisarek, C. Plett, P. Pracht, F. Pultar,
   J. Seibert, P. Shushkov, S. Spicher, M. Stahn, M. Steiner, T. Strunk,
   J. Stückrath, T. Rose, and J. Unsleber
   
 * started run on 2025/04/09 at 05:21:11.795     
   ID    Z sym.   atoms
    1    6 C      1, 2, 7, 8, 10, 15, 16, 18, 19
    2    8 O      3, 6, 14, 17
    3   15 P      4, 12
    4   16 S      5, 9, 11, 13
    5    1 H      20-41

           -------------------------------------------------
          |                Calculation Setup                |
           -------------------------------------------------

          program call               : /srv/scratch/z5358697/.xtb/bin/xtb gas.coord --gfn2 --sp --chrg 0 --norestart --parallel 1
          hostname                   : k163
          coordinate file            : gas.coord
          omp threads                :                     1


           -------------------------------------------------
          |                 G F N 2 - x T B                 |
           -------------------------------------------------

        Reference                      10.1021/acs.jctc.8b01176
      * Hamiltonian:
        H0-scaling (s, p, d)           1.850000    2.230000    2.230000
        zeta-weighting                 0.500000
      * Dispersion:
        s8                             2.700000
        a1                             0.520000
        a2                             5.000000
        s9                             5.000000
      * Repulsion:
        kExp                           1.500000    1.000000
        rExp                           1.000000
      * Coulomb:
        alpha                          2.000000
        third order                    shell-resolved
        anisotropic                    true
        a3                             3.000000
        a5                             4.000000
        cn-shift                       1.200000
        cn-exp                         4.000000
        max-rad                        5.000000


          ...................................................
          :                      SETUP                      :
          :.................................................:
          :  # basis functions                 134          :
          :  # atomic orbitals                 128          :
          :  # shells                           66          :
          :  # electrons                       116          :
          :  max. iterations                   250          :
          :  Hamiltonian                  GFN2-xTB          :
          :  restarted?                      false          :
          :  GBSA solvation                  false          :
          :  PC potential                    false          :
          :  electronic temp.          300.0000000     K    :
          :  accuracy                    1.0000000          :
          :  -> integral cutoff          0.2500000E+02      :
          :  -> integral neglect         0.1000000E-07      :
          :  -> SCF convergence          0.1000000E-05 Eh   :
          :  -> wf. convergence          0.1000000E-03 e    :
          :  Broyden damping             0.4000000          :
          :  net charge                          0          :
          :  unpaired electrons                  0          :
          ...................................................

 iter      E             dE          RMSdq      gap      omega  full diag
   1    -65.3831967 -0.653832E+02  0.618E+00    4.31       0.0  T
   2    -65.5487516 -0.165555E+00  0.380E+00    3.28       1.0  T
   3    -65.5681386 -0.193870E-01  0.135E+00    3.11       1.0  T
   4    -65.5706957 -0.255710E-02  0.582E-01    2.89       1.0  T
   5    -65.5714567 -0.761080E-03  0.243E-01    2.99       1.0  T
   6    -65.5715882 -0.131461E-03  0.126E-01    2.97       1.0  T
   7    -65.5716402 -0.520523E-04  0.466E-02    2.98       1.0  T
   8    -65.5716502 -0.994880E-05  0.217E-02    2.99       1.0  T
   9    -65.5716518 -0.158270E-05  0.516E-03    2.99       3.0  T
  10    -65.5716519 -0.941550E-07  0.225E-03    2.99       6.9  T
  11    -65.5716519 -0.499135E-08  0.457E-04    2.99      34.2  T
  12    -65.5716519 -0.792710E-09  0.213E-04    2.99      73.5  T

   *** convergence criteria satisfied after 12 iterations ***

         #    Occupation            Energy/Eh            Energy/eV
      -------------------------------------------------------------
         1        2.0000           -0.7639199             -20.7873
       ...           ...                  ...                  ...
        52        2.0000           -0.4401054             -11.9759
        53        2.0000           -0.4139630             -11.2645
        54        2.0000           -0.4057848             -11.0420
        55        2.0000           -0.3785271             -10.3002
        56        2.0000           -0.3768941             -10.2558
        57        2.0000           -0.3752492             -10.2111
        58        2.0000           -0.3739370             -10.1753 (HOMO)
        59                         -0.2641703              -7.1884 (LUMO)
        60                         -0.2482693              -6.7558
        61                         -0.2131310              -5.7996
        62                         -0.1773588              -4.8262
        63                         -0.1702235              -4.6320
       ...                                ...                  ...
       128                          1.2843129              34.9479
      -------------------------------------------------------------
                  HL-Gap            0.1097667 Eh            2.9869 eV
             Fermi-level           -0.3190536 Eh           -8.6819 eV

 SCC (total)                   0 d,  0 h,  0 min,  0.062 sec
 SCC setup                      ...        0 min,  0.000 sec (  0.466%)
 Dispersion                     ...        0 min,  0.000 sec (  0.512%)
 classical contributions        ...        0 min,  0.000 sec (  0.102%)
 integral evaluation            ...        0 min,  0.013 sec ( 20.551%)
 iterations                     ...        0 min,  0.026 sec ( 42.479%)
 molecular gradient             ...        0 min,  0.022 sec ( 35.500%)
 printout                       ...        0 min,  0.000 sec (  0.362%)

         :::::::::::::::::::::::::::::::::::::::::::::::::::::
         ::                     SUMMARY                     ::
         :::::::::::::::::::::::::::::::::::::::::::::::::::::
         :: total energy             -65.008725123440 Eh    ::
         :: gradient norm              0.038109162611 Eh/a0 ::
         :: HOMO-LUMO gap              2.986904812507 eV    ::
         ::.................................................::
         :: SCC energy               -65.570669850086 Eh    ::
         :: -> isotropic ES            0.102955318395 Eh    ::
         :: -> anisotropic ES         -0.011067488386 Eh    ::
         :: -> anisotropic XC          0.031062881393 Eh    ::
         :: -> dispersion             -0.050820474353 Eh    ::
         :: repulsion energy           0.561944726647 Eh    ::
         :: add. restraining           0.000000000000 Eh    ::
         :: total charge               0.000000000000 e     ::
         :::::::::::::::::::::::::::::::::::::::::::::::::::::

           -------------------------------------------------
          |                Property Printout                |
           -------------------------------------------------

    * Orbital Energies and Occupations

         #    Occupation            Energy/Eh            Energy/eV
      -------------------------------------------------------------
         1        2.0000           -0.7639199             -20.7873
       ...           ...                  ...                  ...
        46        2.0000           -0.4772741             -12.9873
        47        2.0000           -0.4690056             -12.7623
        48        2.0000           -0.4663448             -12.6899
        49        2.0000           -0.4640373             -12.6271
        50        2.0000           -0.4600496             -12.5186
        51        2.0000           -0.4483849             -12.2012
        52        2.0000           -0.4401054             -11.9759
        53        2.0000           -0.4139630             -11.2645
        54        2.0000           -0.4057848             -11.0420
        55        2.0000           -0.3785271             -10.3002
        56        2.0000           -0.3768941             -10.2558
        57        2.0000           -0.3752492             -10.2111
        58        2.0000           -0.3739370             -10.1753 (HOMO)
        59                         -0.2641703              -7.1884 (LUMO)
        60                         -0.2482693              -6.7558
        61                         -0.2131310              -5.7996
        62                         -0.1773588              -4.8262
        63                         -0.1702235              -4.6320
        64                         -0.1683649              -4.5814
        65                         -0.1561724              -4.2497
        66                         -0.1487291              -4.0471
        67                         -0.1257077              -3.4207
        68                         -0.1158225              -3.1517
        69                         -0.0502625              -1.3677
       ...                                ...                  ...
       128                          1.2843129              34.9479
      -------------------------------------------------------------
                  HL-Gap            0.1097667 Eh            2.9869 eV
             Fermi-level           -0.3190536 Eh           -8.6819 eV

     #   Z          covCN         q      C6AA      α(0)
     1   6 C        3.751    -0.119    22.846     6.816
     2   6 C        3.824     0.085    19.156     6.228
     3   8 O        1.655    -0.250    18.161     5.753
     4  15 P        3.816     0.371   144.787    21.615
     5  16 S        0.926    -0.365   154.967    21.056
     6   8 O        1.654    -0.230    17.837     5.701
     7   6 C        3.864     0.083    19.168     6.226
     8   6 C        3.752    -0.117    22.795     6.809
     9  16 S        2.018    -0.184   148.862    20.535
    10   6 C        3.820     0.045    19.812     6.335
    11  16 S        2.019    -0.176   148.495    20.510
    12  15 P        3.859     0.366   144.985    21.630
    13  16 S        0.927    -0.378   155.602    21.099
    14   8 O        1.653    -0.230    17.838     5.701
    15   6 C        3.853     0.084    19.154     6.225
    16   6 C        3.751    -0.117    22.810     6.811
    17   8 O        1.655    -0.244    18.068     5.738
    18   6 C        3.863     0.082    19.186     6.229
    19   6 C        3.751    -0.120    22.867     6.820
    20   1 H        0.925     0.068     2.106     2.269
    21   1 H        0.925     0.057     2.232     2.337
    22   1 H        0.925     0.069     2.092     2.262
    23   1 H        0.924     0.064     2.155     2.295
    24   1 H        0.924     0.047     2.364     2.404
    25   1 H        0.924     0.056     2.245     2.343
    26   1 H        0.924     0.059     2.206     2.323
    27   1 H        0.925     0.068     2.106     2.269
    28   1 H        0.925     0.067     2.114     2.273
    29   1 H        0.925     0.061     2.184     2.311
    30   1 H        0.925     0.091     1.866     2.136
    31   1 H        0.925     0.087     1.906     2.159
    32   1 H        0.924     0.052     2.290     2.367
    33   1 H        0.924     0.064     2.156     2.296
    34   1 H        0.925     0.066     2.128     2.281
    35   1 H        0.925     0.058     2.224     2.332
    36   1 H        0.925     0.066     2.132     2.284
    37   1 H        0.924     0.065     2.147     2.291
    38   1 H        0.924     0.062     2.179     2.308
    39   1 H        0.925     0.066     2.135     2.285
    40   1 H        0.925     0.060     2.197     2.318
    41   1 H        0.925     0.062     2.174     2.305

 Mol. C6AA /au·bohr⁶  :      26540.008491
 Mol. C8AA /au·bohr⁸  :     863384.993034
 Mol. α(0) /au        :        258.286138


Wiberg/Mayer (AO) data.
largest (>0.10) Wiberg bond orders for each atom

 ---------------------------------------------------------------------------
     #   Z sym  total        # sym  WBO       # sym  WBO       # sym  WBO
 ---------------------------------------------------------------------------
     1   6 C    3.987 --     2 C    1.021    20 H    0.982    21 H    0.980
                            22 H    0.975
     2   6 C    3.912 --     1 C    1.021    23 H    0.969    24 H    0.967
                             3 O    0.908
     3   8 O    2.409 --     4 P    1.291     2 C    0.908
     4  15 P    5.266 --     5 S    1.573     6 O    1.351     3 O    1.291
                             9 S    0.933
     5  16 S    1.929 --     4 P    1.573     9 S    0.148
     6   8 O    2.416 --     4 P    1.351     7 C    0.887
     7   6 C    3.912 --     8 C    1.021    26 H    0.973    25 H    0.966
                             6 O    0.887
     8   6 C    3.987 --     7 C    1.021    28 H    0.984    27 H    0.983
                            29 H    0.979
     9  16 S    2.270 --    10 C    0.990     4 P    0.933     5 S    0.148
    10   6 C    3.951 --     9 S    0.990    11 S    0.989    31 H    0.950
                            30 H    0.940
    11  16 S    2.275 --    10 C    0.989    12 P    0.943    13 S    0.142
    12  15 P    5.302 --    13 S    1.585    14 O    1.343    17 O    1.315
                            11 S    0.943
    13  16 S    1.919 --    12 P    1.585    11 S    0.142
    14   8 O    2.422 --    12 P    1.343    15 C    0.889
    15   6 C    3.914 --    16 C    1.021    33 H    0.971    32 H    0.966
                            14 O    0.889
    16   6 C    3.989 --    15 C    1.021    36 H    0.984    34 H    0.981
                            35 H    0.980
    17   8 O    2.415 --    12 P    1.315    18 C    0.902
    18   6 C    3.907 --    19 C    1.021    37 H    0.971    38 H    0.967
                            17 O    0.902
    19   6 C    3.989 --    18 C    1.021    40 H    0.985    41 H    0.980
                            39 H    0.978
    20   1 H    0.995 --     1 C    0.982
    21   1 H    0.996 --     1 C    0.980
    22   1 H    0.995 --     1 C    0.975
    23   1 H    0.996 --     2 C    0.969
    24   1 H    0.998 --     2 C    0.967
    25   1 H    0.997 --     7 C    0.966
    26   1 H    0.996 --     7 C    0.973
    27   1 H    0.995 --     8 C    0.983
    28   1 H    0.995 --     8 C    0.984
    29   1 H    0.994 --     8 C    0.979
    30   1 H    0.992 --    10 C    0.940
    31   1 H    0.992 --    10 C    0.950
    32   1 H    0.997 --    15 C    0.966
    33   1 H    0.996 --    15 C    0.971
    34   1 H    0.996 --    16 C    0.981
    35   1 H    0.995 --    16 C    0.980
    36   1 H    0.995 --    16 C    0.984
    37   1 H    0.995 --    18 C    0.971
    38   1 H    0.996 --    18 C    0.967
    39   1 H    0.996 --    19 C    0.978
    40   1 H    0.996 --    19 C    0.985
    41   1 H    0.995 --    19 C    0.980
 ---------------------------------------------------------------------------

Topologies differ in total number of bonds
Writing topology from bond orders to xtbtopo.mol

molecular dipole:
                 x           y           z       tot (Debye)
 q only:       -0.723      -1.254       2.650
   full:       -0.643      -1.076       3.168       8.660
molecular quadrupole (traceless):
                xx          xy          yy          xz          yz          zz
 q only:        2.154      30.146      -3.176      10.931       3.350       1.022
  q+dip:        6.204      28.667      -6.520      11.341       0.692       0.316
   full:        7.040      29.572      -6.653      11.583       1.596      -0.388


           -------------------------------------------------
          | TOTAL ENERGY              -65.008725123440 Eh   |
          | GRADIENT NORM               0.038109162611 Eh/α |
          | HOMO-LUMO GAP               2.986904812507 eV   |
           -------------------------------------------------

------------------------------------------------------------------------
 * finished run on 2025/04/09 at 05:21:11.920     
------------------------------------------------------------------------
 total:
 * wall-time:     0 d,  0 h,  0 min,  0.125 sec
 *  cpu-time:     0 d,  0 h,  0 min,  0.069 sec
 * ratio c/w:     0.551 speedup
 SCF:
 * wall-time:     0 d,  0 h,  0 min,  0.062 sec
 *  cpu-time:     0 d,  0 h,  0 min,  0.056 sec
 * ratio c/w:     0.907 speedup

