      -----------------------------------------------------------      
     |                   =====================                   |     
     |                           x T B                           |     
     |                   =====================                   |     
     |                         S. Grimme                         |     
     |          Mulliken Center for Theoretical Chemistry        |     
     |                    University of Bonn                     |     
      -----------------------------------------------------------      

   * xtb version 6.7.1 (edcfbbe) compiled by 'albert@albert-system' on 2024-07-22

   xtb is free software: you can redistribute it and/or modify it under
   the terms of the GNU Lesser General Public License as published by
   the Free Software Foundation, either version 3 of the License, or
   (at your option) any later version.
   
   xtb is distributed in the hope that it will be useful,
   but WITHOUT ANY WARRANTY; without even the implied warranty of
   MERCHANTABILITY or FITNESS FOR A PARTICULAR PURPOSE.  See the
   GNU Lesser General Public License for more details.
   
   Cite this work as:
   * C. Bannwarth, E. Caldeweyher, S. Ehlert, A. Hansen, P. Pracht,
     J. Seibert, S. Spicher, S. Grimme, WIREs Comput. Mol. Sci., 2020, 11,
     e01493. DOI: 10.1002/wcms.1493
   
   for GFN2-xTB:
   * C. Bannwarth, S. Ehlert and S. Grimme., J. Chem. Theory Comput., 2019,
     15, 1652-1671. DOI: 10.1021/acs.jctc.8b01176
   for GFN1-xTB:
   * S. Grimme, C. Bannwarth, P. Shushkov, J. Chem. Theory Comput., 2017,
     13, 1989-2009. DOI: 10.1021/acs.jctc.7b00118
   for GFN0-xTB:
   * P. Pracht, E. Caldeweyher, S. Ehlert, S. Grimme, ChemRxiv, 2019, preprint.
     DOI: 10.26434/chemrxiv.8326202.v1
   for GFN-FF:
   * S. Spicher and S. Grimme, Angew. Chem. Int. Ed., 2020, 59, 15665-15673.
     DOI: 10.1002/anie.202004239
   
   for ALPB and GBSA implicit solvation:
   * S. Ehlert, M. Stahn, S. Spicher, S. Grimme, J. Chem. Theory Comput.,
     2021, 17, 4250-4261. DOI: 10.1021/acs.jctc.1c00471
   
   for ddCOSMO and CPCM-X implicit solvation:
   * M. Stahn, S. Ehlert, S. Grimme, J. Phys. Chem. A,
     2023, XX, XXXX-XXXX. DOI: 10.1021/acs.jpca.3c04382
   
   for DFT-D4:
   * E. Caldeweyher, C. Bannwarth and S. Grimme, J. Chem. Phys., 2017,
     147, 034112. DOI: 10.1063/1.4993215
   * E. Caldeweyher, S. Ehlert, A. Hansen, H. Neugebauer, S. Spicher,
     C. Bannwarth and S. Grimme, J. Chem. Phys., 2019, 150, 154122.
     DOI: 10.1063/1.5090222
   * E. Caldeweyher, J.-M. Mewes, S. Ehlert and S. Grimme, Phys. Chem. Chem. Phys.
     2020, 22, 8499-8512. DOI: 10.1039/D0CP00502A
   
   for sTDA-xTB:
   * S. Grimme and C. Bannwarth, J. Chem. Phys., 2016, 145, 054103.
     DOI: 10.1063/1.4959605
   
   in the mass-spec context:
   * V. Asgeirsson, C. Bauer and S. Grimme, Chem. Sci., 2017, 8, 4879.
     DOI: 10.1039/c7sc00601b
   * J. Koopman and S. Grimme, ACS Omega 2019, 4, 12, 15120-15133.
     DOI: 10.1021/acsomega.9b02011
   
   for metadynamics refer to:
   * S. Grimme, J. Chem. Theory Comput., 2019, 155, 2847-2862
     DOI: 10.1021/acs.jctc.9b00143
   
   for SPH calculations refer to:
   * S. Spicher and S. Grimme, J. Chem. Theory Comput., 2021, 17, 1701-1714
     DOI: 10.1021/acs.jctc.0c01306
   
   for ONIOM refer to:
   * C. Plett, A. Katbashev, S. Ehlert, S. Grimme, M. Bursch,
     Phys. Chem. Chem. Phys., 2023, 25, 17860-17868. DOI: 10.1039/D3CP02178E
   
   for DIPRO refer to:
   * J. Kohn, N. Gildemeister, S. Grimme, D. Fazzi, A. Hansen,
     J. Chem. Phys., 2023, just accepted.
   
   for PTB refer to:
   * S. Grimme, M. Mueller, A. Hansen, J. Chem. Phys., 2023, 158, 124111.
     DOI: 10.1063/5.0137838
   
   with help from (in alphabetical order)
   P. Atkinson, C. Bannwarth, F. Bohle, G. Brandenburg, E. Caldeweyher
   M. Checinski, S. Dohm, S. Ehlert, S. Ehrlich, I. Gerasimov, C. Hölzer
   A. Katbashev, J. Kohn, J. Koopman, C. Lavigne, S. Lehtola, F. März, M. Müller,
   F. Musil, H. Neugebauer, J. Pisarek, C. Plett, P. Pracht, F. Pultar,
   J. Seibert, P. Shushkov, S. Spicher, M. Stahn, M. Steiner, T. Strunk,
   J. Stückrath, T. Rose, and J. Unsleber
   
 * started run on 2025/04/09 at 05:20:42.143     
   ID    Z sym.   atoms
    1    6 C      1, 2, 7, 8, 10, 15, 16, 18, 19
    2    8 O      3, 6, 14, 17
    3   15 P      4, 12
    4   16 S      5, 9, 11, 13
    5    1 H      20-41

           -------------------------------------------------
          |                Calculation Setup                |
           -------------------------------------------------

          program call               : /srv/scratch/z5358697/.xtb/bin/xtb solv.coord --gfn2 --sp --chrg 0 --norestart --parallel 1 --alpb water reference -I xtb_sp-xcontrol-inp
          hostname                   : k163
          coordinate file            : solv.coord
          omp threads                :                     1


           -------------------------------------------------
          |                 G F N 2 - x T B                 |
           -------------------------------------------------

        Reference                      10.1021/acs.jctc.8b01176
      * Hamiltonian:
        H0-scaling (s, p, d)           1.850000    2.230000    2.230000
        zeta-weighting                 0.500000
      * Dispersion:
        s8                             2.700000
        a1                             0.520000
        a2                             5.000000
        s9                             5.000000
      * Repulsion:
        kExp                           1.500000    1.000000
        rExp                           1.000000
      * Coulomb:
        alpha                          2.000000
        third order                    shell-resolved
        anisotropic                    true
        a3                             3.000000
        a5                             4.000000
        cn-shift                       1.200000
        cn-exp                         4.000000
        max-rad                        5.000000

      * Solvation model:               ALPB
        Solvent                        water
        Parameter file                 internal GFN2-xTB/ALPB
        Dielectric constant                8.0200E+01
        Reference state                gsolv=reference [X=1]
        Free energy shift                  2.8945E-03 Eh       1.8164E+00 kcal/mol
        Temperature                        2.9815E+02 K
        Density                            1.0000E+00 kg/L
        Solvent mass                       1.8000E+01 g/mol
        Interaction kernel             P16
        Born radius scaling (c1)           1.4744E+00
        Born radii integrator          GBOBC
        Born offset                        0.0000E+00 a0       0.0000E+00 AA
        H-bond correction              true
        Ion screening                  false
        Surface tension                    1.0000E-05 Eh       1.5569E+01 dyn/cm
        Grid points                               974 per atom

          ...................................................
          :                      SETUP                      :
          :.................................................:
          :  # basis functions                 134          :
          :  # atomic orbitals                 128          :
          :  # shells                           66          :
          :  # electrons                       116          :
          :  max. iterations                   250          :
          :  Hamiltonian                  GFN2-xTB          :
          :  restarted?                      false          :
          :  GBSA solvation                   true          :
          :  PC potential                    false          :
          :  electronic temp.          300.0000000     K    :
          :  accuracy                    1.0000000          :
          :  -> integral cutoff          0.2500000E+02      :
          :  -> integral neglect         0.1000000E-07      :
          :  -> SCF convergence          0.1000000E-05 Eh   :
          :  -> wf. convergence          0.1000000E-03 e    :
          :  Broyden damping             0.4000000          :
          :  net charge                          0          :
          :  unpaired electrons                  0          :
          ...................................................

 iter      E             dE          RMSdq      gap      omega  full diag
   1    -65.4448682 -0.654449E+02  0.626E+00    4.22       0.0  T
   2    -65.5686673 -0.123799E+00  0.355E+00    3.61       1.0  T
   3    -65.5888589 -0.201916E-01  0.118E+00    3.20       1.0  T
   4    -65.5914448 -0.258598E-02  0.535E-01    3.15       1.0  T
   5    -65.5922320 -0.787154E-03  0.280E-01    3.22       1.0  T
   6    -65.5924383 -0.206254E-03  0.129E-01    3.22       1.0  T
   7    -65.5924970 -0.586988E-04  0.430E-02    3.24       1.0  T
   8    -65.5925015 -0.449699E-05  0.186E-02    3.24       1.0  T
   9    -65.5925024 -0.987959E-06  0.580E-03    3.24       2.7  T
  10    -65.5925025 -0.160126E-07  0.259E-03    3.24       6.0  T
  11    -65.5925025 -0.350818E-07  0.756E-04    3.24      20.6  T
  12    -65.5925025 -0.921290E-09  0.400E-04    3.24      39.1  T

   *** convergence criteria satisfied after 12 iterations ***

         #    Occupation            Energy/Eh            Energy/eV
      -------------------------------------------------------------
         1        2.0000           -0.7672407             -20.8777
       ...           ...                  ...                  ...
        52        2.0000           -0.4460834             -12.1385
        53        2.0000           -0.4174884             -11.3604
        54        2.0000           -0.4096934             -11.1483
        55        2.0000           -0.4009728             -10.9110
        56        2.0000           -0.3987072             -10.8494
        57        2.0000           -0.3947400             -10.7414
        58        2.0000           -0.3896246             -10.6022 (HOMO)
        59                         -0.2705167              -7.3611 (LUMO)
        60                         -0.2617304              -7.1220
        61                         -0.2194727              -5.9722
        62                         -0.1864695              -5.0741
        63                         -0.1850499              -5.0355
       ...                                ...                  ...
       128                          1.3507258              36.7551
      -------------------------------------------------------------
                  HL-Gap            0.1191079 Eh            3.2411 eV
             Fermi-level           -0.3300706 Eh           -8.9817 eV

 SCC (total)                   0 d,  0 h,  0 min,  0.062 sec
 SCC setup                      ...        0 min,  0.003 sec (  4.204%)
 Dispersion                     ...        0 min,  0.000 sec (  0.492%)
 classical contributions        ...        0 min,  0.000 sec (  0.094%)
 integral evaluation            ...        0 min,  0.012 sec ( 18.910%)
 iterations                     ...        0 min,  0.026 sec ( 41.766%)
 molecular gradient             ...        0 min,  0.021 sec ( 34.165%)
 printout                       ...        0 min,  0.000 sec (  0.340%)

         :::::::::::::::::::::::::::::::::::::::::::::::::::::
         ::                     SUMMARY                     ::
         :::::::::::::::::::::::::::::::::::::::::::::::::::::
         :: total energy             -65.030144037194 Eh    ::
         :: total w/o Gsasa/hb       -65.032527188411 Eh    ::
         :: gradient norm              0.000102183630 Eh/a0 ::
         :: HOMO-LUMO gap              3.241090811986 eV    ::
         ::.................................................::
         :: SCC energy               -65.591356729754 Eh    ::
         :: -> isotropic ES            0.135015426606 Eh    ::
         :: -> anisotropic ES         -0.023585445370 Eh    ::
         :: -> anisotropic XC          0.029150013467 Eh    ::
         :: -> dispersion             -0.055587769129 Eh    ::
         :: -> Gsolv                  -0.029106305994 Eh    ::
         ::    -> Gelec               -0.031489457210 Eh    ::
         ::    -> Gsasa                0.003635129125 Eh    ::
         ::    -> Ghb                 -0.004146527069 Eh    ::
         ::    -> Gshift               0.002894549160 Eh    ::
         :: repulsion energy           0.561212692560 Eh    ::
         :: add. restraining           0.000000000000 Eh    ::
         :: total charge               0.000000000000 e     ::
         :::::::::::::::::::::::::::::::::::::::::::::::::::::

           -------------------------------------------------
          |                Property Printout                |
           -------------------------------------------------

    * Orbital Energies and Occupations

         #    Occupation            Energy/Eh            Energy/eV
      -------------------------------------------------------------
         1        2.0000           -0.7672407             -20.8777
       ...           ...                  ...                  ...
        46        2.0000           -0.4691538             -12.7663
        47        2.0000           -0.4589137             -12.4877
        48        2.0000           -0.4568634             -12.4319
        49        2.0000           -0.4533126             -12.3353
        50        2.0000           -0.4522762             -12.3071
        51        2.0000           -0.4495336             -12.2324
        52        2.0000           -0.4460834             -12.1385
        53        2.0000           -0.4174884             -11.3604
        54        2.0000           -0.4096934             -11.1483
        55        2.0000           -0.4009728             -10.9110
        56        2.0000           -0.3987072             -10.8494
        57        2.0000           -0.3947400             -10.7414
        58        2.0000           -0.3896246             -10.6022 (HOMO)
        59                         -0.2705167              -7.3611 (LUMO)
        60                         -0.2617304              -7.1220
        61                         -0.2194727              -5.9722
        62                         -0.1864695              -5.0741
        63                         -0.1850499              -5.0355
        64                         -0.1817730              -4.9463
        65                         -0.1610963              -4.3837
        66                         -0.1591349              -4.3303
        67                         -0.1310391              -3.5658
        68                         -0.1265756              -3.4443
        69                         -0.0519252              -1.4130
       ...                                ...                  ...
       128                          1.3507258              36.7551
      -------------------------------------------------------------
                  HL-Gap            0.1191079 Eh            3.2411 eV
             Fermi-level           -0.3300706 Eh           -8.9817 eV

     #   Z          covCN         q      C6AA      α(0)
     1   6 C        3.751    -0.131    23.075     6.850
     2   6 C        3.857     0.076    19.285     6.246
     3   8 O        1.655    -0.262    18.352     5.783
     4  15 P        3.844     0.357   145.336    21.656
     5  16 S        0.926    -0.452   159.102    21.335
     6   8 O        1.654    -0.267    18.451     5.799
     7   6 C        3.861     0.089    19.064     6.209
     8   6 C        3.751    -0.130    23.066     6.849
     9  16 S        2.008    -0.138   146.867    20.397
    10   6 C        3.807     0.035    19.982     6.363
    11  16 S        2.007    -0.110   145.668    20.314
    12  15 P        3.836     0.378   144.507    21.594
    13  16 S        0.928    -0.483   160.605    21.435
    14   8 O        1.652    -0.268    18.455     5.799
    15   6 C        3.838     0.072    19.352     6.258
    16   6 C        3.751    -0.133    23.123     6.858
    17   8 O        1.655    -0.263    18.369     5.786
    18   6 C        3.860     0.075    19.295     6.247
    19   6 C        3.751    -0.131    23.086     6.852
    20   1 H        0.925     0.077     2.015     2.220
    21   1 H        0.925     0.054     2.267     2.355
    22   1 H        0.925     0.086     1.919     2.166
    23   1 H        0.924     0.060     2.196     2.317
    24   1 H        0.924     0.092     1.864     2.135
    25   1 H        0.924     0.076     2.020     2.223
    26   1 H        0.924     0.065     2.141     2.288
    27   1 H        0.925     0.066     2.134     2.284
    28   1 H        0.925     0.089     1.893     2.152
    29   1 H        0.925     0.067     2.122     2.278
    30   1 H        0.925     0.122     1.596     1.976
    31   1 H        0.924     0.070     2.089     2.260
    32   1 H        0.924     0.089     1.885     2.147
    33   1 H        0.924     0.076     2.021     2.223
    34   1 H        0.925     0.069     2.093     2.262
    35   1 H        0.925     0.066     2.126     2.280
    36   1 H        0.925     0.091     1.870     2.138
    37   1 H        0.924     0.095     1.835     2.119
    38   1 H        0.924     0.060     2.201     2.320
    39   1 H        0.925     0.086     1.921     2.167
    40   1 H        0.925     0.054     2.265     2.354
    41   1 H        0.925     0.077     2.010     2.217

 Mol. C6AA /au·bohr⁶  :      26386.301872
 Mol. C8AA /au·bohr⁸  :     862383.692369
 Mol. α(0) /au        :        257.511017


Wiberg/Mayer (AO) data.
largest (>0.10) Wiberg bond orders for each atom

 ---------------------------------------------------------------------------
     #   Z sym  total        # sym  WBO       # sym  WBO       # sym  WBO
 ---------------------------------------------------------------------------
     1   6 C    3.986 --     2 C    1.022    20 H    0.981    21 H    0.977
                            22 H    0.976
     2   6 C    3.888 --     1 C    1.022    23 H    0.969    24 H    0.965
                             3 O    0.887
     3   8 O    2.401 --     4 P    1.318     2 C    0.887
     4  15 P    5.331 --     5 S    1.556     6 O    1.337     3 O    1.318
                             9 S    0.968
     5  16 S    1.875 --     4 P    1.556     9 S    0.135
     6   8 O    2.394 --     4 P    1.337     7 C    0.865
     7   6 C    3.886 --     8 C    1.020    25 H    0.968    26 H    0.963
                             6 O    0.865
     8   6 C    3.984 --     7 C    1.020    27 H    0.984    29 H    0.981
                            28 H    0.974
     9  16 S    2.276 --    10 C    0.978     4 P    0.968     5 S    0.135
    10   6 C    3.952 --    11 S    0.992     9 S    0.978    30 H    0.959
                            31 H    0.949
    11  16 S    2.280 --    10 C    0.992    12 P    0.965    13 S    0.134
    12  15 P    5.303 --    13 S    1.532    14 O    1.345    17 O    1.320
                            11 S    0.965
    13  16 S    1.846 --    12 P    1.532    11 S    0.134
    14   8 O    2.393 --    12 P    1.345    15 C    0.855
    15   6 C    3.877 --    16 C    1.023    33 H    0.968    32 H    0.966
                            14 O    0.855
    16   6 C    3.983 --    15 C    1.023    35 H    0.982    34 H    0.979
                            36 H    0.972
    17   8 O    2.401 --    12 P    1.320    18 C    0.886
    18   6 C    3.888 --    19 C    1.022    38 H    0.969    37 H    0.964
                            17 O    0.886
    19   6 C    3.986 --    18 C    1.022    41 H    0.980    40 H    0.976
                            39 H    0.976
    20   1 H    0.994 --     1 C    0.981
    21   1 H    0.997 --     1 C    0.977
    22   1 H    0.992 --     1 C    0.976
    23   1 H    0.996 --     2 C    0.969
    24   1 H    0.991 --     2 C    0.965
    25   1 H    0.994 --     7 C    0.968
    26   1 H    0.996 --     7 C    0.963
    27   1 H    0.995 --     8 C    0.984
    28   1 H    0.991 --     8 C    0.974
    29   1 H    0.995 --     8 C    0.981
    30   1 H    0.985 --    10 C    0.959
    31   1 H    0.995 --    10 C    0.949
    32   1 H    0.992 --    15 C    0.966
    33   1 H    0.994 --    15 C    0.968
    34   1 H    0.995 --    16 C    0.979
    35   1 H    0.995 --    16 C    0.982
    36   1 H    0.990 --    16 C    0.972
    37   1 H    0.991 --    18 C    0.964
    38   1 H    0.996 --    18 C    0.969
    39   1 H    0.992 --    19 C    0.976
    40   1 H    0.997 --    19 C    0.976
    41   1 H    0.994 --    19 C    0.980
 ---------------------------------------------------------------------------

Topologies differ in total number of bonds
Writing topology from bond orders to xtbtopo.mol

molecular dipole:
                 x           y           z       tot (Debye)
 q only:       -0.264      -2.801       3.220
   full:       -0.260      -1.818       3.257       9.504
molecular quadrupole (traceless):
                xx          xy          yy          xz          yz          zz
 q only:       29.809       0.785     -20.079       6.935      13.971      -9.730
  q+dip:       30.168       0.190     -19.098       5.014      15.154     -11.070
   full:       30.954       0.272     -19.805       4.895      15.103     -11.149


           -------------------------------------------------
          | TOTAL ENERGY              -65.030144037194 Eh   |
          | GRADIENT NORM               0.000102183630 Eh/α |
          | HOMO-LUMO GAP               3.241090811986 eV   |
           -------------------------------------------------

------------------------------------------------------------------------
 * finished run on 2025/04/09 at 05:20:42.256     
------------------------------------------------------------------------
 total:
 * wall-time:     0 d,  0 h,  0 min,  0.113 sec
 *  cpu-time:     0 d,  0 h,  0 min,  0.072 sec
 * ratio c/w:     0.637 speedup
 SCF:
 * wall-time:     0 d,  0 h,  0 min,  0.062 sec
 *  cpu-time:     0 d,  0 h,  0 min,  0.058 sec
 * ratio c/w:     0.941 speedup

