38
 energy: -1981.480382817706 gnorm: 0.007213222286 xtb: 6.7.1 (edcfbbe)
C            2.08775969670111       -3.39904922195685        0.06337321166125
C            2.81804340103530       -3.00897065629340       -1.20157439873086
O            2.14673206201716       -1.87731546482731       -1.85183207812927
C            2.38401318739857       -0.66258662571712       -1.33998945667943
O            3.19212689726170       -0.43062919182348       -0.45691391446322
C            1.50669974659808        0.39763303126739       -1.95694039380440
C            0.33650617978124        0.76540373774720       -1.01749847801112
H           -0.21080327778071        1.59489695108924       -1.47196498252455
C            0.84871961165955        1.21423465757207        0.34938143182264
O            0.82503749969517        0.55324667151679        1.36839821150815
O            1.34315242425001        2.45174676993413        0.24469943884456
C            1.94070199525873        3.03263607952344        1.45330687910348
C            3.35604221873162        2.54061592633740        1.64640499306803
S           -0.80428276350355       -0.68099187483267       -0.90316590048061
P           -2.32585544890984        0.09753589472268        0.35582014772940
S           -2.55211818948424        2.02587553247628        0.32306242406787
O           -3.57212970193399       -0.82294899093995       -0.09184304642163
C           -4.25106819402259       -0.55725726991462       -1.35222921713453
O           -2.08456700365743       -0.44184538853385        1.84759698281039
C           -1.67954422263280       -1.82173467904896        2.10259019997828
H            2.09018702638944       -2.58557325359009        0.79467743242310
H            1.05368129284210       -3.67829056085483       -0.15598857169315
H            2.59042614425392       -4.26382082229887        0.50910364344248
H            2.77773598915123       -3.80126206232942       -1.95111217300269
H            3.86019652007300       -2.73812352788358       -1.01601149460891
H            1.11097327787898        0.07497600282195       -2.92184680421521
H            2.10818391406907        1.29937191687158       -2.09795592747880
H            1.90675575926889        4.10776984417743        1.26272035370596
H            1.29587139757212        2.79440391055447        2.30530283095141
H            3.79918277541454        3.07423169963225        2.49356780569028
H            3.38466107256407        1.46843775207357        1.86416992825706
H            3.96332695955447        2.74303843612082        0.75720561620132
H           -4.99171664572211       -1.34982575374851       -1.46044128185009
H           -3.54289929893974       -0.59196188853928       -2.18543195334426
H           -4.74283441254467        0.41803100023247       -1.30939452644836
H           -1.72439998166176       -1.93425022649879        3.19007441085414
H           -0.65198563829683       -1.97900367698731        1.74669948089369
H           -2.37161745998153       -2.52413963224563        1.61906249073832
38
 energy: -1981.480455255766 gnorm: 0.001713139052 xtb: 6.7.1 (edcfbbe)
C            2.08702413380798       -3.39993136288045        0.06349801746752
C            2.81849776101144       -3.00853407245326       -1.20009205768908
O            2.14664325740260       -1.87740639275586       -1.85089375008308
C            2.38614385360326       -0.66211545954945       -1.34149607854714
O            3.19244338358647       -0.43053723699724       -0.45693024027900
C            1.50751338538601        0.39785120951314       -1.95702388275787
C            0.33731281124124        0.76701597461620       -1.01843875536670
H           -0.20976622717277        1.59668576647441       -1.47268199090149
C            0.85000366466081        1.21513191308515        0.34792166243445
O            0.82652061149325        0.55434464578616        1.36624814496886
O            1.34307806432489        2.45285571060141        0.24462896046463
C            1.94205666410453        3.03279746197069        1.45369479539816
C            3.35664248897936        2.54087866510558        1.64707254978139
S           -0.80486494374185       -0.67760114304287       -0.90317744846985
P           -2.32744089008484        0.09711794547293        0.35572767071831
S           -2.54954349142810        2.02567310098866        0.32098626504458
O           -3.57422190180536       -0.82326452979702       -0.09099543600220
C           -4.25363893742055       -0.55865156366740       -1.35127668485591
O           -2.08298923440012       -0.44271051496395        1.84649395734515
C           -1.68057714236641       -1.82247448203978        2.10184338072666
H            2.08845889733773       -2.58643874291485        0.79457130444535
H            1.05309286491770       -3.67921556529233       -0.15727250100416
H            2.58957171598021       -4.26414251805194        0.50952678766709
H            2.78039185334893       -3.79990616874447       -1.95030100656238
H            3.85972169342427       -2.73587115302250       -1.01255750381511
H            1.11146434016007        0.07497500673034       -2.92163592864011
H            2.10944311167029        1.29915469011331       -2.09846007289836
H            1.91039971534051        4.10688320642797        1.26344165327659
H            1.29769381874282        2.79592784926587        2.30449920885433
H            3.79984570810474        3.07431830928422        2.49401758360847
H            3.38460481367234        1.46988426520272        1.86363976126739
H            3.96299083534434        2.74325660181683        0.75911772918978
H           -4.99373596281117       -1.35159363440052       -1.45734850665159
H           -3.54605779618633       -0.59388290760288       -2.18450128097372
H           -4.74530833521455        0.41637398770717       -1.30901486305473
H           -1.72334543535806       -1.93874045667870        3.18530937755225
H           -0.65850296475054       -1.98199030056730        1.74557906096717
H           -2.37067585813079       -2.52161257261232        1.62140169300138
38
 energy: -1981.480458887461 gnorm: 0.002496981848 xtb: 6.7.1 (edcfbbe)
C            2.08608337137540       -3.40168005046856        0.06327832937586
C            2.82004564538810       -3.00755297340109       -1.19789340827235
O            2.14540931883283       -1.87739381634754       -1.84792491370964
C            2.38336221412924       -0.66188764239183       -1.33833461655369
O            3.19244775459209       -0.42876610416979       -0.45685179704498
C            1.50666465305954        0.39799118187579       -1.95690567303967
C            0.33663814925332        0.76761224115670       -1.01835945494984
H           -0.20941813729133        1.59752261714894       -1.47340554881068
C            0.84971684925187        1.21642116690551        0.34751199635463
O            0.82982277560654        0.55493494654167        1.36513449260437
O            1.34218632534780        2.45422397854514        0.24464934388163
C            1.94353939851778        3.03348075260469        1.45377978635457
C            3.35715051834111        2.53987389376600        1.64691166646771
S           -0.80383332515958       -0.67895102507696       -0.90751064135759
P           -2.32369645965122        0.09929910778499        0.35414357557107
S           -2.55298778500909        2.02704189973668        0.32513146404165
O           -3.57049202977174       -0.82201771545999       -0.09086089818487
C           -4.25467232615584       -0.55989125625561       -1.34934997414639
O           -2.07748876357277       -0.44218370107136        1.84349656035797
C           -1.68164193275818       -1.82309535485295        2.09846687496540
H            2.08475180410410       -2.58862379289542        0.79478748740554
H            1.05282088028713       -3.68176251071184       -0.16011643961445
H            2.58863300230762       -4.26531024884046        0.50980085927543
H            2.78655829323918       -3.79761406994240       -1.94946076692405
H            3.85955790494747       -2.73128403244289       -1.00661921289152
H            1.11112575407995        0.07403770098756       -2.92136083166563
H            2.10942337347208        1.29863644642801       -2.09932439622233
H            1.91440123640456        4.10682314872412        1.26261324268964
H            1.29904162477686        2.79836364897521        2.30381328759637
H            3.80004675289496        3.07335960611975        2.49387775166672
H            3.38472427885196        1.46962543147846        1.86313508221521
H            3.96339232983470        2.74264389147228        0.76002461053162
H           -4.99403449636533       -1.35391198578393       -1.45128827863145
H           -3.54991779029982       -0.59562831701497       -2.18458796791914
H           -4.74762113132080        0.41430104588059       -1.30702436751112
H           -1.72336206435039       -1.93981067221922        3.18019804170279
H           -0.66303706421631       -1.98666103860364        1.74125875099429
H           -2.37446116268414       -2.51766017521756        1.62036360267076
38
 energy: -1981.480471175546 gnorm: 0.001547663659 xtb: 6.7.1 (edcfbbe)
C            2.08538938785870       -3.40225597787707        0.06333662452263
C            2.82055630490206       -3.00701291588629       -1.19675675782891
O            2.14599375846811       -1.87706045298552       -1.84736921798221
C            2.38482843871672       -0.66121231977611       -1.33894561900455
O            3.19314386213509       -0.42801582298298       -0.45677044090450
C            1.50789307922694        0.39851589574440       -1.95752021097245
C            0.33776806532997        0.76908093458735       -1.01951049382971
H           -0.20782988950575        1.59928261065025       -1.47455544380570
C            0.85081345673139        1.21705951482995        0.34658323033506
O            0.83065656324513        0.55516742595237        1.36405169145324
O            1.34264442364082        2.45516358874812        0.24432281524822
C            1.94414955795774        3.03401639932876        1.45380667653507
C            3.35743087362173        2.53939404154903        1.64688860450259
S           -0.80464250997447       -0.67561004645686       -0.90742054032843
P           -2.32514107640740        0.09892722029048        0.35506729234485
S           -2.55156983153798        2.02693368310764        0.32447656842652
O           -3.57183886182311       -0.82257569674502       -0.08969977399061
C           -4.25634799478172       -0.56108951724461       -1.34810328251978
O           -2.07708385967971       -0.44286856153602        1.84378759439445
C           -1.68255569016848       -1.82420787733905        2.09758844030624
H            2.08277120737468       -2.58941118633823        0.79511573898202
H            1.05254204033767       -3.68273348177203       -0.16143730334360
H            2.58780346734137       -4.26582973467000        0.51016947779998
H            2.78891332292473       -3.79679515805370       -1.94871086594172
H            3.85952377891049       -2.72981471751035       -1.00391912740377
H            1.11222525067197        0.07427237600132       -2.92183135095452
H            2.11086705071050        1.29894527555690       -2.10020963210924
H            1.91569443640860        4.10737400092795        1.26225228443132
H            1.29917988864092        2.79921750692722        2.30366694667557
H            3.80023103854464        3.07269114965761        2.49407038768021
H            3.38468307706207        1.46906130478112        1.86309852826714
H            3.96402935712903        2.74230328280487        0.76014844792621
H           -4.99569176780301       -1.35521694333827       -1.44929539071618
H           -3.55194649697500       -0.59717388351537       -2.18367270155376
H           -4.74930371659748        0.41314083660490       -1.30601553001919
H           -1.72338444024229       -1.94064127578526        3.17970833244336
H           -0.66414864734351       -1.98890452120527        1.73907204785770
H           -2.37737157673576       -2.51761029907757        1.61976593965991
38
 energy: -1981.480478883534 gnorm: 0.001351550379 xtb: 6.7.1 (edcfbbe)
C            2.08337270833148       -3.40351040558066        0.06339342712957
C            2.82236173720650       -3.00531772200749       -1.19354782621837
O            2.14835122085923       -1.87606120666034       -1.84603937770387
C            2.38851921215695       -0.65936709829696       -1.34054666991921
O            3.19471132904734       -0.42551945864904       -0.45639761396133
C            1.50968730181372        0.39938414992725       -1.95819549794305
C            0.33872722772004        0.77157130995921       -1.02157954072765
H           -0.20563348703674        1.60249530351886       -1.47680864794665
C            0.85192158320695        1.21866435941665        0.34475154626791
O            0.83213313977701        0.55574544554327        1.36196986656328
O            1.34285490317281        2.45718834173377        0.24323268874873
C            1.94560841234571        3.03503698709063        1.45301404534701
C            3.35817594144001        2.53823315411441        1.64670554634606
S           -0.80547618214476       -0.67170361618150       -0.90920835251561
P           -2.32553260837747        0.09961152570029        0.35539822838760
S           -2.55128977194975        2.02784838269624        0.32568885335889
O           -3.57178318195067       -0.82295876187094       -0.08777351741540
C           -4.25931590012323       -0.56342650542787       -1.34470094051566
O           -2.07450441670720       -0.44264676368576        1.84307611265834
C           -1.68500681614867       -1.82607121473471        2.09480103576165
H            2.07693496647793       -2.59145432085390        0.79617567475125
H            1.05183386990152       -3.68533383188202       -0.16541715440019
H            2.58539183476161       -4.26706174314030        0.51108830148273
H            2.79560777160105       -3.79461823938566       -1.94629767248793
H            3.85999469413826       -2.72618547193542       -0.99635294161360
H            1.11439007547865        0.07454471642483       -2.92244379217141
H            2.11243924427495        1.29986199435639       -2.10130377820523
H            1.91887991801758        4.10872318234032        1.26099292688557
H            1.29971573264684        2.80141330792377        2.30316975640549
H            3.80134865567521        3.07057408457153        2.49447903379339
H            3.38387227448778        1.46740505956002        1.86291324954236
H            3.96590481272228        2.74070132714253        0.75998515041696
H           -4.99861443069882       -1.35806605599443       -1.44310797549276
H           -3.55691095764086       -0.60032681146705       -2.18206570912005
H           -4.75272748649634        0.41069266799942       -1.30257704874567
H           -1.72296693024193       -1.94269250899203        3.17818376622233
H           -0.66693537087050       -1.99569162928968        1.73268079202855
H           -2.38517986809552       -2.51717438081194        1.61800596558810
38
 energy: -1981.480483541674 gnorm: 0.001095479205 xtb: 6.7.1 (edcfbbe)
C            2.08178049035068       -3.40437877843325        0.06305666752934
C            2.82437641791654       -3.00381996498511       -1.19102872203791
O            2.14928320710145       -1.87531705600690       -1.84376764225421
C            2.38775722229079       -0.65836778961568       -1.33819843301729
O            3.19540061247104       -0.42303372689310       -0.45576969419774
C            1.51102472747760        0.40021551373631       -1.95919706121301
C            0.33985434236748        0.77345389484594       -1.02318298125972
H           -0.20324110441373        1.60479960748882       -1.47907945321792
C            0.85275779608745        1.22004366599864        0.34342473916964
O            0.83324034152211        0.55647947451310        1.36020209750985
O            1.34326582247946        2.45873887416847        0.24256492043979
C            1.94678787461380        3.03588816198534        1.45246059615037
C            3.35860712038394        2.53711072044694        1.64643788200218
S           -0.80605580594551       -0.66858451876920       -0.91158283247414
P           -2.32516641750938        0.09997407630184        0.35558214094217
S           -2.55021432788251        2.02811506549770        0.32558472775624
O           -3.57138983440321       -0.82318458713041       -0.08617423056046
C           -4.26162796841580       -0.56506368288228       -1.34180127563973
O           -2.07177151645076       -0.44286734826382        1.84256090113752
C           -1.68687078128883       -1.82788314892782        2.09268502923719
H            2.07175344587532       -2.59308623172802        0.79671226457895
H            1.05139116131921       -3.68756347912464       -0.16933690747969
H            2.58368894522451       -4.26763991250413        0.51143517208634
H            2.80188520827606       -3.79236363493909       -1.94474285100076
H            3.86065266869135       -2.72243378916564       -0.98995964903197
H            1.11616754980309        0.07430279811047       -2.92329096701018
H            2.11426203874486        1.30026907839631       -2.10305220778436
H            1.92164497508444        4.10955075751211        1.26017797699912
H            1.30031732854601        2.80340454791177        2.30247891519401
H            3.80208510871057        3.06874274349906        2.49449034875981
H            3.38293032416595        1.46625347558566        1.86249177568779
H            3.96704767568377        2.73890431198275        0.76006653600448
H           -5.00091853058603       -1.36007211067098       -1.43753958262551
H           -3.56106040268014       -0.60277614159816       -2.18066547211910
H           -4.75522532772953        0.40895860270707       -1.29957193828332
H           -1.72210251929033       -1.94500613007876        3.17601711888944
H           -0.67056961831239       -2.00124008494008        1.72748323750706
H           -2.39089994456436       -2.51601490069150        1.61746605013466
38
 energy: -1981.480487575233 gnorm: 0.000799674190 xtb: 6.7.1 (edcfbbe)
C            2.07878299405189       -3.40552215509236        0.06267618114791
C            2.82779094208896       -3.00112316230975       -1.18632288843852
O            2.15234789579490       -1.87392082943432       -1.84095870580685
C            2.38938919067273       -0.65612222370104       -1.33661924447873
O            3.19607745169314       -0.41883358965988       -0.45398128835796
C            1.51251085511050        0.40109993855314       -1.96000198799803
C            0.34047152790132        0.77547750008880       -1.02519865153056
H           -0.20094626768587        1.60736137139504       -1.48213541520513
C            0.85287177470168        1.22188691071108        0.34182493495817
O            0.83437744428943        0.55753779708675        1.35776405997942
O            1.34329748285491        2.46074261162547        0.24147508285292
C            1.94835686550357        3.03696538255643        1.45114445786138
C            3.35884768746211        2.53475529536341        1.64562642598061
S           -0.80612001879105       -0.66661406273532       -0.91652402140608
P           -2.32228648799333        0.10159579954966        0.35508540625295
S           -2.55036574982469        2.02914648450681        0.32768853736299
O           -3.56837888955829       -0.82285678759853       -0.08401017021546
C           -4.26451067187273       -0.56700624574994       -1.33679671835261
O           -2.06537825905016       -0.44272210108440        1.84094242500634
C           -1.68945428778089       -1.83065379486843        2.08846430597371
H            2.06229699647910       -2.59517545695473        0.79731203644939
H            1.05048950462222       -3.69100120148828       -0.17646723676197
H            2.58023632722362       -4.26808354420089        0.51281739221642
H            2.81250701052840       -3.78852597207912       -1.94142997760976
H            3.86178177342816       -2.71630089539682       -0.97847769044221
H            1.11873624128482        0.07369555429263       -2.92410495222508
H            2.11556016231742        1.30120801421179       -2.10460456181279
H            1.92598483587507        4.11045005483537        1.25830518927295
H            1.30116435628758        2.80668846908885        2.30092499628151
H            3.80295855165938        3.06540407455760        2.49388711113785
H            3.38070589079323        1.46408483778077        1.86161821211749
H            3.96828641268310        2.73508103336695        0.75987773795067
H           -5.00387572924645       -1.36260399303142       -1.42746620482557
H           -3.56786338000842       -0.60604314278131       -2.17877932795423
H           -4.75849053166274        0.40674731482353       -1.29399562445945
H           -1.71956194082841       -1.94830009777747        3.17134865829362
H           -0.67706065175621       -2.01107658170795        1.71770378943389
H           -2.40071373043646       -2.51293340427851        1.61700635693118
38
 energy: -1981.480487575233 gnorm: 0.000799674190 xtb: 6.7.1 (edcfbbe)
C            2.07878299405189       -3.40552215509236        0.06267618114791
C            2.82779094208896       -3.00112316230975       -1.18632288843852
O            2.15234789579490       -1.87392082943432       -1.84095870580685
C            2.38938919067273       -0.65612222370104       -1.33661924447873
O            3.19607745169314       -0.41883358965988       -0.45398128835796
C            1.51251085511050        0.40109993855314       -1.96000198799803
C            0.34047152790132        0.77547750008880       -1.02519865153056
H           -0.20094626768587        1.60736137139504       -1.48213541520513
C            0.85287177470168        1.22188691071108        0.34182493495817
O            0.83437744428943        0.55753779708675        1.35776405997942
O            1.34329748285491        2.46074261162547        0.24147508285292
C            1.94835686550357        3.03696538255643        1.45114445786138
C            3.35884768746211        2.53475529536341        1.64562642598061
S           -0.80612001879105       -0.66661406273532       -0.91652402140608
P           -2.32228648799333        0.10159579954966        0.35508540625295
S           -2.55036574982469        2.02914648450681        0.32768853736299
O           -3.56837888955829       -0.82285678759853       -0.08401017021546
C           -4.26451067187273       -0.56700624574994       -1.33679671835261
O           -2.06537825905016       -0.44272210108440        1.84094242500634
C           -1.68945428778089       -1.83065379486843        2.08846430597371
H            2.06229699647910       -2.59517545695473        0.79731203644939
H            1.05048950462222       -3.69100120148828       -0.17646723676197
H            2.58023632722362       -4.26808354420089        0.51281739221642
H            2.81250701052840       -3.78852597207912       -1.94142997760976
H            3.86178177342816       -2.71630089539682       -0.97847769044221
H            1.11873624128482        0.07369555429263       -2.92410495222508
H            2.11556016231742        1.30120801421179       -2.10460456181279
H            1.92598483587507        4.11045005483537        1.25830518927295
H            1.30116435628758        2.80668846908885        2.30092499628151
H            3.80295855165938        3.06540407455760        2.49388711113785
H            3.38070589079323        1.46408483778077        1.86161821211749
H            3.96828641268310        2.73508103336695        0.75987773795067
H           -5.00387572924645       -1.36260399303142       -1.42746620482557
H           -3.56786338000842       -0.60604314278131       -2.17877932795423
H           -4.75849053166274        0.40674731482353       -1.29399562445945
H           -1.71956194082841       -1.94830009777747        3.17134865829362
H           -0.67706065175621       -2.01107658170795        1.71770378943389
H           -2.40071373043646       -2.51293340427851        1.61700635693118
