      -----------------------------------------------------------      
     |                   =====================                   |     
     |                           x T B                           |     
     |                   =====================                   |     
     |                         S. Grimme                         |     
     |          Mulliken Center for Theoretical Chemistry        |     
     |                    University of Bonn                     |     
      -----------------------------------------------------------      

   * xtb version 6.7.1 (edcfbbe) compiled by 'albert@albert-system' on 2024-07-22

   xtb is free software: you can redistribute it and/or modify it under
   the terms of the GNU Lesser General Public License as published by
   the Free Software Foundation, either version 3 of the License, or
   (at your option) any later version.
   
   xtb is distributed in the hope that it will be useful,
   but WITHOUT ANY WARRANTY; without even the implied warranty of
   MERCHANTABILITY or FITNESS FOR A PARTICULAR PURPOSE.  See the
   GNU Lesser General Public License for more details.
   
   Cite this work as:
   * C. Bannwarth, E. Caldeweyher, S. Ehlert, A. Hansen, P. Pracht,
     J. Seibert, S. Spicher, S. Grimme, WIREs Comput. Mol. Sci., 2020, 11,
     e01493. DOI: 10.1002/wcms.1493
   
   for GFN2-xTB:
   * C. Bannwarth, S. Ehlert and S. Grimme., J. Chem. Theory Comput., 2019,
     15, 1652-1671. DOI: 10.1021/acs.jctc.8b01176
   for GFN1-xTB:
   * S. Grimme, C. Bannwarth, P. Shushkov, J. Chem. Theory Comput., 2017,
     13, 1989-2009. DOI: 10.1021/acs.jctc.7b00118
   for GFN0-xTB:
   * P. Pracht, E. Caldeweyher, S. Ehlert, S. Grimme, ChemRxiv, 2019, preprint.
     DOI: 10.26434/chemrxiv.8326202.v1
   for GFN-FF:
   * S. Spicher and S. Grimme, Angew. Chem. Int. Ed., 2020, 59, 15665-15673.
     DOI: 10.1002/anie.202004239
   
   for ALPB and GBSA implicit solvation:
   * S. Ehlert, M. Stahn, S. Spicher, S. Grimme, J. Chem. Theory Comput.,
     2021, 17, 4250-4261. DOI: 10.1021/acs.jctc.1c00471
   
   for ddCOSMO and CPCM-X implicit solvation:
   * M. Stahn, S. Ehlert, S. Grimme, J. Phys. Chem. A,
     2023, XX, XXXX-XXXX. DOI: 10.1021/acs.jpca.3c04382
   
   for DFT-D4:
   * E. Caldeweyher, C. Bannwarth and S. Grimme, J. Chem. Phys., 2017,
     147, 034112. DOI: 10.1063/1.4993215
   * E. Caldeweyher, S. Ehlert, A. Hansen, H. Neugebauer, S. Spicher,
     C. Bannwarth and S. Grimme, J. Chem. Phys., 2019, 150, 154122.
     DOI: 10.1063/1.5090222
   * E. Caldeweyher, J.-M. Mewes, S. Ehlert and S. Grimme, Phys. Chem. Chem. Phys.
     2020, 22, 8499-8512. DOI: 10.1039/D0CP00502A
   
   for sTDA-xTB:
   * S. Grimme and C. Bannwarth, J. Chem. Phys., 2016, 145, 054103.
     DOI: 10.1063/1.4959605
   
   in the mass-spec context:
   * V. Asgeirsson, C. Bauer and S. Grimme, Chem. Sci., 2017, 8, 4879.
     DOI: 10.1039/c7sc00601b
   * J. Koopman and S. Grimme, ACS Omega 2019, 4, 12, 15120-15133.
     DOI: 10.1021/acsomega.9b02011
   
   for metadynamics refer to:
   * S. Grimme, J. Chem. Theory Comput., 2019, 155, 2847-2862
     DOI: 10.1021/acs.jctc.9b00143
   
   for SPH calculations refer to:
   * S. Spicher and S. Grimme, J. Chem. Theory Comput., 2021, 17, 1701-1714
     DOI: 10.1021/acs.jctc.0c01306
   
   for ONIOM refer to:
   * C. Plett, A. Katbashev, S. Ehlert, S. Grimme, M. Bursch,
     Phys. Chem. Chem. Phys., 2023, 25, 17860-17868. DOI: 10.1039/D3CP02178E
   
   for DIPRO refer to:
   * J. Kohn, N. Gildemeister, S. Grimme, D. Fazzi, A. Hansen,
     J. Chem. Phys., 2023, just accepted.
   
   for PTB refer to:
   * S. Grimme, M. Mueller, A. Hansen, J. Chem. Phys., 2023, 158, 124111.
     DOI: 10.1063/5.0137838
   
   with help from (in alphabetical order)
   P. Atkinson, C. Bannwarth, F. Bohle, G. Brandenburg, E. Caldeweyher
   M. Checinski, S. Dohm, S. Ehlert, S. Ehrlich, I. Gerasimov, C. Hölzer
   A. Katbashev, J. Kohn, J. Koopman, C. Lavigne, S. Lehtola, F. März, M. Müller,
   F. Musil, H. Neugebauer, J. Pisarek, C. Plett, P. Pracht, F. Pultar,
   J. Seibert, P. Shushkov, S. Spicher, M. Stahn, M. Steiner, T. Strunk,
   J. Stückrath, T. Rose, and J. Unsleber
   
 * started run on 2025/04/09 at 05:20:47.668     
   ID    Z sym.   atoms
    1    6 C      1, 2, 7, 8, 10, 15, 16, 18, 19
    2    8 O      3, 6, 14, 17
    3   15 P      4, 12
    4   16 S      5, 9, 11, 13
    5    1 H      20-41

           -------------------------------------------------
          |                Calculation Setup                |
           -------------------------------------------------

          program call               : /srv/scratch/z5358697/.xtb/bin/xtb gas.coord --gfn2 --sp --chrg 0 --norestart --parallel 1
          hostname                   : k163
          coordinate file            : gas.coord
          omp threads                :                     1


           -------------------------------------------------
          |                 G F N 2 - x T B                 |
           -------------------------------------------------

        Reference                      10.1021/acs.jctc.8b01176
      * Hamiltonian:
        H0-scaling (s, p, d)           1.850000    2.230000    2.230000
        zeta-weighting                 0.500000
      * Dispersion:
        s8                             2.700000
        a1                             0.520000
        a2                             5.000000
        s9                             5.000000
      * Repulsion:
        kExp                           1.500000    1.000000
        rExp                           1.000000
      * Coulomb:
        alpha                          2.000000
        third order                    shell-resolved
        anisotropic                    true
        a3                             3.000000
        a5                             4.000000
        cn-shift                       1.200000
        cn-exp                         4.000000
        max-rad                        5.000000


          ...................................................
          :                      SETUP                      :
          :.................................................:
          :  # basis functions                 134          :
          :  # atomic orbitals                 128          :
          :  # shells                           66          :
          :  # electrons                       116          :
          :  max. iterations                   250          :
          :  Hamiltonian                  GFN2-xTB          :
          :  restarted?                      false          :
          :  GBSA solvation                  false          :
          :  PC potential                    false          :
          :  electronic temp.          300.0000000     K    :
          :  accuracy                    1.0000000          :
          :  -> integral cutoff          0.2500000E+02      :
          :  -> integral neglect         0.1000000E-07      :
          :  -> SCF convergence          0.1000000E-05 Eh   :
          :  -> wf. convergence          0.1000000E-03 e    :
          :  Broyden damping             0.4000000          :
          :  net charge                          0          :
          :  unpaired electrons                  0          :
          ...................................................

 iter      E             dE          RMSdq      gap      omega  full diag
   1    -65.3790940 -0.653791E+02  0.650E+00    4.34       0.0  T
   2    -65.5504779 -0.171384E+00  0.422E+00    3.06       1.0  T
   3    -65.5698112 -0.193333E-01  0.146E+00    2.95       1.0  T
   4    -65.5723302 -0.251900E-02  0.566E-01    2.70       1.0  T
   5    -65.5731617 -0.831496E-03  0.267E-01    2.82       1.0  T
   6    -65.5733737 -0.212060E-03  0.134E-01    2.80       1.0  T
   7    -65.5734297 -0.560064E-04  0.502E-02    2.81       1.0  T
   8    -65.5734409 -0.112074E-04  0.239E-02    2.82       1.0  T
   9    -65.5734424 -0.144732E-05  0.551E-03    2.82       2.8  T
  10    -65.5734425 -0.127646E-06  0.281E-03    2.82       5.5  T
  11    -65.5734425 -0.886698E-08  0.617E-04    2.82      25.3  T
  12    -65.5734425 -0.593104E-09  0.273E-04    2.82      57.2  T

   *** convergence criteria satisfied after 12 iterations ***

         #    Occupation            Energy/Eh            Energy/eV
      -------------------------------------------------------------
         1        2.0000           -0.7570250             -20.5997
       ...           ...                  ...                  ...
        52        2.0000           -0.4370133             -11.8917
        53        2.0000           -0.4115257             -11.1982
        54        2.0000           -0.4024640             -10.9516
        55        2.0000           -0.3747679             -10.1980
        56        2.0000           -0.3718402             -10.1183
        57        2.0000           -0.3690584             -10.0426
        58        2.0000           -0.3617182              -9.8429 (HOMO)
        59                         -0.2582317              -7.0268 (LUMO)
        60                         -0.2444672              -6.6523
        61                         -0.2076712              -5.6510
        62                         -0.1774380              -4.8283
        63                         -0.1663898              -4.5277
       ...                                ...                  ...
       128                          1.3517939              36.7842
      -------------------------------------------------------------
                  HL-Gap            0.1034865 Eh            2.8160 eV
             Fermi-level           -0.3099749 Eh           -8.4348 eV

 SCC (total)                   0 d,  0 h,  0 min,  0.064 sec
 SCC setup                      ...        0 min,  0.000 sec (  0.418%)
 Dispersion                     ...        0 min,  0.000 sec (  0.489%)
 classical contributions        ...        0 min,  0.000 sec (  0.093%)
 integral evaluation            ...        0 min,  0.017 sec ( 26.328%)
 iterations                     ...        0 min,  0.024 sec ( 37.960%)
 molecular gradient             ...        0 min,  0.022 sec ( 34.364%)
 printout                       ...        0 min,  0.000 sec (  0.321%)

         :::::::::::::::::::::::::::::::::::::::::::::::::::::
         ::                     SUMMARY                     ::
         :::::::::::::::::::::::::::::::::::::::::::::::::::::
         :: total energy             -65.011016369591 Eh    ::
         :: gradient norm              0.036140231259 Eh/a0 ::
         :: HOMO-LUMO gap              2.816009881540 eV    ::
         ::.................................................::
         :: SCC energy               -65.572399775719 Eh    ::
         :: -> isotropic ES            0.105954126843 Eh    ::
         :: -> anisotropic ES         -0.011225161228 Eh    ::
         :: -> anisotropic XC          0.030799404853 Eh    ::
         :: -> dispersion             -0.054488945801 Eh    ::
         :: repulsion energy           0.561383406128 Eh    ::
         :: add. restraining           0.000000000000 Eh    ::
         :: total charge              -0.000000000000 e     ::
         :::::::::::::::::::::::::::::::::::::::::::::::::::::

           -------------------------------------------------
          |                Property Printout                |
           -------------------------------------------------

    * Orbital Energies and Occupations

         #    Occupation            Energy/Eh            Energy/eV
      -------------------------------------------------------------
         1        2.0000           -0.7570250             -20.5997
       ...           ...                  ...                  ...
        46        2.0000           -0.4695196             -12.7763
        47        2.0000           -0.4610837             -12.5467
        48        2.0000           -0.4600180             -12.5177
        49        2.0000           -0.4558793             -12.4051
        50        2.0000           -0.4434543             -12.0670
        51        2.0000           -0.4421699             -12.0321
        52        2.0000           -0.4370133             -11.8917
        53        2.0000           -0.4115257             -11.1982
        54        2.0000           -0.4024640             -10.9516
        55        2.0000           -0.3747679             -10.1980
        56        2.0000           -0.3718402             -10.1183
        57        2.0000           -0.3690584             -10.0426
        58        2.0000           -0.3617182              -9.8429 (HOMO)
        59                         -0.2582317              -7.0268 (LUMO)
        60                         -0.2444672              -6.6523
        61                         -0.2076712              -5.6510
        62                         -0.1774380              -4.8283
        63                         -0.1663898              -4.5277
        64                         -0.1544069              -4.2016
        65                         -0.1454990              -3.9592
        66                         -0.1381950              -3.7605
        67                         -0.1201553              -3.2696
        68                         -0.1152558              -3.1363
        69                         -0.0423312              -1.1519
       ...                                ...                  ...
       128                          1.3517939              36.7842
      -------------------------------------------------------------
                  HL-Gap            0.1034865 Eh            2.8160 eV
             Fermi-level           -0.3099749 Eh           -8.4348 eV

     #   Z          covCN         q      C6AA      α(0)
     1   6 C        3.751    -0.114    22.749     6.802
     2   6 C        3.861     0.086    19.125     6.219
     3   8 O        1.655    -0.255    18.239     5.765
     4  15 P        3.878     0.368   144.902    21.624
     5  16 S        0.926    -0.401   156.689    21.172
     6   8 O        1.655    -0.235    17.904     5.712
     7   6 C        3.886     0.094    18.975     6.193
     8   6 C        3.752    -0.111    22.692     6.793
     9  16 S        2.006    -0.146   147.217    20.421
    10   6 C        3.808     0.040    19.904     6.351
    11  16 S        2.004    -0.151   147.435    20.436
    12  15 P        3.826     0.377   144.577    21.599
    13  16 S        0.927    -0.386   155.949    21.122
    14   8 O        1.654    -0.234    17.899     5.711
    15   6 C        3.833     0.083    19.188     6.232
    16   6 C        3.751    -0.117    22.794     6.809
    17   8 O        1.655    -0.253    18.205     5.760
    18   6 C        3.859     0.082    19.179     6.228
    19   6 C        3.751    -0.119    22.844     6.816
    20   1 H        0.925     0.062     2.177     2.307
    21   1 H        0.925     0.062     2.178     2.308
    22   1 H        0.925     0.060     2.203     2.321
    23   1 H        0.924     0.049     2.330     2.387
    24   1 H        0.924     0.061     2.190     2.314
    25   1 H        0.924     0.045     2.382     2.414
    26   1 H        0.924     0.068     2.105     2.269
    27   1 H        0.925     0.058     2.228     2.334
    28   1 H        0.925     0.058     2.217     2.328
    29   1 H        0.925     0.070     2.088     2.259
    30   1 H        0.925     0.086     1.920     2.167
    31   1 H        0.924     0.092     1.862     2.134
    32   1 H        0.924     0.058     2.223     2.332
    33   1 H        0.924     0.069     2.099     2.266
    34   1 H        0.925     0.064     2.150     2.293
    35   1 H        0.925     0.058     2.227     2.334
    36   1 H        0.925     0.061     2.188     2.313
    37   1 H        0.924     0.063     2.167     2.302
    38   1 H        0.924     0.063     2.162     2.299
    39   1 H        0.925     0.062     2.176     2.307
    40   1 H        0.925     0.061     2.185     2.312
    41   1 H        0.925     0.064     2.148     2.292

 Mol. C6AA /au·bohr⁶  :      26557.250088
 Mol. C8AA /au·bohr⁸  :     863395.571730
 Mol. α(0) /au        :        258.358996


Wiberg/Mayer (AO) data.
largest (>0.10) Wiberg bond orders for each atom

 ---------------------------------------------------------------------------
     #   Z sym  total        # sym  WBO       # sym  WBO       # sym  WBO
 ---------------------------------------------------------------------------
     1   6 C    3.990 --     2 C    1.019    20 H    0.985    21 H    0.984
                            22 H    0.980
     2   6 C    3.911 --     1 C    1.019    23 H    0.974    24 H    0.965
                             3 O    0.906
     3   8 O    2.399 --     4 P    1.301     2 C    0.906
     4  15 P    5.295 --     5 S    1.539     6 O    1.320     3 O    1.301
                             9 S    1.008
     5  16 S    1.893 --     4 P    1.539     9 S    0.142
     6   8 O    2.409 --     4 P    1.320     7 C    0.887
     7   6 C    3.907 --     8 C    1.020    25 H    0.974    26 H    0.967
                             6 O    0.887
     8   6 C    3.989 --     7 C    1.020    27 H    0.985    29 H    0.981
                            28 H    0.979
     9  16 S    2.293 --     4 P    1.008    10 C    0.979     5 S    0.142
    10   6 C    3.956 --    11 S    0.994     9 S    0.979    30 H    0.967
                            31 H    0.943
    11  16 S    2.275 --    10 C    0.994    12 P    0.949    13 S    0.139
    12  15 P    5.292 --    13 S    1.575    14 O    1.340    17 O    1.303
                            11 S    0.949
    13  16 S    1.903 --    12 P    1.575    11 S    0.139
    14   8 O    2.422 --    12 P    1.340    15 C    0.887
    15   6 C    3.909 --    16 C    1.021    33 H    0.970    32 H    0.965
                            14 O    0.887
    16   6 C    3.990 --    15 C    1.021    36 H    0.984    34 H    0.981
                            35 H    0.980
    17   8 O    2.405 --    12 P    1.303    18 C    0.905
    18   6 C    3.909 --    19 C    1.022    37 H    0.970    38 H    0.969
                            17 O    0.905
    19   6 C    3.990 --    18 C    1.022    39 H    0.983    40 H    0.980
                            41 H    0.977
    20   1 H    0.996 --     1 C    0.985
    21   1 H    0.996 --     1 C    0.984
    22   1 H    0.995 --     1 C    0.980
    23   1 H    0.998 --     2 C    0.974
    24   1 H    0.996 --     2 C    0.965
    25   1 H    0.998 --     7 C    0.974
    26   1 H    0.995 --     7 C    0.967
    27   1 H    0.997 --     8 C    0.985
    28   1 H    0.995 --     8 C    0.979
    29   1 H    0.995 --     8 C    0.981
    30   1 H    0.992 --    10 C    0.967
    31   1 H    0.992 --    10 C    0.943
    32   1 H    0.997 --    15 C    0.965
    33   1 H    0.995 --    15 C    0.970
    34   1 H    0.996 --    16 C    0.981
    35   1 H    0.995 --    16 C    0.980
    36   1 H    0.996 --    16 C    0.984
    37   1 H    0.996 --    18 C    0.970
    38   1 H    0.996 --    18 C    0.969
    39   1 H    0.996 --    19 C    0.983
    40   1 H    0.995 --    19 C    0.980
    41   1 H    0.996 --    19 C    0.977
 ---------------------------------------------------------------------------

Topologies differ in total number of bonds
Writing topology from bond orders to xtbtopo.mol

molecular dipole:
                 x           y           z       tot (Debye)
 q only:       -0.434      -0.778       1.818
   full:       -0.229      -0.543       2.213       5.821
molecular quadrupole (traceless):
                xx          xy          yy          xz          yz          zz
 q only:       23.467       1.530      -9.214       0.298       9.006     -14.253
  q+dip:       24.527       1.323     -10.558       0.475      10.340     -13.970
   full:       25.644       0.924     -10.112       0.206      10.723     -15.533


           -------------------------------------------------
          | TOTAL ENERGY              -65.011016369591 Eh   |
          | GRADIENT NORM               0.036140231259 Eh/α |
          | HOMO-LUMO GAP               2.816009881540 eV   |
           -------------------------------------------------

------------------------------------------------------------------------
 * finished run on 2025/04/09 at 05:20:47.765     
------------------------------------------------------------------------
 total:
 * wall-time:     0 d,  0 h,  0 min,  0.096 sec
 *  cpu-time:     0 d,  0 h,  0 min,  0.068 sec
 * ratio c/w:     0.707 speedup
 SCF:
 * wall-time:     0 d,  0 h,  0 min,  0.064 sec
 *  cpu-time:     0 d,  0 h,  0 min,  0.055 sec
 * ratio c/w:     0.865 speedup

