
                                 *****************
                                 * O   R   C   A *
                                 *****************

                                            #,                                       
                                            ###                                      
                                            ####                                     
                                            #####                                    
                                            ######                                   
                                           ########,                                 
                                     ,,################,,,,,                         
                               ,,#################################,,                 
                          ,,##########################################,,             
                       ,#########################################, ''#####,          
                    ,#############################################,,   '####,        
                  ,##################################################,,,,####,       
                ,###########''''           ''''###############################       
              ,#####''   ,,,,##########,,,,          '''####'''          '####       
            ,##' ,,,,###########################,,,                        '##       
           ' ,,###''''                  '''############,,,                           
         ,,##''                                '''############,,,,        ,,,,,,###''
      ,#''                                            '''#######################'''  
     '                                                          ''''####''''         
             ,#######,   #######,   ,#######,      ##                                
            ,#'     '#,  ##    ##  ,#'     '#,    #''#        ,####,   ,####,        
            ##       ##  ##   ,#'  ##            #'  '#       #'       #'  '#        
            ##       ##  #######   ##           ,######,      #####,   #    #        
            '#,     ,#'  ##    ##  '#,     ,#' ,#      #,     #,   #   #,  ,#        
             '#######'   ##     ##  '#######'  #'      '#     '####' # '####'        



                #########################################################
                #                        -***-                          #
                #          Department of theory and spectroscopy        #
                #                                                       #
                #                      Frank Neese                      #
                #                                                       #
                #     Directorship, Architecture, Infrastructure        #
                #                    SHARK, DRIVERS                     #
                #        Core code/Algorithms in most modules           #
                #                                                       #
                #        Max Planck Institute fuer Kohlenforschung      #
                #                Kaiser Wilhelm Platz 1                 #
                #                 D-45470 Muelheim/Ruhr                 #
                #                      Germany                          #
                #                                                       #
                #                  All rights reserved                  #
                #                        -***-                          #
                #########################################################


                         Program Version 6.0.0  -   RELEASE  -


 With contributions from (in alphabetic order):
   Daniel Aravena         : Magnetic Suceptibility
   Michael Atanasov       : Ab Initio Ligand Field Theory (pilot matlab implementation)
   Alexander A. Auer      : GIAO ZORA, VPT2 properties, NMR spectrum
   Ute Becker             : All parallelization in ORCA, NUMFREQ, NUMCALC
   Giovanni Bistoni       : ED, misc. LED, open-shell LED, HFLD
   Martin Brehm           : Molecular dynamics
   Dmytro Bykov           : pre 5.0 version of the SCF Hessian
   Marcos Casanova-Páez   : Triplet and SCS-CIS(D). UHF-(DLPNO)-IP/EA/STEOM-CCSD. UHF-CVS-IP/STEOM-CCSD
   Vijay G. Chilkuri      : MRCI spin determinant printing, contributions to CSF-ICE
   Pauline Colinet        : FMM embedding
   Dipayan Datta          : RHF DLPNO-CCSD density
   Achintya Kumar Dutta   : EOM-CC, STEOM-CC
   Nicolas Foglia         : Exact transition moments, OPA infrastructure, MCD improvements
   Dmitry Ganyushin       : Spin-Orbit,Spin-Spin,Magnetic field MRCI
   Miquel Garcia          : C-PCM and meta-GGA Hessian, CCSD/C-PCM, Gaussian charge scheme
   Tiago L. C. Gouveia    : GS-ROHF, GS-ROCIS
   Yang Guo               : DLPNO-NEVPT2, F12-NEVPT2, CIM, IAO-localization
   Andreas Hansen         : Spin unrestricted coupled pair/coupled cluster methods
   Ingolf Harden          : AUTO-CI MPn and infrastructure 
   Benjamin Helmich-Paris : MC-RPA, TRAH-(SCF,CASSCF), AVAS, COSX integrals, SCF dyn. polar.
   Lee Huntington         : MR-EOM, pCC
   Robert Izsak           : Overlap fitted RIJCOSX, COSX-SCS-MP3, EOM
   Riya Kayal             : Wick's Theorem for AUTO-CI, AUTO-CI UHF-CCSDT
   Emily Kempfer          : AUTO-CI, RHF CISDT and CCSDT
   Christian Kollmar      : KDIIS, OOCD, Brueckner-CCSD(T), CCSD density, CASPT2, CASPT2-K, improved NEVPT2
   Axel Koslowski         : Symmetry handling
   Simone Kossmann        : Meta GGA functionals, TD-DFT gradient, OOMP2, (MP2 Hessian; deprecated post 5.0)
   Lucas Lang             : DCDCAS
   Marvin Lechner         : AUTO-CI (C++ implementation), FIC-MRCC
   Spencer Leger          : CASSCF response
   Dagmar Lenk            : GEPOL surface, SMD, ORCA-2-JSON
   Dimitrios Liakos       : Extrapolation schemes; Compound Job, initial MDCI parallelization
   Dimitrios Manganas     : Further ROCIS development; embedding schemes. LFT, Crystal Embedding
   Dimitrios Pantazis     : SARC Basis sets
   Anastasios Papadopoulos: AUTO-CI, single reference methods and gradients
   Taras Petrenko         : pre 6.0 DFT Hessian and TD-DFT gradient, (ASA, deprecated), ECA, 1-Electron XAS/XES, NRVS
   Peter Pinski           : DLPNO-MP2, DLPNO-MP2 Gradient
   Christoph Reimann      : Effective Core Potentials
   Marius Retegan         : Local ZFS, SOC
   Christoph Riplinger    : Optimizer, TS searches, QM/MM, DLPNO-CCSD(T), (RO)-DLPNO pert. Triples
   Michael Roemelt        : Original ROCIS implementation
   Masaaki Saitow         : Open-shell DLPNO-CCSD energy and density
   Barbara Sandhoefer     : DKH picture change effects
   Kantharuban Sivalingam : CASSCF convergence/infrastructure, NEVPT2 and variants, FIC-MRCI
   Bernardo de Souza      : ESD, SOC TD-DFT
   Georgi Stoychev        : AutoAux, RI-MP2 NMR, DLPNO-MP2 response, X2C
   Van Anh Tran           : RI-MP2 g-tensors
   Willem Van den Heuvel  : Paramagnetic NMR
   Zikuan Wang            : NOTCH, Electric field optimization 
   Frank Wennmohs         : Technical directorship and infrastructure
   Hang Xu                : AUTO-CI-Response properties 


 We gratefully acknowledge several colleagues who have allowed us to
 interface, adapt or use parts of their codes:
   Stefan Grimme, W. Hujo, H. Kruse, P. Pracht,  : VdW corrections, initial TS optimization,
                  C. Bannwarth, S. Ehlert,         DFT functionals, gCP, sTDA/sTD-DF
                  L. Wittmann, M. Mueller
   Ed Valeev, F. Pavosevic, A. Kumar             : LibInt (2-el integral package), F12 methods
   Garnet Chan, S. Sharma, J. Yang, R. Olivares  : DMRG
   Ulf Ekstrom                                   : XCFun DFT Library
   Mihaly Kallay                                 : mrcc  (arbitrary order and MRCC methods)
   Frank Weinhold                                : gennbo (NPA and NBO analysis)
   Simon Mueller                                 : openCOSMO-RS
   Christopher J. Cramer and Donald G. Truhlar   : smd solvation model
   Lars Goerigk                                  : TD-DFT with DH, B97 family of functionals
   V. Asgeirsson, H. Jonsson                     : NEB implementation
   FAccTs GmbH                                   : IRC, NEB, NEB-TS, DLPNO-Multilevel, CI-OPT
                                                   MM, QMMM, 2- and 3-layer-ONIOM, Crystal-QMMM,
                                                   LR-CPCM, SF, NACMEs, symmetry and pop. for TD-DFT,
                                                   nearIR, NL-DFT gradient (VV10), updates on ESD,
                                                   ML-optimized integration grids, MBIS, APM,
                                                   GOAT, DOCKER, SOLVATOR, interface openCOSMO-RS
   S Lehtola, MJT Oliveira, MAL Marques          : LibXC Library
   Liviu Ungur et al                             : ANISO software


 Your calculation uses the libint2 library for the computation of 2-el integrals
 For citations please refer to: http://libint.valeyev.net

 Your ORCA version has been built with support for libXC version: 6.2.2
 For citations please refer to: https://libxc.gitlab.io

 This ORCA versions uses:
   CBLAS   interface :  Fast vector & matrix operations
   LAPACKE interface :  Fast linear algebra routines
   SCALAPACK package :  Parallel linear algebra routines
   Shared memory     :  Shared parallel matrices
   BLAS/LAPACK       :  OpenBLAS 0.3.27  USE64BITINT DYNAMIC_ARCH NO_AFFINITY SapphireRapids SINGLE_THREADED
        Core in use  :  SapphireRapids
   Copyright (c) 2011-2014, The OpenBLAS Project


Your calculation utilizes the geometrical counterpoise correction gCP
Please cite in your paper:
H.Kruse, S. Grimme J.Chem.Phys., 136, (2012), 154101 
   

Your calculation utilizes the atom-pairwise dispersion correction
based on EEQ partial charges (D4)


Your calculation utilizes the SMD solvation module
Please cite in your paper:
A.V. Marenich, C.J. Cramer, D.G. Truhlar J. Phys. Chem. B, 113, (2009), 6378 

================================================================================

----- Orbital basis set information -----
Your calculation utilizes the basis: def2-mTZVPP
   Stefan Grimme, Andreas Hansen, Sebastian Ehlert, and Jan-Michael Mewes 
   J. Chem. Phys. 154, 064103 (2021). DOI: 10.1063/5.0040021

----- AuxJ basis set information -----
Your calculation utilizes the auxiliary basis: def2/J
   F. Weigend, Phys. Chem. Chem. Phys. 8, 1057 (2006).

================================================================================
                                        WARNINGS
                       Please study these warnings very carefully!
================================================================================

Using LibXC functional ID 497 : Re-regularized SCAN exchange by Furness et al
[ 1]  J. W. Furness, A. D. Kaplan, J. Ning, J. P. Perdew, and J. Sun.,  J. Phys. Chem. Lett. 11, 8208-8215 (2020)
[ 2]  J. W. Furness, A. D. Kaplan, J. Ning, J. P. Perdew, and J. Sun.,  J. Phys. Chem. Lett. 11, 9248-9248 (2020)
Using LibXC functional ID 498 : Re-regularized SCAN correlation by Furness et al
[ 1]  J. W. Furness, A. D. Kaplan, J. Ning, J. P. Perdew, and J. Sun.,  J. Phys. Chem. Lett. 11, 8208-8215 (2020)
[ 2]  J. W. Furness, A. D. Kaplan, J. Ning, J. P. Perdew, and J. Sun.,  J. Phys. Chem. Lett. 11, 9248-9248 (2020)
Using LibXC functional ID 497 : Re-regularized SCAN exchange by Furness et al
[ 1]  J. W. Furness, A. D. Kaplan, J. Ning, J. P. Perdew, and J. Sun.,  J. Phys. Chem. Lett. 11, 8208-8215 (2020)
[ 2]  J. W. Furness, A. D. Kaplan, J. Ning, J. P. Perdew, and J. Sun.,  J. Phys. Chem. Lett. 11, 9248-9248 (2020)
Using LibXC functional ID 498 : Re-regularized SCAN correlation by Furness et al
[ 1]  J. W. Furness, A. D. Kaplan, J. Ning, J. P. Perdew, and J. Sun.,  J. Phys. Chem. Lett. 11, 8208-8215 (2020)
[ 2]  J. W. Furness, A. D. Kaplan, J. Ning, J. P. Perdew, and J. Sun.,  J. Phys. Chem. Lett. 11, 9248-9248 (2020)

================================================================================
                                       INPUT FILE
================================================================================
NAME = sp_solv.inp
|  1> ! r2scan-3c def2/J RI DEFGRID2 scfconv6 printgap
|  2> %output
|  3>     printlevel normal
|  4> end
|  5> %cpcm
|  6>     smd true
|  7>     smdsolvent "water"
|  8> end
|  9> * xyz 0 1
| 10> C 4.9363850079 -1.6239239078 -0.7400637509
| 11> C 4.4293350096 -0.5339226087 -1.6607363451
| 12> O 3.03508796 -0.2402479871 -1.4340493252
| 13> P 2.5347139087 0.4410971849 -0.088922982
| 14> S 3.7503781391 1.7413130533 0.7268651596
| 15> O 2.2010658076 -0.8347593657 0.8104669572
| 16> C 2.1401985954 -0.7659594426 2.2430098421
| 17> C 0.9953331225 0.0985231338 2.7301187124
| 18> S 0.6770171651 1.1658257774 -0.7836137602
| 19> C 0.0143036495 -0.3828353646 -1.477070231
| 20> S -0.793911084 -1.4465973563 -0.2554796037
| 21> P -2.5051302147 -0.2476866169 -0.0073054032
| 22> S -3.23950909 0.6244452961 -1.6093412925
| 23> O -1.9976049049 0.6944773164 1.161325375
| 24> C -2.6945143059 1.9029653226 1.5380071073
| 25> C -2.0508502836 3.1116174655 0.8880667328
| 26> O -3.553401655 -1.1559751692 0.7727675186
| 27> C -4.5132531156 -1.9834443587 0.0924701069
| 28> C -3.853276852 -3.1407013287 -0.6290038369
| 29> H 4.2986725559 -2.5015462436 -0.8065183641
| 30> H 5.949922212 -1.8899671766 -1.023464903
| 31> H 4.9399802957 -1.2668364816 0.2888695366
| 32> H 4.4638159973 -0.8372774975 -2.7079703917
| 33> H 5.002955544 0.3876202791 -1.5208487248
| 34> H 2.0213826339 -1.8052392042 2.5516635445
| 35> H 3.0927876401 -0.3693050239 2.6090968125
| 36> H 0.9728522977 0.0892602782 3.8151147608
| 37> H 1.1391246368 1.1243845109 2.3891002741
| 38> H 0.0451162699 -0.267030722 2.348689269
| 39> H 0.8218868096 -0.954188537 -1.9235150711
| 40> H -0.7209894898 -0.0803287311 -2.2235317786
| 41> H -3.7465192112 1.8183276547 1.2518494964
| 42> H -2.6118422892 1.9424932639 2.6251933789
| 43> H -2.5396870847 4.0133132683 1.2423644162
| 44> H -0.9931908011 3.152697024 1.1341867825
| 45> H -2.1480087368 3.0550654141 -0.1941347189
| 46> H -5.1743905036 -2.3272116298 0.8889985158
| 47> H -5.071141296 -1.3582196794 -0.6121183297
| 48> H -3.2487341373 -2.767870405 -1.454787228
| 49> H -3.2121877487 -3.693997184 0.0525002079
| 50> H -4.6183224609 -3.8017753111 -1.0233478205
| 51> *
| 52> 
| 53>                          ****END OF INPUT****
================================================================================

                       ****************************
                       * Single Point Calculation *
                       ****************************

---------------------------------
CARTESIAN COORDINATES (ANGSTROEM)
---------------------------------
  C      4.936385   -1.623924   -0.740064
  C      4.429335   -0.533923   -1.660736
  O      3.035088   -0.240248   -1.434049
  P      2.534714    0.441097   -0.088923
  S      3.750378    1.741313    0.726865
  O      2.201066   -0.834759    0.810467
  C      2.140199   -0.765959    2.243010
  C      0.995333    0.098523    2.730119
  S      0.677017    1.165826   -0.783614
  C      0.014304   -0.382835   -1.477070
  S     -0.793911   -1.446597   -0.255480
  P     -2.505130   -0.247687   -0.007305
  S     -3.239509    0.624445   -1.609341
  O     -1.997605    0.694477    1.161325
  C     -2.694514    1.902965    1.538007
  C     -2.050850    3.111617    0.888067
  O     -3.553402   -1.155975    0.772768
  C     -4.513253   -1.983444    0.092470
  C     -3.853277   -3.140701   -0.629004
  H      4.298673   -2.501546   -0.806518
  H      5.949922   -1.889967   -1.023465
  H      4.939980   -1.266836    0.288870
  H      4.463816   -0.837277   -2.707970
  H      5.002956    0.387620   -1.520849
  H      2.021383   -1.805239    2.551664
  H      3.092788   -0.369305    2.609097
  H      0.972852    0.089260    3.815115
  H      1.139125    1.124385    2.389100
  H      0.045116   -0.267031    2.348689
  H      0.821887   -0.954189   -1.923515
  H     -0.720989   -0.080329   -2.223532
  H     -3.746519    1.818328    1.251849
  H     -2.611842    1.942493    2.625193
  H     -2.539687    4.013313    1.242364
  H     -0.993191    3.152697    1.134187
  H     -2.148009    3.055065   -0.194135
  H     -5.174391   -2.327212    0.888999
  H     -5.071141   -1.358220   -0.612118
  H     -3.248734   -2.767870   -1.454787
  H     -3.212188   -3.693997    0.052500
  H     -4.618322   -3.801775   -1.023348

----------------------------
CARTESIAN COORDINATES (A.U.)
----------------------------
  NO LB      ZA    FRAG     MASS         X           Y           Z
   0 C     6.0000    0    12.011    9.328416   -3.068771   -1.398518
   1 C     6.0000    0    12.011    8.370230   -1.008968   -3.138337
   2 O     8.0000    0    15.999    5.735485   -0.454003   -2.709960
   3 P    15.0000    0    30.974    4.789915    0.833553   -0.168040
   4 S    16.0000    0    32.060    7.087188    3.290605    1.373576
   5 O     8.0000    0    15.999    4.159412   -1.577467    1.531561
   6 C     6.0000    0    12.011    4.044389   -1.447454    4.238674
   7 C     6.0000    0    12.011    1.880907    0.186182    5.159177
   8 S    16.0000    0    32.060    1.279377    2.203091   -1.480815
   9 C     6.0000    0    12.011    0.027030   -0.723454   -2.791258
  10 S    16.0000    0    32.060   -1.500275   -2.733673   -0.482786
  11 P    15.0000    0    30.974   -4.734010   -0.468060   -0.013805
  12 S    16.0000    0    32.060   -6.121785    1.180031   -3.041214
  13 O     8.0000    0    15.999   -3.774926    1.312372    2.194587
  14 C     6.0000    0    12.011   -5.091894    3.596083    2.906412
  15 C     6.0000    0    12.011   -3.875545    5.880105    1.678203
  16 O     8.0000    0    15.999   -6.714956   -2.184476    1.460319
  17 C     6.0000    0    12.011   -8.528812   -3.748167    0.174743
  18 C     6.0000    0    12.011   -7.281638   -5.935065   -1.188645
  19 H     1.0000    0     1.008    8.123314   -4.727237   -1.524099
  20 H     1.0000    0     1.008   11.243723   -3.571520   -1.934068
  21 H     1.0000    0     1.008    9.335210   -2.393974    0.545884
  22 H     1.0000    0     1.008    8.435390   -1.582225   -5.117322
  23 H     1.0000    0     1.008    9.454216    0.732496   -2.873988
  24 H     1.0000    0     1.008    3.819860   -3.411408    4.821945
  25 H     1.0000    0     1.008    5.844522   -0.697885    4.930478
  26 H     1.0000    0     1.008    1.838424    0.168677    7.209522
  27 H     1.0000    0     1.008    2.152634    2.124779    4.514745
  28 H     1.0000    0     1.008    0.085257   -0.504615    4.438379
  29 H     1.0000    0     1.008    1.553141   -1.803155   -3.634917
  30 H     1.0000    0     1.008   -1.362473   -0.151799   -4.201866
  31 H     1.0000    0     1.008   -7.079895    3.436141    2.365653
  32 H     1.0000    0     1.008   -4.935667    3.670780    4.960897
  33 H     1.0000    0     1.008   -4.799313    7.584063    2.347729
  34 H     1.0000    0     1.008   -1.876859    5.957734    2.143302
  35 H     1.0000    0     1.008   -4.059148    5.773237   -0.366861
  36 H     1.0000    0     1.008   -9.778181   -4.397793    1.679964
  37 H     1.0000    0     1.008   -9.583068   -2.566663   -1.156736
  38 H     1.0000    0     1.008   -6.139218   -5.230517   -2.749149
  39 H     1.0000    0     1.008   -6.070155   -6.980643    0.099211
  40 H     1.0000    0     1.008   -8.727365   -7.184314   -1.933847

--------------------------------
INTERNAL COORDINATES (ANGSTROEM)
--------------------------------
 C      0   0   0     0.000000000000     0.00000000     0.00000000
 C      1   0   0     1.514212851130     0.00000000     0.00000000
 O      2   1   0     1.442760071419   111.99919158     0.00000000
 P      3   2   1     1.588700825767   121.64773351    67.88396804
 S      4   3   2     1.958037567946   116.23159616    34.24071437
 O      4   3   2     1.596256011989   101.54269164   268.43126032
 C      6   4   3     1.435485062276   122.19735450   158.65612317
 C      7   6   4     1.515032054929   112.34904129    65.90025782
 S      4   3   2     2.111602235575    98.37965189   160.09367192
 C      9   4   3     1.821653757824    98.83049279    52.53128744
 S     10   9   4     1.810271883210   113.89754811    84.08534758
 P     11  10   9     2.104102732310    96.19205315    72.24797065
 S     12  11  10     1.966327896554   117.41087608    38.22317435
 O     12  11  10     1.584598596824    99.51415880   270.73300354
 C     14  12  11     1.444996575006   122.34645454   166.76651549
 C     15  14  12     1.515772366335   110.50533881   262.26764708
 O     12  11  10     1.591343730975   105.56485010   166.52538018
 C     17  12  11     1.438340938148   122.41876552   268.92282271
 C     18  17  12     1.515036968101   111.96064677    68.66003488
 H      1   2   3     1.086882859993   110.34074278    52.99605098
 H      1   2   3     1.085519644217   109.28939269   173.46758597
 H      1   2   3     1.089140976261   109.84669049   292.88539882
 H      2   1   3     1.090831002232   111.89761439   243.95772552
 H      2   1   3     1.094463502294   110.66458009   121.03035597
 H      7   6   4     1.090635944568   103.96750529   186.89539406
 H      7   6   4     1.094888252678   108.30933201   304.10080838
 H      8   7   6     1.085268452053   109.40355893   178.04127562
 H      8   7   6     1.090578351092   109.66813662   297.38089519
 H      8   7   6     1.087212080851   110.84240521    57.49689479
 H     10   9   4     1.085333130122   109.47713833   323.73640806
 H     10   9   4     1.090582920304   105.66569305   203.56793668
 H     15  14  12     1.093509960576   109.33175177    24.69970911
 H     15  14  12     1.091041296031   104.68553591   142.12236327
 H     16  15  14     1.085146804520   109.34709075   184.29523213
 H     16  15  14     1.086695076787   110.26286515   304.68852385
 H     16  15  14     1.088024761486   110.31154732    64.27414163
 H     18  17  12     1.090750241199   103.91081866   189.46021671
 H     18  17  12     1.094801345645   108.41585806   306.38567879
 H     19  18  17     1.089216691288   109.95939863   292.69798388
 H     19  18  17     1.087004740073   110.31372085    52.69643137
 H     19  18  17     1.085274514261   109.34384746   173.15122642

---------------------------
INTERNAL COORDINATES (A.U.)
---------------------------
 C      0   0   0     0.000000000000     0.00000000     0.00000000
 C      1   0   0     2.861447597099     0.00000000     0.00000000
 O      2   1   0     2.726421411939   111.99919158     0.00000000
 P      3   2   1     3.002209469434   121.64773351    67.88396804
 S      4   3   2     3.700154763347   116.23159616    34.24071437
 O      4   3   2     3.016486702284   101.54269164   268.43126032
 C      6   4   3     2.712673637036   122.19735450   158.65612317
 C      7   6   4     2.862995667928   112.34904129    65.90025782
 S      4   3   2     3.990349929013    98.37965189   160.09367192
 C      9   4   3     3.442426713116    98.83049279    52.53128744
 S     10   9   4     3.420918087204   113.89754811    84.08534758
 P     11  10   9     3.976177921702    96.19205315    72.24797065
 S     12  11  10     3.715821213976   117.41087608    38.22317435
 O     12  11  10     2.994457380192    99.51415880   270.73300354
 C     14  12  11     2.730647791216   122.34645454   166.76651549
 C     15  14  12     2.864394653739   110.50533881   262.26764708
 O     12  11  10     3.007203836475   105.56485010   166.52538018
 C     17  12  11     2.718070460308   122.41876552   268.92282271
 C     18  17  12     2.863004952476   111.96064677    68.66003488
 H      1   2   3     2.053910945040   110.34074278    52.99605098
 H      1   2   3     2.051334840561   109.28939269   173.46758597
 H      1   2   3     2.058178166364   109.84669049   292.88539882
 H      2   1   3     2.061371852609   111.89761439   243.95772552
 H      2   1   3     2.068236282908   110.66458009   121.03035597
 H      7   6   4     2.061003247044   103.96750529   186.89539406
 H      7   6   4     2.069038944810   108.30933201   304.10080838
 H      8   7   6     2.050860156165   109.40355893   178.04127562
 H      8   7   6     2.060894411147   109.66813662   297.38089519
 H      8   7   6     2.054533082298   110.84240521    57.49689479
 H     10   9   4     2.050982380002   109.47713833   323.73640806
 H     10   9   4     2.060903045706   105.66569305   203.56793668
 H     15  14  12     2.066434350204   109.33175177    24.69970911
 H     15  14  12     2.061769250296   104.68553591   142.12236327
 H     16  15  14     2.050630275642   109.34709075   184.29523213
 H     16  15  14     2.053556086208   110.26286515   304.68852385
 H     16  15  14     2.056068826134   110.31154732    64.27414163
 H     18  17  12     2.061219236375   103.91081866   189.46021671
 H     18  17  12     2.068874714318   108.41585806   306.38567879
 H     19  18  17     2.058321247030   109.95939863   292.69798388
 H     19  18  17     2.054141265012   110.31372085    52.69643137
 H     19  18  17     2.050871612078   109.34384746   173.15122642

---------------------
BASIS SET INFORMATION
---------------------
There are 5 groups of distinct atoms

 Group   1 Type C   : 11s6p1d contracted to 5s3p1d pattern {62111/411/1}
 Group   2 Type O   : 11s6p2d contracted to 5s3p2d pattern {62111/411/11}
 Group   3 Type P   : 14s9p2d contracted to 5s4p2d pattern {73211/6111/11}
 Group   4 Type S   : 14s9p2d contracted to 5s4p2d pattern {73211/6111/11}
 Group   5 Type H   : 4s1p contracted to 2s1p pattern {31/1}

Atom   0C    basis set group =>   1
Atom   1C    basis set group =>   1
Atom   2O    basis set group =>   2
Atom   3P    basis set group =>   3
Atom   4S    basis set group =>   4
Atom   5O    basis set group =>   2
Atom   6C    basis set group =>   1
Atom   7C    basis set group =>   1
Atom   8S    basis set group =>   4
Atom   9C    basis set group =>   1
Atom  10S    basis set group =>   4
Atom  11P    basis set group =>   3
Atom  12S    basis set group =>   4
Atom  13O    basis set group =>   2
Atom  14C    basis set group =>   1
Atom  15C    basis set group =>   1
Atom  16O    basis set group =>   2
Atom  17C    basis set group =>   1
Atom  18C    basis set group =>   1
Atom  19H    basis set group =>   5
Atom  20H    basis set group =>   5
Atom  21H    basis set group =>   5
Atom  22H    basis set group =>   5
Atom  23H    basis set group =>   5
Atom  24H    basis set group =>   5
Atom  25H    basis set group =>   5
Atom  26H    basis set group =>   5
Atom  27H    basis set group =>   5
Atom  28H    basis set group =>   5
Atom  29H    basis set group =>   5
Atom  30H    basis set group =>   5
Atom  31H    basis set group =>   5
Atom  32H    basis set group =>   5
Atom  33H    basis set group =>   5
Atom  34H    basis set group =>   5
Atom  35H    basis set group =>   5
Atom  36H    basis set group =>   5
Atom  37H    basis set group =>   5
Atom  38H    basis set group =>   5
Atom  39H    basis set group =>   5
Atom  40H    basis set group =>   5
---------------------------------
AUXILIARY/J BASIS SET INFORMATION
---------------------------------
There are 5 groups of distinct atoms

 Group   1 Type C   : 12s5p4d2f1g contracted to 6s4p3d1f1g pattern {711111/2111/211/2/1}
 Group   2 Type O   : 12s5p4d2f1g contracted to 6s4p3d1f1g pattern {711111/2111/211/2/1}
 Group   3 Type P   : 14s5p5d2f1g contracted to 8s4p3d1f1g pattern {71111111/2111/311/2/1}
 Group   4 Type S   : 14s5p5d2f1g contracted to 8s4p3d1f1g pattern {71111111/2111/311/2/1}
 Group   5 Type H   : 5s2p1d contracted to 3s1p1d pattern {311/2/1}

Atom   0C    basis set group =>   1
Atom   1C    basis set group =>   1
Atom   2O    basis set group =>   2
Atom   3P    basis set group =>   3
Atom   4S    basis set group =>   4
Atom   5O    basis set group =>   2
Atom   6C    basis set group =>   1
Atom   7C    basis set group =>   1
Atom   8S    basis set group =>   4
Atom   9C    basis set group =>   1
Atom  10S    basis set group =>   4
Atom  11P    basis set group =>   3
Atom  12S    basis set group =>   4
Atom  13O    basis set group =>   2
Atom  14C    basis set group =>   1
Atom  15C    basis set group =>   1
Atom  16O    basis set group =>   2
Atom  17C    basis set group =>   1
Atom  18C    basis set group =>   1
Atom  19H    basis set group =>   5
Atom  20H    basis set group =>   5
Atom  21H    basis set group =>   5
Atom  22H    basis set group =>   5
Atom  23H    basis set group =>   5
Atom  24H    basis set group =>   5
Atom  25H    basis set group =>   5
Atom  26H    basis set group =>   5
Atom  27H    basis set group =>   5
Atom  28H    basis set group =>   5
Atom  29H    basis set group =>   5
Atom  30H    basis set group =>   5
Atom  31H    basis set group =>   5
Atom  32H    basis set group =>   5
Atom  33H    basis set group =>   5
Atom  34H    basis set group =>   5
Atom  35H    basis set group =>   5
Atom  36H    basis set group =>   5
Atom  37H    basis set group =>   5
Atom  38H    basis set group =>   5
Atom  39H    basis set group =>   5
Atom  40H    basis set group =>   5

Checking for AutoStart:
The File: sp_solv.gbw exists
Trying to determine its content:
     ... Fine, the file contains calculation information
     ... Fine, the calculation information was read
     ... Fine, the file contains a basis set
     ... Fine, the basis set was read
     ... Fine, the file contains a geometry
     ... Fine, the geometry was read
     ... Fine, the file contains a set of orbitals
     ... Fine, the orbitals can be read
     => possible old guess file was deleted
     => GBW file was renamed to GES file
     => GES file is set as startup file
     => Guess is set to MORead
     ... now leaving AutoStart

------------------------------------------------------------------------------
                             ORCA STARTUP CALCULATIONS
                           -- RI-GTO INTEGRALS CHOSEN --
------------------------------------------------------------------------------
------------------------------------------------------------------------------
                   ___                                                        
                  /   \      - P O W E R E D   B Y -                         
                 /     \                                                     
                 |  |  |   _    _      __       _____    __    __             
                 |  |  |  | |  | |    /  \     |  _  \  |  |  /  |          
                  \  \/   | |  | |   /    \    | | | |  |  | /  /          
                 / \  \   | |__| |  /  /\  \   | |_| |  |  |/  /          
                |  |  |   |  __  | /  /__\  \  |    /   |      \           
                |  |  |   | |  | | |   __   |  |    \   |  |\   \          
                \     /   | |  | | |  |  |  |  | |\  \  |  | \   \       
                 \___/    |_|  |_| |__|  |__|  |_| \__\ |__|  \__/        
                                                                              
                      - O R C A' S   B I G   F R I E N D -                    
                                      &                                       
                       - I N T E G R A L  F E E D E R -                       
                                                                              
 v1 FN, 2020, v2 2021, v3 2022-2024                                           
------------------------------------------------------------------------------


----------------------
SHARK INTEGRAL PACKAGE
----------------------

Number of atoms                             ...     41
Number of basis functions                   ...    539
Number of shells                            ...    253
Maximum angular momentum                    ...      2
Integral batch strategy                     ... SHARK/LIBINT Hybrid
RI-J (if used) integral strategy            ... SPLIT-RIJ (Revised 2003 algorithm where possible)
Printlevel                                  ...      1
Contraction scheme used                     ... SEGMENTED contraction
Prescreening option                         ... SCHWARTZ
   Thresh                                   ... 1.000e-10
   Tcut                                     ... 1.000e-11
   Tpresel                                  ... 1.000e-11 
Coulomb Range Separation                    ... NOT USED
Exchange Range Separation                   ... NOT USED
Multipole approximations                    ... NOT USED
Finite Nucleus Model                        ... NOT USED
CABS basis                                  ... NOT available
Auxiliary Coulomb fitting basis             ... AVAILABLE
   # of basis functions in Aux-J            ...   1185
   # of shells in Aux-J                     ...    407
   Maximum angular momentum in Aux-J        ...      4
Auxiliary J/K fitting basis                 ... NOT available
Auxiliary Correlation fitting basis         ... NOT available
Auxiliary 'external' fitting basis          ... NOT available

Checking pre-screening integrals            ... done (  0.0 sec) Dimension = 253
Check shell pair data                       ... done (  0.0 sec)
Shell pair information
Shell pair cut-off parameter TPreSel        ...   1.0e-11
Total number of shell pairs                 ...     32131
Shell pairs after pre-screening             ...     21223
Total number of primitive shell pairs       ...    124843
Primitive shell pairs kept                  ...     49556
          la=0 lb=0:   5986 shell pairs
          la=1 lb=0:   7701 shell pairs
          la=1 lb=1:   2537 shell pairs
          la=2 lb=0:   2830 shell pairs
          la=2 lb=1:   1822 shell pairs
          la=2 lb=2:    347 shell pairs

Calculating one electron integrals          ... done (  0.1 sec)
Calculating RI/J V-Matrix + Cholesky decomp.... done (  0.1 sec)
Calculating Nuclear repulsion               ... done (  0.0 sec) ENN=   2751.857734692830 Eh

Diagonalization of the overlap matrix:
Smallest eigenvalue                        ... 2.625e-04
Time for diagonalization                   ...    0.032 sec
Threshold for overlap eigenvalues          ... 1.000e-07
Number of eigenvalues below threshold      ... 0
Time for construction of square roots      ...    0.060 sec
Total time needed                          ...    0.102 sec

-------------------
DFT GRID GENERATION
-------------------

General Integration Accuracy     IntAcc      ... 4.388
Radial Grid Type                 RadialGrid  ... OptM3 with GC (2021)
Angular Grid (max. ang.)         AngularGrid ... 4 (Lebedev-302)
Angular grid pruning method      GridPruning ... 4 (adaptive)
Weight generation scheme         WeightScheme... mBecke (2022)
Basis function cutoff            BFCut       ... 1.0000e-10
Integration weight cutoff        WCut        ... 1.0000e-14
Partially contracted basis set               ... off
Rotationally invariant grid construction     ... off
Angular grids for H and He will be reduced by one unit
Diffuse basis detected: some atoms will have their outermost
                        angular grid increased by 1.

Total number of grid points                  ...   192525
Total number of batches                      ...     3025
Average number of points per batch           ...       63
Average number of grid points per atom       ...     4696
Initializing property integral containers    ... done (  0.0 sec)

SHARK setup successfully completed in   3.1 seconds

Maximum memory used throughout the entire STARTUP-calculation: 101.6 MB
-------------------------------------------------------------------------------
                                 ORCA GUESS
                   Start orbitals & Density for SCF / CASSCF
-------------------------------------------------------------------------------

------------
SCF SETTINGS
------------
Hamiltonian:
 Density Functional     Method          .... DFT(GTOs)
  Functional kind                       .... Exchange
  Functional name                       .... Re-regularized SCAN exchange by Furness et al
  Functional family                     .... MGGA
  Functional refs                              
    [ 0] J. W. Furness, A. D. Kaplan, J. Ning, J. P. Perdew, and J. Sun.,  J. Phys. Chem. Lett. 11, 8208-8215 (2020), doi: 10.1021/acs.jpclett.0c02405
    [ 1] J. W. Furness, A. D. Kaplan, J. Ning, J. P. Perdew, and J. Sun.,  J. Phys. Chem. Lett. 11, 9248-9248 (2020), doi: 10.1021/acs.jpclett.0c03077
  Functional external parameters        .... 6
    Parameter  0 _c1        =  6.670000e-01 : c1 parameter        
    Parameter  1 _c2        =  8.000000e-01 : c2 parameter        
    Parameter  2 _d         =  1.240000e+00 : d parameter         
    Parameter  3 _k1        =  6.500000e-02 : k1 parameter        
    Parameter  4 _eta       =  1.000000e-03 : eta parameter       
    Parameter  5 _dp2       =  3.610000e-01 : dp2 parameter       
  Functional kind                       .... Correlation
  Functional name                       .... Re-regularized SCAN correlation by Furness et al
  Functional family                     .... MGGA
  Functional refs                              
    [ 0] J. W. Furness, A. D. Kaplan, J. Ning, J. P. Perdew, and J. Sun.,  J. Phys. Chem. Lett. 11, 8208-8215 (2020), doi: 10.1021/acs.jpclett.0c02405
    [ 1] J. W. Furness, A. D. Kaplan, J. Ning, J. P. Perdew, and J. Sun.,  J. Phys. Chem. Lett. 11, 9248-9248 (2020), doi: 10.1021/acs.jpclett.0c03077
  Functional external parameters        .... 1
    Parameter  0 _eta       =  1.000000e-03 : Regularization parameter
 Gradients option       PostSCFGGA      .... off
 RI-approximation to the Coulomb term is turned on
   Number of AuxJ basis functions       .... 1185


General Settings:
 Integral files         IntName         .... sp_solv
 Hartree-Fock type      HFTyp           .... RHF
 Total Charge           Charge          ....    0
 Multiplicity           Mult            ....    1
 Number of Electrons    NEL             ....  202
 Basis Dimension        Dim             ....  539
 Nuclear Repulsion      ENuc            ....   2751.8577346928 Eh

Convergence Acceleration:
 AO-DIIS                CNVDIIS         .... on
   Start iteration      DIISMaxIt       ....    12
   Startup error        DIISStart       ....  0.200000
   # of expansion vecs  DIISMaxEq       ....     5
   Bias factor          DIISBfac        ....   1.050
   Max. coefficient     DIISMaxC        ....  10.000
 MO-DIIS                CNVKDIIS        .... off
 Trust-Rad. Augm. Hess. CNVTRAH         .... auto
   Auto Start mean grad. ratio tolernc. ....  1.125000
   Auto Start start iteration           ....     1
   Auto Start num. interpolation iter.  ....    10
   Max. Number of Micro iterations      ....    24
   Max. Number of Macro iterations      .... Maxiter - #DIIS iter
   Number of Davidson start vectors     ....     2
   Converg. threshold    (grad. norm)   ....   3.330e-04
   Grad. Scal. Fac. for Micro threshold ....   0.100
   Minimum threshold for Micro iter.    ....   1.000e-02
   NR start threshold (gradient norm)   ....   1.000e-04
   Initial trust radius                 ....   0.400
   Minimum AH scaling param. (alpha)    ....   1.000
   Maximum AH scaling param. (alpha)    .... 1000.000
   Quad. conv. algorithm                .... NR
   White noise on init. David. guess    .... on
   Maximum white noise                  ....   0.010
   Pseudo random numbers                .... off
   Inactive MOs                         .... canonical
   Orbital update algorithm             .... Taylor
   Preconditioner                       .... Diag
   Full preconditioner red. dimension   ....   250
   COSX micro iterations for RIJONX calc.... off
 SOSCF                  CNVSOSCF        .... on
   Start iteration      SOSCFMaxIt      ....   150
   Startup grad/error   SOSCFStart      ....  0.003300
   Hessian update       SOSCFHessUp     .... L-BFGS
 Level Shifting         CNVShift        .... on
   Level shift para.    LevelShift      ....    0.2500
   Turn off err/grad.   ShiftErr        ....    0.0010
 Zerner damping         CNVZerner       .... off
 Static damping         CNVDamp         .... on
   Fraction old density DampFac         ....    0.7000
   Max. Damping (<1)    DampMax         ....    0.9800
   Min. Damping (>=0)   DampMin         ....    0.0000
   Turn off err/grad.   DampErr         ....    0.1000

SCF Procedure:
 Maximum # iterations   MaxIter         ....   125
 SCF integral mode      SCFMode         .... Direct
   Integral package                     .... SHARK and LIBINT hybrid scheme
 Reset frequency        DirectResetFreq ....    20
 Integral Threshold     Thresh          ....  1.000e-10 Eh
 Primitive CutOff       TCut            ....  1.000e-11 Eh

Convergence Tolerance:
 Convergence Check Mode ConvCheckMode   .... Total+1el-Energy
 Convergence forced     ConvForced      .... 0
 Energy Change          TolE            ....  1.000e-06 Eh
 1-El. energy change                    ....  1.000e-03 Eh
 Orbital Gradient       TolG            ....  3.330e-04
 Orbital Rotation angle TolX            ....  3.330e-04
 DIIS Error             TolErr          ....  1.000e-06

---------------------
INITIAL GUESS: MOREAD
---------------------
Guess MOs are being read from file: sp_solv.ges
Input Geometry matches current geometry (good)
Atom 0: N(Shells)= 9 and 6 - projection required
Input basis set needs projection
NBasis(read)= 334
NBasis(calc)= 539
Basis set overlap was calculated
Using GuessMode=FMatrix for the initial guess
C*T matrix was formed
Effective Fockian was calculated
Effective Fockian was diagonalized
Initial density was built
                      ------------------
                      INITIAL GUESS DONE (   0.2 sec)
                      ------------------
             **** ENERGY FILE WAS UPDATED (sp_solv.en.tmp) ****
Finished Guess after   0.6 sec
Maximum memory used throughout the entire GUESS-calculation: 58.6 MB

-------------------------------------------------------------------------------------------
                                      ORCA LEAN-SCF
                              memory conserving SCF solver
-------------------------------------------------------------------------------------------

--------------------
CPCM SOLVATION MODEL
--------------------
CPCM parameters:
  Epsilon                                         ...      78.3550
  Refrac                                          ...       1.3328
  Rsolv                                           ...       1.3000
  Surface type                                    ... GAUSSIAN VDW
  Discretization scheme                           ... Constant charge density
    Threshold for H atoms                         ...       5.0000 (charges/Ang^2)
    Threshold for non-H atoms                     ...       5.0000 (charges/Ang^2)
  Epsilon function type                           ...         CPCM
Solvent:                                          ... WATER
SMD-CDS solvent descriptors:
  Soln                                            ...       1.3328
  Soln25                                          ...       1.3323
  Sola                                            ...       0.0000
  Solb                                            ...       0.0000
  Solg                                            ...       0.0000
  Solc                                            ...       0.0000
  Solh                                            ...       0.0000
Radii:
  Scheme                                          ... Element-dependent radii
  Radius for C  used is    3.4960 Bohr (=   1.8500 Ang.)
  Radius for O  used is    2.8724 Bohr (=   1.5200 Ang.)
  Radius for P  used is    4.0062 Bohr (=   2.1200 Ang.)
  Radius for S  used is    4.7054 Bohr (=   2.4900 Ang.)
  Radius for H  used is    2.2677 Bohr (=   1.2000 Ang.)
Calculating surface                               ...        done! (  0.0s)
Cavity surface points                             ...         3300
Cavity Volume                                     ...    2776.3912
Cavity Surface-area                               ...    1347.7983
Calculating surface distance matrix               ...        done! (  0.1s)
Performing Cholesky decomposition & store         ...        done! (  0.4s)
Overall time for CPCM initialization              ...                 0.5s

----------------------------------------D-I-I-S--------------------------------------------
Iteration    Energy (Eh)           Delta-E    RMSDP     MaxDP     DIISErr   Damp  Time(sec)
-------------------------------------------------------------------------------------------
               ***  Starting incremental Fock matrix formation  ***
    1    -2932.0229083276408346     0.00e+00  2.31e-03  1.08e-01  6.34e-01  0.700  13.2
    2    -2932.1667224203702062    -1.44e-01  1.88e-03  8.11e-02  4.46e-01  0.700  11.1
    3    -2932.2684328991190341    -1.02e-01  1.39e-03  5.89e-02  3.13e-01  0.700  10.9
    4    -2932.3398282142370590    -7.14e-02  9.96e-04  4.20e-02  2.19e-01  0.700  10.7
                               ***Turning on AO-DIIS***
    5    -2932.3899007943691686    -5.01e-02  7.26e-04  3.01e-02  1.53e-01  0.700  10.5
    6    -2932.4249961329014695    -3.51e-02  5.18e-04  2.13e-02  1.07e-01  0.700  10.2
    7    -2932.4496007859024758    -2.46e-02  3.66e-04  1.50e-02  7.50e-02  0.700  10.0
    8    -2932.4668406478031102    -1.72e-02  8.60e-04  3.52e-02  5.26e-02  0.000  10.1
                              *** Initializing SOSCF ***
---------------------------------------S-O-S-C-F--------------------------------------
Iteration    Energy (Eh)           Delta-E    RMSDP     MaxDP     MaxGrad    Time(sec)
--------------------------------------------------------------------------------------
    9    -2932.5071218340162886    -4.03e-02  7.63e-06  3.93e-04  1.46e-04    10.5
               *** Restarting incremental Fock matrix formation ***
   10    -2932.5071223691948035    -5.35e-07  5.18e-06  3.44e-04  3.10e-05    12.6
                  *** Gradient check signals convergence ***

               *****************************************************
               *                     SUCCESS                       *
               *           SCF CONVERGED AFTER  10 CYCLES          *
               *****************************************************


SMD CDS free energy correction energy :                 7.21730     Kcal/mol
Total Energy after SMD CDS correction =             -2932.495620874 Eh
             **** ENERGY FILE WAS UPDATED (sp_solv.en.tmp) ****

----------------
TOTAL SCF ENERGY
----------------

Total Energy       :      -2932.49562087391223 Eh          -79797.26266 eV

Components:
Nuclear Repulsion  :       2751.85773469283049 Eh           74881.85588 eV
Electronic Energy  :      -5684.34243030768812 Eh         -154678.82125 eV
One Electron Energy:      -9525.21480909192724 Eh         -259194.27214 eV
Two Electron Energy:       3840.87237878423866 Eh          104515.45089 eV
CPCM Dielectric    :         -0.02242675433635 Eh              -0.61026 eV
SMD CDS (Gcds)     :          0.01150149528246 Eh               0.31297 eV

Virial components:
Potential Energy   :      -5856.18298813294041 Eh         -159354.84055 eV
Kinetic Energy     :       2923.68736725902818 Eh           79557.57789 eV
Virial Ratio       :          2.00301272075582

DFT components:
N(Alpha)           :      101.000005072145 electrons
N(Beta)            :      101.000005072145 electrons
N(Total)           :      202.000010144290 electrons
E(X)               :     -233.541442580831 Eh       
E(C)               :       -7.120553626562 Eh       
E(XC)              :     -240.661996207392 Eh       

CPCM Solvation Model Properties:
Surface-charge          :         -0.04467563087335
Corrected charge        :          0.00000000000000
Outlying charge corr.   :          0.00010256953437 Eh               0.00279 eV
Free-energy (cav+disp)  :          0.01150149528246 Eh               0.31297 eV

---------------
SCF CONVERGENCE
---------------

  Last Energy change         ...    5.3518e-07  Tolerance :   1.0000e-06
  Last MAX-Density change    ...    3.4432e-04  Tolerance :   1.0000e-05
  Last RMS-Density change    ...    5.1841e-06  Tolerance :   1.0000e-06
  Last DIIS Error            ...    1.4568e-04  Tolerance :   1.0000e-06
  Last Orbital Gradient      ...    3.1029e-05  Tolerance :   3.3300e-04
  Last Orbital Rotation      ...    1.6896e-04  Tolerance :   3.3300e-04


----------------
ORBITAL ENERGIES
----------------

  NO   OCC          E(Eh)            E(eV) 
   0   2.0000     -88.580624     -2410.4013 
   1   2.0000     -88.577805     -2410.3246 
   2   2.0000     -88.530687     -2409.0425 
   3   2.0000     -88.529487     -2409.0098 
   4   2.0000     -76.919750     -2093.0928 
   5   2.0000     -76.919731     -2093.0923 
   6   2.0000     -18.996304      -516.9157 
   7   2.0000     -18.992250      -516.8054 
   8   2.0000     -18.991812      -516.7935 
   9   2.0000     -18.991412      -516.7826 
  10   2.0000     -10.106387      -275.0088 
  11   2.0000     -10.090101      -274.5656 
  12   2.0000     -10.089444      -274.5477 
  13   2.0000     -10.089408      -274.5467 
  14   2.0000     -10.088144      -274.5124 
  15   2.0000     -10.018772      -272.6246 
  16   2.0000     -10.018593      -272.6198 
  17   2.0000     -10.015856      -272.5453 
  18   2.0000     -10.015370      -272.5321 
  19   2.0000      -7.875133      -214.2933 
  20   2.0000      -7.872043      -214.2092 
  21   2.0000      -7.825646      -212.9467 
  22   2.0000      -7.824482      -212.9150 
  23   2.0000      -6.598357      -179.5504 
  24   2.0000      -6.598089      -179.5431 
  25   2.0000      -5.821995      -158.4245 
  26   2.0000      -5.819314      -158.3516 
  27   2.0000      -5.819032      -158.3439 
  28   2.0000      -5.815598      -158.2505 
  29   2.0000      -5.812177      -158.1574 
  30   2.0000      -5.809077      -158.0730 
  31   2.0000      -5.773228      -157.0975 
  32   2.0000      -5.771997      -157.0640 
  33   2.0000      -5.766021      -156.9014 
  34   2.0000      -5.765583      -156.8895 
  35   2.0000      -5.764898      -156.8709 
  36   2.0000      -5.764444      -156.8585 
  37   2.0000      -4.743813      -129.0857 
  38   2.0000      -4.743374      -129.0738 
  39   2.0000      -4.743170      -129.0682 
  40   2.0000      -4.743071      -129.0655 
  41   2.0000      -4.742259      -129.0434 
  42   2.0000      -4.742040      -129.0375 
  43   2.0000      -1.052324       -28.6352 
  44   2.0000      -1.050527       -28.5863 
  45   2.0000      -1.011972       -27.5372 
  46   2.0000      -1.011320       -27.5194 
  47   2.0000      -0.804011       -21.8783 
  48   2.0000      -0.757168       -20.6036 
  49   2.0000      -0.741777       -20.1848 
  50   2.0000      -0.722289       -19.6545 
  51   2.0000      -0.721993       -19.6464 
  52   2.0000      -0.710711       -19.3394 
  53   2.0000      -0.694435       -18.8965 
  54   2.0000      -0.675570       -18.3832 
  55   2.0000      -0.631245       -17.1770 
  56   2.0000      -0.622076       -16.9275 
  57   2.0000      -0.601800       -16.3758 
  58   2.0000      -0.598663       -16.2904 
  59   2.0000      -0.588246       -16.0070 
  60   2.0000      -0.521830       -14.1997 
  61   2.0000      -0.514518       -14.0007 
  62   2.0000      -0.488506       -13.2929 
  63   2.0000      -0.485910       -13.2223 
  64   2.0000      -0.479377       -13.0445 
  65   2.0000      -0.458621       -12.4797 
  66   2.0000      -0.455115       -12.3843 
  67   2.0000      -0.454337       -12.3632 
  68   2.0000      -0.439815       -11.9680 
  69   2.0000      -0.427937       -11.6448 
  70   2.0000      -0.424022       -11.5382 
  71   2.0000      -0.412668       -11.2293 
  72   2.0000      -0.408671       -11.1205 
  73   2.0000      -0.406279       -11.0554 
  74   2.0000      -0.394503       -10.7350 
  75   2.0000      -0.389842       -10.6081 
  76   2.0000      -0.380354       -10.3500 
  77   2.0000      -0.367684       -10.0052 
  78   2.0000      -0.363184        -9.8827 
  79   2.0000      -0.361263        -9.8305 
  80   2.0000      -0.353166        -9.6101 
  81   2.0000      -0.350465        -9.5366 
  82   2.0000      -0.349833        -9.5194 
  83   2.0000      -0.346713        -9.4345 
  84   2.0000      -0.342868        -9.3299 
  85   2.0000      -0.331046        -9.0082 
  86   2.0000      -0.319646        -8.6980 
  87   2.0000      -0.306131        -8.3302 
  88   2.0000      -0.305518        -8.3136 
  89   2.0000      -0.302326        -8.2267 
  90   2.0000      -0.299321        -8.1449 
  91   2.0000      -0.291674        -7.9368 
  92   2.0000      -0.287081        -7.8119 
  93   2.0000      -0.281066        -7.6482 
  94   2.0000      -0.272703        -7.4206 
  95   2.0000      -0.246863        -6.7175 
  96   2.0000      -0.236418        -6.4333 
  97   2.0000      -0.231992        -6.3128 
  98   2.0000      -0.230146        -6.2626 
  99   2.0000      -0.226500        -6.1634 
 100   2.0000      -0.221440        -6.0257 
 101   0.0000      -0.047303        -1.2872 
 102   0.0000      -0.029005        -0.7893 
 103   0.0000      -0.020512        -0.5582 
 104   0.0000       0.002834         0.0771 
 105   0.0000       0.003975         0.1082 
 106   0.0000       0.020194         0.5495 
 107   0.0000       0.033609         0.9145 
 108   0.0000       0.036887         1.0037 
 109   0.0000       0.045286         1.2323 
 110   0.0000       0.059099         1.6082 
 111   0.0000       0.082414         2.2426 
*Only the first 10 virtual orbitals were printed.

                    ********************************
                    * MULLIKEN POPULATION ANALYSIS *
                    ********************************

-----------------------
MULLIKEN ATOMIC CHARGES
-----------------------
   0 C :   -0.474213
   1 C :   -0.146307
   2 O :   -0.326037
   3 P :    0.672662
   4 S :   -0.516598
   5 O :   -0.282930
   6 C :   -0.141119
   7 C :   -0.490979
   8 S :   -0.129044
   9 C :   -0.278691
  10 S :   -0.090625
  11 P :    0.683712
  12 S :   -0.523995
  13 O :   -0.288579
  14 C :   -0.122738
  15 C :   -0.498416
  16 O :   -0.328575
  17 C :   -0.148048
  18 C :   -0.490747
  19 H :    0.168863
  20 H :    0.172140
  21 H :    0.167966
  22 H :    0.175322
  23 H :    0.176394
  24 H :    0.175704
  25 H :    0.171638
  26 H :    0.170781
  27 H :    0.167583
  28 H :    0.175768
  29 H :    0.246835
  30 H :    0.230616
  31 H :    0.169120
  32 H :    0.176463
  33 H :    0.168854
  34 H :    0.167359
  35 H :    0.172201
  36 H :    0.174995
  37 H :    0.177193
  38 H :    0.172394
  39 H :    0.170269
  40 H :    0.172811
Sum of atomic charges:   -0.0000000

--------------------------------
MULLIKEN REDUCED ORBITAL CHARGES
--------------------------------
  0 C s       :     3.322822  s :     3.322822
      pz      :     1.030412  p :     3.125694
      px      :     1.102333
      py      :     0.992949
      dz2     :     0.007518  d :     0.025696
      dxz     :     0.002360
      dyz     :     0.005481
      dx2y2   :     0.004752
      dxy     :     0.005584

  1 C s       :     3.286120  s :     3.286120
      pz      :     1.066657  p :     2.805834
      px      :     0.702051
      py      :     1.037126
      dz2     :     0.012719  d :     0.054353
      dxz     :     0.007704
      dyz     :     0.006037
      dx2y2   :     0.013393
      dxy     :     0.014500

  2 O s       :     3.736479  s :     3.736479
      pz      :     1.518055  p :     4.559323
      px      :     1.336121
      py      :     1.705146
      dz2     :     0.018888  d :     0.030236
      dxz     :    -0.000978
      dyz     :     0.008699
      dx2y2   :     0.003248
      dxy     :     0.000379

  3 P s       :     5.130486  s :     5.130486
      pz      :     2.836077  p :     8.483124
      px      :     2.817684
      py      :     2.829363
      dz2     :     0.140249  d :     0.713728
      dxz     :     0.122927
      dyz     :     0.150947
      dx2y2   :     0.175833
      dxy     :     0.123771

  4 S s       :     5.900706  s :     5.900706
      pz      :     3.616647  p :    10.552037
      px      :     3.447271
      py      :     3.488119
      dz2     :     0.008534  d :     0.063855
      dxz     :     0.012693
      dyz     :     0.011906
      dx2y2   :     0.012402
      dxy     :     0.018320

  5 O s       :     3.729315  s :     3.729315
      pz      :     1.196105  p :     4.528846
      px      :     1.794205
      py      :     1.538536
      dz2     :     0.002525  d :     0.024770
      dxz     :     0.002729
      dyz     :     0.006507
      dx2y2   :     0.012275
      dxy     :     0.000734

  6 C s       :     3.278928  s :     3.278928
      pz      :     0.667618  p :     2.807294
      px      :     1.038527
      py      :     1.101150
      dz2     :     0.018442  d :     0.054896
      dxz     :     0.012304
      dyz     :     0.009161
      dx2y2   :     0.008847
      dxy     :     0.006142

  7 C s       :     3.340371  s :     3.340371
      pz      :     1.099126  p :     3.124991
      px      :     0.994947
      py      :     1.030918
      dz2     :     0.006984  d :     0.025617
      dxz     :     0.003187
      dyz     :     0.002482
      dx2y2   :     0.007477
      dxy     :     0.005487

  8 S s       :     5.911761  s :     5.911761
      pz      :     3.637311  p :    10.114242
      px      :     3.196539
      py      :     3.280391
      dz2     :     0.013022  d :     0.103042
      dxz     :     0.020824
      dyz     :     0.018344
      dx2y2   :     0.026393
      dxy     :     0.024458

  9 C s       :     3.198496  s :     3.198496
      pz      :     0.963838  p :     3.045004
      px      :     1.123035
      py      :     0.958131
      dz2     :     0.005233  d :     0.035191
      dxz     :     0.007547
      dyz     :     0.008688
      dx2y2   :     0.004909
      dxy     :     0.008813

 10 S s       :     5.902879  s :     5.902879
      pz      :     3.501427  p :    10.081723
      px      :     3.159054
      py      :     3.421242
      dz2     :     0.019236  d :     0.106024
      dxz     :     0.017566
      dyz     :     0.019697
      dx2y2   :     0.017542
      dxy     :     0.031982

 11 P s       :     5.119834  s :     5.119834
      pz      :     2.824201  p :     8.474356
      px      :     2.829745
      py      :     2.820410
      dz2     :     0.176071  d :     0.722099
      dxz     :     0.148888
      dyz     :     0.142014
      dx2y2   :     0.120515
      dxy     :     0.134611

 12 S s       :     5.907675  s :     5.907675
      pz      :     3.353637  p :    10.550514
      px      :     3.610999
      py      :     3.585878
      dz2     :     0.016590  d :     0.065805
      dxz     :     0.016927
      dyz     :     0.017145
      dx2y2   :     0.006966
      dxy     :     0.008177

 13 O s       :     3.726649  s :     3.726649
      pz      :     1.523571  p :     4.547133
      px      :     1.679466
      py      :     1.344096
      dz2     :     0.007480  d :     0.014798
      dxz     :     0.004675
      dyz     :    -0.001914
      dx2y2   :    -0.003723
      dxy     :     0.008279

 14 C s       :     3.273266  s :     3.273266
      pz      :     1.065887  p :     2.795566
      px      :     0.982716
      py      :     0.746963
      dz2     :     0.013098  d :     0.053906
      dxz     :     0.004007
      dyz     :     0.009317
      dx2y2   :     0.014826
      dxy     :     0.012657

 15 C s       :     3.347167  s :     3.347167
      pz      :     1.069627  p :     3.125694
      px      :     1.069989
      py      :     0.986078
      dz2     :     0.007829  d :     0.025555
      dxz     :     0.002170
      dyz     :     0.004345
      dx2y2   :     0.005977
      dxy     :     0.005234

 16 O s       :     3.741424  s :     3.741424
      pz      :     1.631404  p :     4.556804
      px      :     1.390923
      py      :     1.534478
      dz2     :     0.002494  d :     0.030346
      dxz     :     0.015606
      dyz     :     0.007415
      dx2y2   :     0.001622
      dxy     :     0.003210

 17 C s       :     3.290953  s :     3.290953
      pz      :     1.031996  p :     2.802672
      px      :     0.859599
      py      :     0.911078
      dz2     :     0.005242  d :     0.054422
      dxz     :     0.014123
      dyz     :     0.012468
      dx2y2   :     0.008950
      dxy     :     0.013640

 18 C s       :     3.335128  s :     3.335128
      pz      :     1.060432  p :     3.129960
      px      :     1.081007
      py      :     0.988521
      dz2     :     0.002654  d :     0.025659
      dxz     :     0.007228
      dyz     :     0.006293
      dx2y2   :     0.002240
      dxy     :     0.007244

 19 H s       :     0.812917  s :     0.812917
      pz      :     0.003554  p :     0.018220
      px      :     0.006115
      py      :     0.008551

 20 H s       :     0.809352  s :     0.809352
      pz      :     0.004034  p :     0.018508
      px      :     0.010363
      py      :     0.004111

 21 H s       :     0.813621  s :     0.813621
      pz      :     0.010510  p :     0.018414
      px      :     0.003593
      py      :     0.004311

 22 H s       :     0.807123  s :     0.807123
      pz      :     0.011339  p :     0.017555
      px      :     0.002141
      py      :     0.004075

 23 H s       :     0.805776  s :     0.805776
      pz      :     0.003562  p :     0.017830
      px      :     0.004804
      py      :     0.009464

 24 H s       :     0.806735  s :     0.806735
      pz      :     0.002873  p :     0.017561
      px      :     0.003577
      py      :     0.011112

 25 H s       :     0.810557  s :     0.810557
      pz      :     0.003193  p :     0.017804
      px      :     0.009921
      py      :     0.004691

 26 H s       :     0.810679  s :     0.810679
      pz      :     0.011276  p :     0.018541
      px      :     0.003617
      py      :     0.003648

 27 H s       :     0.813914  s :     0.813914
      pz      :     0.004357  p :     0.018504
      px      :     0.003685
      py      :     0.010461

 28 H s       :     0.805509  s :     0.805509
      pz      :     0.004690  p :     0.018723
      px      :     0.009745
      py      :     0.004288

 29 H s       :     0.734047  s :     0.734047
      pz      :     0.004914  p :     0.019118
      px      :     0.008694
      py      :     0.005511

 30 H s       :     0.749748  s :     0.749748
      pz      :     0.007586  p :     0.019635
      px      :     0.008147
      py      :     0.003903

 31 H s       :     0.812963  s :     0.812963
      pz      :     0.003930  p :     0.017918
      px      :     0.011536
      py      :     0.002452

 32 H s       :     0.805967  s :     0.805967
      pz      :     0.011922  p :     0.017570
      px      :     0.003142
      py      :     0.002506

 33 H s       :     0.812629  s :     0.812629
      pz      :     0.004395  p :     0.018517
      px      :     0.005086
      py      :     0.009036

 34 H s       :     0.814267  s :     0.814267
      pz      :     0.003929  p :     0.018375
      px      :     0.010993
      py      :     0.003453

 35 H s       :     0.809269  s :     0.809269
      pz      :     0.011392  p :     0.018530
      px      :     0.003630
      py      :     0.003508

 36 H s       :     0.807441  s :     0.807441
      pz      :     0.007422  p :     0.017563
      px      :     0.006217
      py      :     0.003924

 37 H s       :     0.804924  s :     0.804924
      pz      :     0.007052  p :     0.017883
      px      :     0.005132
      py      :     0.005699

 38 H s       :     0.809103  s :     0.809103
      pz      :     0.007996  p :     0.018503
      px      :     0.006130
      py      :     0.004377

 39 H s       :     0.811507  s :     0.811507
      pz      :     0.006411  p :     0.018225
      px      :     0.006341
      py      :     0.005472

 40 H s       :     0.808663  s :     0.808663
      pz      :     0.004737  p :     0.018526
      px      :     0.007217
      py      :     0.006573


------------------------
MULLIKEN OVERLAP CHARGES
------------------------
B(  0-C ,  1-C ) :   0.4018 B(  0-C ,  2-O ) :  -0.1645 B(  0-C ,  5-O ) :   0.0534 
B(  0-C , 19-H ) :   0.8206 B(  0-C , 20-H ) :   0.7889 B(  0-C , 21-H ) :   0.8227 
B(  0-C , 23-H ) :  -0.1068 B(  1-C ,  2-O ) :   0.3337 B(  1-C ,  3-P ) :  -0.1636 
B(  1-C , 19-H ) :  -0.0700 B(  1-C , 20-H ) :  -0.0565 B(  1-C , 21-H ) :  -0.0756 
B(  1-C , 22-H ) :   0.8024 B(  1-C , 23-H ) :   0.8750 B(  2-O ,  3-P ) :   0.6400 
B(  2-O ,  4-S ) :  -0.0994 B(  2-O ,  5-O ) :  -0.2288 B(  2-O ,  8-S ) :  -0.1491 
B(  2-O , 22-H ) :  -0.0963 B(  2-O , 23-H ) :  -0.0773 B(  3-P ,  4-S ) :   1.2555 
B(  3-P ,  5-O ) :   0.4066 B(  3-P ,  6-C ) :  -0.1319 B(  3-P ,  8-S ) :   0.7516 
B(  3-P ,  9-C ) :  -0.0646 B(  4-S ,  5-O ) :  -0.1007 B(  4-S ,  8-S ) :  -0.0654 
B(  5-O ,  6-C ) :   0.2821 B(  5-O ,  7-C ) :  -0.1335 B(  5-O ,  8-S ) :  -0.1127 
B(  5-O , 24-H ) :  -0.1000 B(  5-O , 25-H ) :  -0.0766 B(  6-C ,  7-C ) :   0.4163 
B(  6-C , 24-H ) :   0.8086 B(  6-C , 25-H ) :   0.8497 B(  6-C , 26-H ) :  -0.0556 
B(  6-C , 27-H ) :  -0.0873 B(  6-C , 28-H ) :  -0.0670 B(  7-C , 25-H ) :  -0.1028 
B(  7-C , 26-H ) :   0.7877 B(  7-C , 27-H ) :   0.8351 B(  7-C , 28-H ) :   0.8098 
B(  8-S ,  9-C ) :   0.3604 B(  8-S , 10-S ) :  -0.1482 B(  8-S , 29-H ) :  -0.0594 
B(  8-S , 30-H ) :  -0.0769 B(  9-C , 10-S ) :   0.3959 B(  9-C , 11-P ) :  -0.1104 
B(  9-C , 29-H ) :   0.7828 B(  9-C , 30-H ) :   0.8022 B( 10-S , 11-P ) :   0.7818 
B( 10-S , 12-S ) :  -0.1013 B( 10-S , 13-O ) :  -0.1637 B( 10-S , 16-O ) :  -0.0774 
B( 10-S , 29-H ) :  -0.0669 B( 10-S , 30-H ) :  -0.0625 B( 11-P , 12-S ) :   1.2025 
B( 11-P , 13-O ) :   0.6417 B( 11-P , 14-C ) :  -0.1164 B( 11-P , 16-O ) :   0.5527 
B( 11-P , 17-C ) :  -0.1588 B( 12-S , 13-O ) :  -0.0907 B( 12-S , 16-O ) :  -0.1060 
B( 13-O , 14-C ) :   0.2011 B( 13-O , 15-C ) :  -0.1239 B( 13-O , 16-O ) :  -0.2416 
B( 13-O , 31-H ) :  -0.0704 B( 13-O , 32-H ) :  -0.0827 B( 14-C , 15-C ) :   0.5094 
B( 14-C , 31-H ) :   0.8363 B( 14-C , 32-H ) :   0.8161 B( 14-C , 33-H ) :  -0.0717 
B( 14-C , 34-H ) :  -0.0724 B( 14-C , 35-H ) :  -0.0796 B( 15-C , 31-H ) :  -0.0783 
B( 15-C , 32-H ) :  -0.0592 B( 15-C , 33-H ) :   0.8056 B( 15-C , 34-H ) :   0.8273 
B( 15-C , 35-H ) :   0.8346 B( 16-O , 17-C ) :   0.3566 B( 16-O , 18-C ) :  -0.1759 
B( 16-O , 36-H ) :  -0.0996 B( 16-O , 37-H ) :  -0.0798 B( 17-C , 18-C ) :   0.4019 
B( 17-C , 36-H ) :   0.7968 B( 17-C , 37-H ) :   0.8766 B( 17-C , 38-H ) :  -0.0848 
B( 17-C , 39-H ) :  -0.0675 B( 18-C , 37-H ) :  -0.1131 B( 18-C , 38-H ) :   0.8385 
B( 18-C , 39-H ) :   0.8112 B( 18-C , 40-H ) :   0.7785 B( 19-H , 21-H ) :  -0.0505 
B( 27-H , 28-H ) :  -0.0527 B( 34-H , 35-H ) :  -0.0504 B( 38-H , 39-H ) :  -0.0538 



                     *******************************
                     * LOEWDIN POPULATION ANALYSIS *
                     *******************************

----------------------
LOEWDIN ATOMIC CHARGES
----------------------
   0 C :   -0.402712
   1 C :    0.028525
   2 O :   -0.700501
   3 P :    0.374114
   4 S :   -0.148950
   5 O :   -0.683017
   6 C :    0.021539
   7 C :   -0.412557
   8 S :    0.172580
   9 C :   -0.402258
  10 S :    0.183714
  11 P :    0.380681
  12 S :   -0.162691
  13 O :   -0.692551
  14 C :    0.031122
  15 C :   -0.407668
  16 O :   -0.670199
  17 C :    0.024943
  18 C :   -0.409352
  19 H :    0.164366
  20 H :    0.168787
  21 H :    0.162604
  22 H :    0.190777
  23 H :    0.181307
  24 H :    0.191160
  25 H :    0.181609
  26 H :    0.167150
  27 H :    0.162524
  28 H :    0.169750
  29 H :    0.206896
  30 H :    0.200487
  31 H :    0.181317
  32 H :    0.189678
  33 H :    0.166185
  34 H :    0.162114
  35 H :    0.162286
  36 H :    0.190839
  37 H :    0.181416
  38 H :    0.161545
  39 H :    0.163775
  40 H :    0.168666

-------------------------------
LOEWDIN REDUCED ORBITAL CHARGES
-------------------------------
  0 C s       :     2.975309  s :     2.975309
      pz      :     1.121947  p :     3.367044
      px      :     1.139945
      py      :     1.105151
      dz2     :     0.018068  d :     0.060359
      dxz     :     0.004942
      dyz     :     0.012689
      dx2y2   :     0.011160
      dxy     :     0.013500

  1 C s       :     2.876607  s :     2.876607
      pz      :     1.083115  p :     2.973531
      px      :     0.812931
      py      :     1.077485
      dz2     :     0.028998  d :     0.121338
      dxz     :     0.016622
      dyz     :     0.013465
      dx2y2   :     0.028833
      dxy     :     0.033421

  2 O s       :     3.466606  s :     3.466606
      pz      :     1.597713  p :     4.747983
      px      :     1.450835
      py      :     1.699434
      dz2     :     0.093419  d :     0.485912
      dxz     :     0.118834
      dyz     :     0.070604
      dx2y2   :     0.088160
      dxy     :     0.114895

  3 P s       :     4.651920  s :     4.651920
      pz      :     2.747599  p :     8.405862
      px      :     2.845136
      py      :     2.813126
      dz2     :     0.291996  d :     1.568104
      dxz     :     0.277063
      dyz     :     0.373518
      dx2y2   :     0.312272
      dxy     :     0.313255

  4 S s       :     5.560186  s :     5.560186
      pz      :     3.567357  p :    10.455682
      px      :     3.433443
      py      :     3.454882
      dz2     :     0.015709  d :     0.133082
      dxz     :     0.026359
      dyz     :     0.026117
      dx2y2   :     0.020198
      dxy     :     0.044699

  5 O s       :     3.467775  s :     3.467775
      pz      :     1.388500  p :     4.737913
      px      :     1.728090
      py      :     1.621323
      dz2     :     0.131329  d :     0.477329
      dxz     :     0.100191
      dyz     :     0.140402
      dx2y2   :     0.052894
      dxy     :     0.052513

  6 C s       :     2.874277  s :     2.874277
      pz      :     0.792290  p :     2.981190
      px      :     1.085160
      py      :     1.103741
      dz2     :     0.042102  d :     0.122994
      dxz     :     0.027129
      dyz     :     0.021604
      dx2y2   :     0.018332
      dxy     :     0.013827

  7 C s       :     2.975039  s :     2.975039
      pz      :     1.142115  p :     3.377242
      px      :     1.109667
      py      :     1.125460
      dz2     :     0.017726  d :     0.060276
      dxz     :     0.006961
      dyz     :     0.005545
      dx2y2   :     0.017429
      dxy     :     0.012617

  8 S s       :     5.440127  s :     5.440127
      pz      :     3.582911  p :    10.093678
      px      :     3.207679
      py      :     3.303088
      dz2     :     0.031202  d :     0.293615
      dxz     :     0.055289
      dyz     :     0.054676
      dx2y2   :     0.079686
      dxy     :     0.072761

  9 C s       :     3.008610  s :     3.008610
      pz      :     1.084087  p :     3.311828
      px      :     1.134736
      py      :     1.093005
      dz2     :     0.010328  d :     0.081819
      dxz     :     0.017613
      dyz     :     0.021289
      dx2y2   :     0.011193
      dxy     :     0.021396

 10 S s       :     5.433271  s :     5.433271
      pz      :     3.469968  p :    10.080522
      px      :     3.191862
      py      :     3.418692
      dz2     :     0.052112  d :     0.302492
      dxz     :     0.055008
      dyz     :     0.057692
      dx2y2   :     0.052094
      dxy     :     0.085587

 11 P s       :     4.652733  s :     4.652733
      pz      :     2.830937  p :     8.392687
      px      :     2.788921
      py      :     2.772830
      dz2     :     0.338313  d :     1.573899
      dxz     :     0.312504
      dyz     :     0.351811
      dx2y2   :     0.227043
      dxy     :     0.344229

 12 S s       :     5.566577  s :     5.566577
      pz      :     3.358812  p :    10.458642
      px      :     3.556421
      py      :     3.543409
      dz2     :     0.033528  d :     0.137471
      dxz     :     0.036203
      dyz     :     0.039870
      dx2y2   :     0.010809
      dxy     :     0.017061

 13 O s       :     3.468814  s :     3.468814
      pz      :     1.612698  p :     4.736745
      px      :     1.659360
      py      :     1.464687
      dz2     :     0.095813  d :     0.486992
      dxz     :     0.065428
      dyz     :     0.116371
      dx2y2   :     0.102108
      dxy     :     0.107271

 14 C s       :     2.876016  s :     2.876016
      pz      :     1.079584  p :     2.972389
      px      :     1.027915
      py      :     0.864890
      dz2     :     0.031034  d :     0.120474
      dxz     :     0.007599
      dyz     :     0.019724
      dx2y2   :     0.033915
      dxy     :     0.028202

 15 C s       :     2.976093  s :     2.976093
      pz      :     1.148386  p :     3.371386
      px      :     1.146865
      py      :     1.076135
      dz2     :     0.019113  d :     0.060189
      dxz     :     0.004936
      dyz     :     0.009574
      dx2y2   :     0.014331
      dxy     :     0.012234

 16 O s       :     3.467769  s :     3.467769
      pz      :     1.637714  p :     4.737959
      px      :     1.520749
      py      :     1.579496
      dz2     :     0.064698  d :     0.464470
      dxz     :     0.104488
      dyz     :     0.090680
      dx2y2   :     0.093673
      dxy     :     0.110931

 17 C s       :     2.875915  s :     2.875915
      pz      :     1.048846  p :     2.977208
      px      :     0.941580
      py      :     0.986781
      dz2     :     0.009832  d :     0.121934
      dxz     :     0.034104
      dyz     :     0.029670
      dx2y2   :     0.017696
      dxy     :     0.030632

 18 C s       :     2.976643  s :     2.976643
      pz      :     1.130981  p :     3.372401
      px      :     1.149980
      py      :     1.091440
      dz2     :     0.005535  d :     0.060308
      dxz     :     0.017979
      dyz     :     0.014559
      dx2y2   :     0.004286
      dxy     :     0.017948

 19 H s       :     0.791720  s :     0.791720
      pz      :     0.008035  p :     0.043914
      px      :     0.014834
      py      :     0.021044

 20 H s       :     0.786608  s :     0.786608
      pz      :     0.009425  p :     0.044605
      px      :     0.025840
      py      :     0.009340

 21 H s       :     0.792968  s :     0.792968
      pz      :     0.026287  p :     0.044428
      px      :     0.007986
      py      :     0.010156

 22 H s       :     0.768599  s :     0.768599
      pz      :     0.026943  p :     0.040624
      px      :     0.004409
      py      :     0.009273

 23 H s       :     0.776283  s :     0.776283
      pz      :     0.008282  p :     0.042410
      px      :     0.010598
      py      :     0.023530

 24 H s       :     0.768225  s :     0.768225
      pz      :     0.005482  p :     0.040615
      px      :     0.008144
      py      :     0.026989

 25 H s       :     0.776097  s :     0.776097
      pz      :     0.006870  p :     0.042295
      px      :     0.024356
      py      :     0.011068

 26 H s       :     0.788147  s :     0.788147
      pz      :     0.028223  p :     0.044704
      px      :     0.008288
      py      :     0.008193

 27 H s       :     0.792938  s :     0.792938
      pz      :     0.009998  p :     0.044538
      px      :     0.008443
      py      :     0.026097

 28 H s       :     0.784480  s :     0.784480
      pz      :     0.010907  p :     0.045770
      px      :     0.024551
      py      :     0.010312

 29 H s       :     0.744479  s :     0.744479
      pz      :     0.012066  p :     0.048625
      px      :     0.022617
      py      :     0.013942

 30 H s       :     0.749922  s :     0.749922
      pz      :     0.019503  p :     0.049591
      px      :     0.020685
      py      :     0.009403

 31 H s       :     0.776592  s :     0.776592
      pz      :     0.009223  p :     0.042091
      px      :     0.026906
      py      :     0.005962

 32 H s       :     0.769623  s :     0.769623
      pz      :     0.028249  p :     0.040698
      px      :     0.007154
      py      :     0.005295

 33 H s       :     0.789263  s :     0.789263
      pz      :     0.010315  p :     0.044552
      px      :     0.012093
      py      :     0.022144

 34 H s       :     0.793822  s :     0.793822
      pz      :     0.009158  p :     0.044064
      px      :     0.027352
      py      :     0.007555

 35 H s       :     0.792932  s :     0.792932
      pz      :     0.028751  p :     0.044782
      px      :     0.008191
      py      :     0.007841

 36 H s       :     0.768510  s :     0.768510
      pz      :     0.018811  p :     0.040652
      px      :     0.013301
      py      :     0.008540

 37 H s       :     0.776061  s :     0.776061
      pz      :     0.016511  p :     0.042523
      px      :     0.011587
      py      :     0.014425

 38 H s       :     0.793731  s :     0.793731
      pz      :     0.019860  p :     0.044724
      px      :     0.014496
      py      :     0.010368

 39 H s       :     0.792280  s :     0.792280
      pz      :     0.015864  p :     0.043944
      px      :     0.015141
      py      :     0.012939

 40 H s       :     0.786671  s :     0.786671
      pz      :     0.010911  p :     0.044663
      px      :     0.018005
      py      :     0.015747


---------------------------------
LOEWDIN BOND ORDERS (THRESH 0.050000)
---------------------------------
B(  0-C ,  1-C ) :   1.0951 B(  0-C ,  2-O ) :   0.1550 B(  0-C , 19-H ) :   0.9205 
B(  0-C , 20-H ) :   0.9117 B(  0-C , 21-H ) :   0.9148 B(  1-C ,  2-O ) :   1.2917 
B(  1-C ,  3-P ) :   0.0964 B(  1-C , 20-H ) :   0.0512 B(  1-C , 22-H ) :   0.8236 
B(  1-C , 23-H ) :   0.8266 B(  2-O ,  3-P ) :   1.5518 B(  2-O ,  4-S ) :   0.1801 
B(  2-O ,  5-O ) :   0.2164 B(  2-O ,  8-S ) :   0.1778 B(  2-O , 22-H ) :   0.1006 
B(  2-O , 23-H ) :   0.0968 B(  3-P ,  4-S ) :   2.0485 B(  3-P ,  5-O ) :   1.5399 
B(  3-P ,  6-C ) :   0.0941 B(  3-P ,  8-S ) :   1.2476 B(  3-P ,  9-C ) :   0.0857 
B(  4-S ,  5-O ) :   0.1838 B(  4-S ,  8-S ) :   0.1241 B(  5-O ,  6-C ) :   1.3031 
B(  5-O ,  7-C ) :   0.1535 B(  5-O ,  8-S ) :   0.1558 B(  5-O , 24-H ) :   0.1005 
B(  5-O , 25-H ) :   0.0991 B(  6-C ,  7-C ) :   1.0918 B(  6-C , 24-H ) :   0.8224 
B(  6-C , 25-H ) :   0.8240 B(  6-C , 26-H ) :   0.0513 B(  7-C , 26-H ) :   0.9115 
B(  7-C , 27-H ) :   0.9128 B(  7-C , 28-H ) :   0.9074 B(  8-S ,  9-C ) :   1.2832 
B(  8-S , 10-S ) :   0.2045 B(  8-S , 29-H ) :   0.0570 B(  8-S , 30-H ) :   0.0580 
B(  9-C , 10-S ) :   1.3022 B(  9-C , 11-P ) :   0.0972 B(  9-C , 12-S ) :   0.0515 
B(  9-C , 29-H ) :   0.8311 B(  9-C , 30-H ) :   0.8280 B( 10-S , 11-P ) :   1.2491 
B( 10-S , 12-S ) :   0.1465 B( 10-S , 13-O ) :   0.1727 B( 10-S , 16-O ) :   0.1358 
B( 10-S , 29-H ) :   0.0571 B( 10-S , 30-H ) :   0.0614 B( 11-P , 12-S ) :   1.9915 
B( 11-P , 13-O ) :   1.5648 B( 11-P , 14-C ) :   0.0995 B( 11-P , 16-O ) :   1.5666 
B( 11-P , 17-C ) :   0.0939 B( 12-S , 13-O ) :   0.1780 B( 12-S , 16-O ) :   0.1870 
B( 13-O , 14-C ) :   1.2804 B( 13-O , 15-C ) :   0.1607 B( 13-O , 16-O ) :   0.2251 
B( 13-O , 31-H ) :   0.0955 B( 13-O , 32-H ) :   0.0986 B( 14-C , 15-C ) :   1.0925 
B( 14-C , 31-H ) :   0.8284 B( 14-C , 32-H ) :   0.8258 B( 14-C , 33-H ) :   0.0508 
B( 15-C , 33-H ) :   0.9131 B( 15-C , 34-H ) :   0.9199 B( 15-C , 35-H ) :   0.9188 
B( 16-O , 17-C ) :   1.3007 B( 16-O , 18-C ) :   0.1567 B( 16-O , 36-H ) :   0.1002 
B( 16-O , 37-H ) :   0.0976 B( 17-C , 18-C ) :   1.0938 B( 17-C , 36-H ) :   0.8235 
[...]
                   0.00000   0.00000   0.00000   0.00000   0.00000   0.00000
                  --------  --------  --------  --------  --------  --------
 0 C  s               0.0       0.0       0.0       0.0      83.6       6.1
 3 P  s               0.0       0.2       0.1       0.1       0.0       0.0
 3 P  px              0.0       0.1       0.0       0.0       0.0       0.0
 3 P  py              0.0       0.2       0.0       0.0       0.0       0.0
 4 S  s               0.2      95.0       3.5       0.1       0.0       0.0
 6 C  s               0.0       0.0       0.0       0.0       1.0       0.0
 7 C  s               0.0       0.0       0.0       0.0       8.3       1.0
 8 S  s               1.1       0.1       8.5      89.2       0.0       0.0
 8 S  py              0.0       0.0       0.0       0.1       0.0       0.0
 9 C  s               0.0       0.0       0.2       0.5       2.4       0.0
10 S  s               0.9       3.7      86.5       7.8       0.0       0.0
10 S  py              0.0       0.0       0.1       0.0       0.0       0.0
11 P  s               0.2       0.0       0.1       0.0       0.0       0.0
11 P  pz              0.2       0.0       0.0       0.0       0.0       0.0
12 S  s              96.7       0.1       0.5       1.6       0.0       0.0
12 S  pz              0.1       0.0       0.0       0.0       0.0       0.0
14 C  s               0.1       0.0       0.1       0.0       0.2       2.5
15 C  s               0.0       0.0       0.0       0.0       1.0       8.4
17 C  s               0.0       0.0       0.0       0.0       0.1       0.5
18 C  s               0.0       0.0       0.0       0.0       3.0      81.1

                    528       529       530       531       532       533   
                  22.00412  22.03000  22.05878  22.06632  22.07436  22.10570
                   0.00000   0.00000   0.00000   0.00000   0.00000   0.00000
                  --------  --------  --------  --------  --------  --------
 0 C  s               0.2       6.4       0.0       0.0       2.5       0.9
 1 C  s               0.1       3.9      53.9      12.5       1.4       6.0
 6 C  s               0.3       0.2      27.0       1.7      11.8      29.2
 7 C  s               3.3      20.8       3.3       0.5      36.4       6.1
 9 C  s               7.1      63.9       0.3       0.1       6.5       2.9
14 C  s               6.0       0.6       2.7       3.8      23.5      50.7
15 C  s              70.8       1.2       0.2       0.5      14.1       1.9
17 C  s               0.0       0.2      12.2      80.1       2.8       1.7
18 C  s              11.6       2.3       0.0       0.4       0.7       0.2

                    534       535       536       537       538   
                  22.11504  43.79385  43.80637  43.87432  43.88953
                   0.00000   0.00000   0.00000   0.00000   0.00000
                  --------  --------  --------  --------  --------
 1 C  s              21.7       0.0       0.0       0.0       0.0
 2 O  s               0.0       2.2      64.1      32.6       1.0
 5 O  s               0.0       1.1      32.4      62.6       3.8
 6 C  s              28.5       0.0       0.0       0.0       0.0
 7 C  s              19.9       0.0       0.0       0.0       0.0
 9 C  s              16.1       0.0       0.0       0.0       0.0
13 O  s               0.0      10.8       0.9       4.1      84.1
14 C  s               9.6       0.0       0.0       0.0       0.0
15 C  s               1.6       0.0       0.0       0.0       0.0
16 O  s               0.0      85.8       2.6       0.6      11.0
17 C  s               1.8       0.0       0.0       0.0       0.0
18 C  s               0.4       0.0       0.0       0.0       0.0


                      *****************************
                      * MAYER POPULATION ANALYSIS *
                      *****************************

  NA   - Mulliken gross atomic population
  ZA   - Total nuclear charge
  QA   - Mulliken gross atomic charge
  VA   - Mayer's total valence
  BVA  - Mayer's bonded valence
  FA   - Mayer's free valence

  ATOM       NA         ZA         QA         VA         BVA        FA
  0 C      6.4742     6.0000    -0.4742     3.7692     3.7692     0.0000
  1 C      6.1463     6.0000    -0.1463     3.6412     3.6412     0.0000
  2 O      8.3260     8.0000    -0.3260     1.8471     1.8471     0.0000
  3 P     14.3273    15.0000     0.6727     5.1895     5.1895     0.0000
  4 S     16.5166    16.0000    -0.5166     2.0060     2.0060     0.0000
  5 O      8.2829     8.0000    -0.2829     1.7694     1.7694     0.0000
  6 C      6.1411     6.0000    -0.1411     3.6504     3.6504    -0.0000
  7 C      6.4910     6.0000    -0.4910     3.7458     3.7458    -0.0000
  8 S     16.1290    16.0000    -0.1290     2.1801     2.1801     0.0000
  9 C      6.2787     6.0000    -0.2787     3.7350     3.7350     0.0000
 10 S     16.0906    16.0000    -0.0906     2.2237     2.2237     0.0000
 11 P     14.3163    15.0000     0.6837     5.1948     5.1948    -0.0000
 12 S     16.5240    16.0000    -0.5240     1.9911     1.9911    -0.0000
 13 O      8.2886     8.0000    -0.2886     1.8050     1.8050    -0.0000
 14 C      6.1227     6.0000    -0.1227     3.6086     3.6086     0.0000
 15 C      6.4984     6.0000    -0.4984     3.7985     3.7985    -0.0000
 16 O      8.3286     8.0000    -0.3286     1.8137     1.8137    -0.0000
 17 C      6.1480     6.0000    -0.1480     3.6523     3.6523    -0.0000
 18 C      6.4907     6.0000    -0.4907     3.7528     3.7528    -0.0000
 19 H      0.8311     1.0000     0.1689     0.9577     0.9577    -0.0000
 20 H      0.8279     1.0000     0.1721     0.9574     0.9574     0.0000
 21 H      0.8320     1.0000     0.1680     0.9585     0.9585     0.0000
 22 H      0.8247     1.0000     0.1753     0.9453     0.9453     0.0000
 23 H      0.8236     1.0000     0.1764     0.9507     0.9507     0.0000
 24 H      0.8243     1.0000     0.1757     0.9459     0.9459    -0.0000
 25 H      0.8284     1.0000     0.1716     0.9513     0.9513    -0.0000
 26 H      0.8292     1.0000     0.1708     0.9581     0.9581    -0.0000
 27 H      0.8324     1.0000     0.1676     0.9594     0.9594    -0.0000
 28 H      0.8242     1.0000     0.1758     0.9579     0.9579    -0.0000
 29 H      0.7532     1.0000     0.2468     0.9293     0.9293     0.0000
 30 H      0.7694     1.0000     0.2306     0.9454     0.9454     0.0000
 31 H      0.8309     1.0000     0.1691     0.9542     0.9542     0.0000
 32 H      0.8235     1.0000     0.1765     0.9471     0.9471     0.0000
 33 H      0.8311     1.0000     0.1689     0.9583     0.9583    -0.0000
 34 H      0.8326     1.0000     0.1674     0.9560     0.9560     0.0000
 35 H      0.8278     1.0000     0.1722     0.9571     0.9571    -0.0000
 36 H      0.8250     1.0000     0.1750     0.9444     0.9444    -0.0000
 37 H      0.8228     1.0000     0.1772     0.9503     0.9503    -0.0000
 38 H      0.8276     1.0000     0.1724     0.9559     0.9559    -0.0000
 39 H      0.8297     1.0000     0.1703     0.9548     0.9548    -0.0000
 40 H      0.8272     1.0000     0.1728     0.9578     0.9578    -0.0000

  Mayer bond orders larger than 0.100000
B(  0-C ,  1-C ) :   0.9128 B(  0-C , 19-H ) :   0.9693 B(  0-C , 20-H ) :   0.9552 
B(  0-C , 21-H ) :   0.9596 B(  1-C ,  2-O ) :   0.8000 B(  1-C , 22-H ) :   0.9516 
B(  1-C , 23-H ) :   0.9628 B(  2-O ,  3-P ) :   1.1346 B(  3-P ,  4-S ) :   1.7748 
B(  3-P ,  5-O ) :   1.0398 B(  3-P ,  8-S ) :   1.1003 B(  5-O ,  6-C ) :   0.7820 
B(  6-C ,  7-C ) :   0.9147 B(  6-C , 24-H ) :   0.9512 B(  6-C , 25-H ) :   0.9570 
B(  7-C , 26-H ) :   0.9560 B(  7-C , 27-H ) :   0.9632 B(  7-C , 28-H ) :   0.9582 
B(  8-S ,  9-C ) :   0.9047 B(  9-C , 10-S ) :   0.9127 B(  9-C , 29-H ) :   0.8978 
B(  9-C , 30-H ) :   0.9035 B( 10-S , 11-P ) :   1.1196 B( 11-P , 12-S ) :   1.7128 
B( 11-P , 13-O ) :   1.1539 B( 11-P , 16-O ) :   1.0756 B( 13-O , 14-C ) :   0.7416 
B( 14-C , 15-C ) :   0.9289 B( 14-C , 31-H ) :   0.9590 B( 14-C , 32-H ) :   0.9526 
B( 15-C , 33-H ) :   0.9596 B( 15-C , 34-H ) :   0.9690 B( 15-C , 35-H ) :   0.9644 
B( 16-O , 17-C ) :   0.8073 B( 17-C , 18-C ) :   0.9085 B( 17-C , 36-H ) :   0.9489 
B( 17-C , 37-H ) :   0.9644 B( 18-C , 38-H ) :   0.9628 B( 18-C , 39-H ) :   0.9661 
B( 18-C , 40-H ) :   0.9533 

-------
TIMINGS
-------

Total SCF time: 0 days 0 hours 1 min 51 sec 

Total time                  ....     111.430 sec
Sum of individual times     ....     110.580 sec  ( 99.2%)

SCF preparation             ....       0.930 sec  (  0.8%)
Fock matrix formation       ....     106.301 sec  ( 95.4%)
  Startup                   ....       0.153 sec  (  0.1% of F)
  Split-RI-J                ....      25.075 sec  ( 23.6% of F)
  XC integration            ....      47.943 sec  ( 45.1% of F)
    XC Preparation          ....       0.000 sec  (  0.0% of XC)
    Basis function eval.    ....       7.573 sec  ( 15.8% of XC)
    Density eval.           ....      17.905 sec  ( 37.3% of XC)
    XC-Functional eval.     ....       3.450 sec  (  7.2% of XC)
    XC-Potential eval.      ....      17.636 sec  ( 36.8% of XC)
  CPCM terms                ....      31.606 sec  ( 29.7% of F)
Diagonalization             ....       0.000 sec  (  0.0%)
Density matrix formation    ....       0.804 sec  (  0.7%)
Total Energy calculation    ....       0.074 sec  (  0.1%)
Population analysis         ....       0.468 sec  (  0.4%)
Orbital Transformation      ....       0.252 sec  (  0.2%)
Orbital Orthonormalization  ....       0.000 sec  (  0.0%)
DIIS solution               ....       1.533 sec  (  1.4%)
  MO trafo                  ....       0.000 sec  (  0.0 % of DIIS)
  Orb grad                  ....       0.000 sec  (  0.0 % of DIIS)
  Energy W gradient         ....       0.000 sec  (  0.0 % of DIIS)
  DIIS error                ....       0.112 sec  (  7.3 % of DIIS)
  DIIS work                 ....       1.273 sec  ( 83.0 % of DIIS)
  Form Q                    ....       0.000 sec  (  0.0 % of DIIS)
  Form QpQm                 ....       0.000 sec  (  0.0 % of DIIS)
  Exp/Cayley                ....       0.000 sec  (  0.0 % of DIIS)
  Orb update                ....       0.000 sec  (  0.0 % of DIIS)
  Wake-sleep                ....       0.026 sec  (  1.7 % of DIIS)
SOSCF solution              ....       0.220 sec  (  0.2%)
  MO trafo                  ....       0.173 sec  ( 78.7 % of SOSCF)
  Orb grad                  ....       0.001 sec  (  0.5 % of SOSCF)
  Rot update                ....       0.000 sec  (  0.1 % of SOSCF)
  Step                      ....       0.045 sec  ( 20.6 % of SOSCF)
Finished LeanSCF after 111.6 sec

Maximum memory used throughout the entire LEANSCF-calculation: 129.7 MB


-------------------------------------------------------------------------------
                          DFT DISPERSION CORRECTION                            
                                                                               
                                DFTD4 V3.4.0                                   
-------------------------------------------------------------------------------
The R2SCAN3C composite method is recognized
Using three-body term ABC
Active option DFTDOPT                   ...         5   

-------------------------   ----------------
Dispersion correction           -0.021695332
-------------------------   ----------------

------------------   -----------------
gCP correction             0.046674565
------------------   -----------------

-------------------------   --------------------
FINAL SINGLE POINT ENERGY     -2932.470641641428
-------------------------   --------------------


------------------------------------------------------------------------------
                              ORCA PROPERTY CALCULATIONS
------------------------------------------------------------------------------

GBWName                                 ... sp_solv.gbw
Number of atoms                         ...     41
Number of basis functions               ...    539
Max core memory                         ...   1024 MB

Electric properties:
Dipole moment                           ... YES
Quadrupole moment                       ...  NO
Static polarizability (Dipole/Dipole)   ...  NO
Static polarizability (Dipole/Quad.)    ...  NO
Static polarizability (Quad./Quad.)     ...  NO
Static polarizability (Velocity)        ...  NO

Atomic electric properties:
Dipole moment                           ...  NO
Quadrupole moment                       ...  NO
Static polarizability                   ...  NO

Choice of electric origin               ... Center of mass
Position of electric origin             ...    -0.000000    -0.000001     0.000001

General magnetic properties:
Magnetizability                         ...  NO

EPR properties:
g-Tensor (aka g-matrix)                 ...  NO
Zero-Field splitting spin-orbit         ...  NO
Zero-field splitting spin-spin          ...  NO
Hyperfine couplings                     ...  NO (   0 nuclei)
Quadrupole couplings                    ...  NO (   0 nuclei)
Contact density                         ...  NO (   0 nuclei)

NMR properties:
Chemical shifts                         ...  NO (   0 nuclei)
Spin-rotation constants                 ...  NO (   0 nuclei)
Spin-spin couplings                     ...  NO (   0 nuclei,    0 pairs)

Choice of magnetic origin               ... GIAO
Position of magnetic origin             ...     0.000000     0.000000     0.000000

Properties with geometric perturbations:
SCF Hessian                             ...  NO
IR spectrum                             ...  NO
VCD spectrum                            ...  NO
X-ray spectroscopy properties:
SCF XES/XAS/RIXS spectra                ...  NO


-------------
DIPOLE MOMENT
-------------

Method             : SCF
Type of density    : Electron Density
Multiplicity       :   1
Irrep              :   0
Energy             : -2932.4956208739122303 Eh
Relativity type    : 
Basis              : AO
                                X                 Y                 Z
Electronic contribution:      0.751209588       6.075782523      -6.751675790
Nuclear contribution   :     -1.296383165      -8.078055210       7.391869315
                        -----------------------------------------
Total Dipole Moment    :     -0.545173577      -2.002272687       0.640193524
                        -----------------------------------------
Magnitude (a.u.)       :      2.171671681
Magnitude (Debye)      :      5.519950736



--------------------
Rotational spectrum 
--------------------
 
Rotational constants in cm-1:             0.013459             0.004641             0.004292 
Rotational constants in MHz :           403.480876           139.127592           128.676340 

Dipole components along the rotational axes: 
x,y,z [a.u.] :    -0.725074    -1.494031     1.399392 
x,y,z [Debye]:    -1.842991    -3.797525     3.556971 

 

Dipole moment calculation done in   0.1 sec 

Maximum memory used throughout the entire PROP-calculation: 51.3 MB

--------------------------------
SUGGESTED CITATIONS FOR THIS RUN
--------------------------------

Below you find a list of papers that are relevant to this ORCA run
We neither can nor want to force you to cite these papers, but we appreciate if you do
You receive ORCA, which is the product of decades of hard work by many enthusiastic individuals, for free
The only thing we kindly ask in return is that you cite our papers,
We deeply appreciate it, if you show your appreciation for ORCA by not just citing the generic ORCA reference.

Please note that relegating all ORCA citations to the supporting information does *not* help us.
SI sections are not indexed - citations you put there will not count into any citation statistics
But we need these citations in order to attract the funding resources that allow us to do what we are doing

Therefore, if you are a happy ORCA user, please consider citing a few of the papers listed below in the main body of your paper

In addition to the list printed below, the program has created the file sp_solv.bibtex that contains the list in bibtex format
You can import this file easily into all common literature databanks and citation aid programs


List of essential papers. We consider these as the minimum necessary citations

  1. Neese,F.
     Software update: the ORCA program system, version 5.0
     WIRES Comput. Molec. Sci., 2022 12(1)e1606
     doi.org/10.1002/wcms.1606
  2. Grimme,S.; Hansen,A.; Ehlert,S.; Mewes,J.
     r2SCAN-3c: A 'Swiss army knife' composite electronic-structure method
     J. Chem. Phys., 2021 154 064103
     doi.org/10.1063/5.0040021

List of papers to cite with high priority. The work reported in these papers was absolutely
necessary for this run to complete.
Our perspective: the developers of density functionals and basis sets usually get cited in chemistry papers
Good! But without the algorithms to do something with them, the functionals or basis sets would not do anything.
Hence, in our opinion, the algorithm design and method developments papers are equally worthy of getting cited

  1. Neese,F.
     An improvement of the resolution of the identity approximation for the formation of the Coulomb matrix
     J. Comp. Chem., 2003 24(14)1740-1747
     doi.org/10.1002/jcc.10318
  2. Garcia-Rates,M.; Neese,F.
     Effect of the Solute Cavity on the Solvation Energy and its Derivatives within the Framework of the Gaussian Charge Scheme
     J. Comput. Chem., 2020 41 922-939
     doi.org/10.1002/jcc.26139
  3. Neese,F.
     The SHARK Integral Generation and Digestion System
     J. Comp. Chem., 2022  1-16
     doi.org/10.1002/jcc.26942
  4. Lehtola,S.; Steigemann,C.; Oliveira,M.; Marques,M.
     Recent developments in Libxc - A comprehensive library of functionals for density functional theory
     Software X, 2018 7 
     doi.org/10.1016/j.softx.2017.11.002
  5. Caldeweyher,E.; Bannwarth,C.; Grimme,S.
     Extension of the D3 dispersion coefficient model
     J. Chem. Phys., 2017 147 034112-XXXX
     doi.org/10.1063/1.4993215
  6. Caldeweyher,E.; Ehlert,S.; Hansen,A.; Neugebauer,H.; Spicher,S.; Bannwarth,C.; Grimme,S.
     A generally applicable atomic-charge dependent London dispersion correction
     J. Chem. Phys., 2019 150 154122-XXXX
     doi.org/10.1063/1.5090222
  7. Caldeweyher,E.; Mewes,J.; Ehlert,S.; Grimme,S.
     Extension and evaluation of the D4 London-dispersion model for periodic systems
     Phys. Chem. Chem. Phys., 2020 22(16)8499-8512
     doi.org/10.1039/D0CP00502A

List of suggested additional citations. These are papers that are important in the 'surrounding' of 
of this run, or papers that preceded the highly important papers. If you like your results we are grateful for a citation.

  1. Neese,F.
     The ORCA program system
     WIRES Comput. Molec. Sci., 2012 2(1)73-78
     doi.org/10.1002/wcms.81
  2. Neese,F.
     Software update: the ORCA program system, version 4.0
     WIRES Comput. Molec. Sci., 2018 8(1)1-6
     doi.org/10.1002/wcms.1327
  3. Neese,F.; Wennmohs,F.; Becker,U.; Riplinger,C.
     The ORCA quantum chemistry program package
     J. Chem. Phys., 2020 152 Art. No. L224108
     doi.org/10.1063/5.0004608

List of optional additional citations

  1. Neese,F.
     Approximate second-order SCF convergence for spin unrestricted wavefunctions
     Chem. Phys. Lett., 2000 325(1-3)93-98
     doi.org/10.1016/s0009-2614(00)00662-x

Timings for individual modules:

Sum of individual times          ...      115.638 sec (=   1.927 min)
Startup calculation              ...        3.139 sec (=   0.052 min)   2.7 %
SCF iterations                   ...      112.304 sec (=   1.872 min)  97.1 %
Property calculations            ...        0.195 sec (=   0.003 min)   0.2 %
                             ****ORCA TERMINATED NORMALLY****
TOTAL RUN TIME: 0 days 0 hours 1 minutes 56 seconds 394 msec
