 Entering Gaussian System
 *********************************************
 Gaussian 98:
 frequency output generated by the xtb code
 *********************************************
                         Standard orientation:
 --------------------------------------------------------------------
  Center     Atomic     Atomic              Coordinates (Angstroms)
  Number     Number      Type              X           Y           Z
 --------------------------------------------------------------------
    1          6             0        5.632968   -0.108158   -1.340603
    2          6             0        4.709609   -0.724658   -0.307425
    3          8             0        3.727165    0.225841    0.153665
    4         15             0        2.282725    0.416921   -0.488203
    5         16             0        2.171901    0.873283   -2.384774
    6          8             0        1.701710    1.552263    0.434015
    7          6             0        1.756508    1.472914    1.881637
    8          6             0        0.841546    2.542676    2.437089
    9         16             0        1.318305   -1.402795    0.065387
   10          6             0        0.113968   -1.573511   -1.295612
   11         16             0       -1.535443   -1.991239   -0.701931
   12         15             0       -2.087745   -0.068036    0.038701
   13         16             0       -1.618252    1.432166   -1.128392
   14          8             0       -1.433300    0.073256    1.462261
   15          6             0       -1.645313   -0.877326    2.540879
   16          6             0       -2.595502   -0.305091    3.571770
   17          8             0       -3.627281   -0.261929    0.375415
   18          6             0       -4.643639   -0.332584   -0.647757
   19          6             0       -5.978509   -0.007584   -0.005559
   20          1             0        6.411416   -0.821325   -1.593155
   21          1             0        5.079186    0.149187   -2.240866
   22          1             0        6.090098    0.794179   -0.943483
   23          1             0        5.258884   -1.000918    0.595126
   24          1             0        4.200291   -1.604428   -0.708721
   25          1             0        1.434032    0.471145    2.181700
   26          1             0        2.793023    1.625678    2.187765
   27          1             0        1.170414    3.522859    2.103602
   28          1             0       -0.174454    2.379874    2.085157
   29          1             0        0.862205    2.502596    3.521371
   30          1             0        0.428664   -2.397381   -1.931292
   31          1             0        0.084114   -0.634710   -1.855992
   32          1             0       -2.028231   -1.811020    2.121390
   33          1             0       -0.652392   -1.045819    2.962472
   34          1             0       -2.218402    0.642627    3.946060
   35          1             0       -3.576744   -0.144353    3.133393
   36          1             0       -2.681313   -1.005954    4.396442
   37          1             0       -4.395062    0.384177   -1.436948
   38          1             0       -4.638073   -1.342810   -1.065173
   39          1             0       -5.949318    0.984375    0.436835
   40          1             0       -6.753580   -0.034691   -0.764837
   41          1             0       -6.210487   -0.733836    0.767914
 --------------------------------------------------------------------
     1 basis functions        1 primitive gaussians
     1 alpha electrons        1 beta electrons
 
 Harmonic frequencies (cm**-1), IR intensities (km*mol⁻¹),
 Raman scattering activities (A**4/amu), Raman depolarization ratios,
 reduced masses (AMU), force constants (mDyne/A) and normal coordinates:
                      1                      2                      3
                        a                      a                      a 
 Frequencies --    47.6229                50.4707                60.9362
 Red. masses --    25.6879                23.7052                25.1221
 Frc consts  --     0.0000                 0.0000                 0.0000
 IR Inten    --     1.3630                 1.9197                 1.8794
 Raman Activ --     0.0000                 0.0000                 0.0000
 Depolar     --     0.0000                 0.0000                 0.0000
 Atom AN      X      Y      Z        X      Y      Z        X      Y      Z
   1   6    -0.09   0.09   0.00    -0.06   0.00  -0.06     0.07   0.06   0.07
   2   6    -0.10   0.09  -0.01    -0.03   0.01  -0.04     0.06   0.07   0.07
   3   8    -0.15   0.10  -0.06    -0.01   0.02  -0.00     0.01   0.06  -0.00
   4  15    -0.24   0.01  -0.03    -0.08   0.00   0.13     0.05  -0.07  -0.12
   5  16    -0.33  -0.03  -0.04    -0.29   0.26   0.21     0.12   0.18  -0.07
   6   8    -0.20  -0.02  -0.01    -0.06  -0.08   0.20    -0.17  -0.18  -0.05
   7   6    -0.11   0.01  -0.01     0.04  -0.10   0.17    -0.13  -0.14  -0.04
   8   6    -0.08   0.03   0.01     0.09  -0.09   0.22    -0.08  -0.09  -0.04
   9  16    -0.04  -0.09  -0.00     0.10  -0.13   0.00     0.37  -0.33  -0.44
  10   6    -0.01  -0.14   0.00     0.03  -0.08   0.03    -0.04   0.01  -0.06
  11  16    -0.05  -0.07   0.04     0.06  -0.12   0.10     0.08   0.01   0.33
  12  15     0.24   0.00   0.04     0.03  -0.02  -0.17    -0.04   0.06   0.13
  13  16     0.64  -0.06   0.12    -0.10  -0.22  -0.48    -0.04  -0.01   0.04
  14   8     0.11  -0.08   0.06     0.08   0.12  -0.16    -0.10   0.11   0.12
  15   6    -0.02  -0.06   0.04     0.12   0.15  -0.09    -0.12   0.11   0.11
  16   6    -0.04  -0.02  -0.01     0.14   0.15  -0.07    -0.18   0.10   0.06
  17   8     0.13   0.19  -0.04     0.04   0.01  -0.03    -0.04   0.02   0.03
  18   6     0.14   0.11  -0.06    -0.02   0.06   0.03     0.00   0.02  -0.01
  19   6     0.11   0.04  -0.08     0.03   0.13   0.09    -0.02   0.05  -0.07
  20   1    -0.02   0.03   0.01    -0.02  -0.00  -0.03     0.02   0.02   0.03
  21   1    -0.02   0.02  -0.00    -0.03   0.01  -0.01     0.02   0.01   0.02
  22   1    -0.03   0.03   0.00    -0.01  -0.00  -0.02     0.01   0.02   0.01
  23   1    -0.03   0.03   0.00    -0.00   0.00  -0.02     0.01   0.04   0.03
  24   1    -0.02   0.02  -0.00    -0.01   0.00  -0.01     0.03   0.01   0.03
  25   1    -0.03   0.01   0.01     0.01  -0.03   0.05    -0.05  -0.04  -0.01
  26   1    -0.03   0.00  -0.02     0.02  -0.03   0.03    -0.04  -0.05  -0.01
  27   1    -0.02   0.01  -0.00     0.03  -0.03   0.06    -0.01  -0.03  -0.02
  28   1    -0.02   0.01   0.01     0.02  -0.02   0.07    -0.02  -0.01  -0.01
  29   1    -0.01   0.01   0.00     0.04  -0.03   0.06    -0.02  -0.02  -0.01
  30   1    -0.01  -0.06   0.02     0.00  -0.02   0.01    -0.05   0.02  -0.06
  31   1     0.01  -0.05  -0.02     0.01  -0.02   0.01    -0.03   0.02   0.02
  32   1    -0.01  -0.01   0.00     0.04   0.04  -0.01    -0.02   0.03   0.03
  33   1    -0.01  -0.03   0.03     0.04   0.05  -0.03    -0.04   0.04   0.05
  34   1    -0.01  -0.01  -0.00     0.04   0.05  -0.02    -0.06   0.03   0.02
  35   1    -0.00   0.00  -0.02     0.04   0.04  -0.01    -0.05   0.02   0.00
  36   1    -0.03  -0.00  -0.00     0.05   0.05  -0.02    -0.06   0.03   0.02
  37   1     0.03   0.03  -0.02    -0.01   0.01   0.00     0.01   0.00  -0.00
  38   1     0.06   0.03  -0.01    -0.03   0.02   0.01     0.00   0.01  -0.00
  39   1     0.02   0.01  -0.02     0.03   0.04   0.03    -0.01   0.02  -0.02
  40   1     0.04   0.00  -0.03    -0.00   0.05   0.04     0.00   0.02  -0.03
  41   1     0.04   0.01  -0.03     0.01   0.04   0.03    -0.02   0.02  -0.02
                      4                      5                      6
                        a                      a                      a 
 Frequencies --    58.0083                62.4915                62.1227
 Red. masses --    19.5906                18.2921                14.1713
 Frc consts  --     0.0000                 0.0000                 0.0000
 IR Inten    --     1.8983                 4.7685                 6.7368
 Raman Activ --     0.0000                 0.0000                 0.0000
 Depolar     --     0.0000                 0.0000                 0.0000
 Atom AN      X      Y      Z        X      Y      Z        X      Y      Z
   1   6     0.01  -0.24  -0.16     0.07   0.29  -0.18     0.08   0.36   0.08
   2   6    -0.03  -0.10  -0.12     0.13   0.10  -0.23     0.07   0.17  -0.04
   3   8     0.10   0.03  -0.16     0.11  -0.01  -0.10    -0.01   0.06   0.05
   4  15     0.08   0.18  -0.07     0.05  -0.13   0.05     0.01  -0.01  -0.01
   5  16    -0.11   0.27  -0.03    -0.21  -0.30   0.02     0.17  -0.25  -0.08
   6   8     0.20   0.15   0.02     0.09  -0.08   0.05    -0.05   0.01  -0.06
   7   6     0.12   0.01   0.01     0.11  -0.08   0.04    -0.01   0.02  -0.05
   8   6     0.08  -0.04   0.06     0.07  -0.13   0.08     0.00   0.01  -0.01
   9  16     0.04   0.26   0.09     0.08  -0.09   0.24    -0.02   0.01   0.05
  10   6     0.02   0.01   0.07     0.03  -0.02   0.15    -0.01   0.00   0.03
  11  16     0.12  -0.17   0.22    -0.00   0.12   0.22     0.01  -0.15   0.02
  12  15    -0.07  -0.17   0.06    -0.07   0.19  -0.01    -0.06  -0.15  -0.01
  13  16     0.10  -0.22   0.07    -0.02   0.17  -0.02    -0.07  -0.21  -0.07
  14   8    -0.19  -0.07   0.10    -0.15   0.17   0.03    -0.03  -0.12  -0.01
  15   6    -0.20  -0.05   0.08    -0.02   0.03  -0.05     0.00  -0.12  -0.02
  16   6    -0.22  -0.03   0.05    -0.07  -0.16  -0.00     0.03  -0.14   0.01
  17   8    -0.08  -0.11  -0.10    -0.07   0.12  -0.11    -0.05  -0.06   0.00
  18   6    -0.03   0.06  -0.14    -0.00  -0.00  -0.15    -0.09   0.29   0.03
  19   6    -0.02   0.19  -0.19    -0.06  -0.15  -0.20    -0.00   0.51   0.10
  20   1    -0.02  -0.09  -0.04     0.03   0.11  -0.08     0.04   0.13   0.01
  21   1     0.00  -0.06  -0.05     0.01   0.10  -0.04     0.03   0.13   0.03
  22   1     0.03  -0.08  -0.06     0.00   0.08  -0.02     0.00   0.10   0.06
  23   1    -0.01  -0.04  -0.03     0.05   0.01  -0.08     0.01   0.02  -0.01
  24   1    -0.04  -0.02  -0.02     0.05   0.03  -0.09     0.04   0.06  -0.05
  25   1     0.03  -0.00  -0.02     0.05  -0.03   0.01    -0.00   0.01  -0.01
  26   1     0.03  -0.00   0.02     0.03  -0.01   0.01    -0.00   0.01  -0.02
  27   1     0.02  -0.00   0.03     0.01  -0.03   0.03    -0.00   0.01   0.00
  28   1     0.03  -0.01   0.01     0.02  -0.05   0.02    -0.00   0.01   0.00
  29   1     0.02  -0.03   0.02     0.02  -0.05   0.02     0.01  -0.00  -0.00
  30   1     0.02   0.01   0.03    -0.00  -0.01   0.05     0.01   0.01  -0.00
  31   1    -0.02  -0.00   0.01     0.02  -0.01   0.04    -0.02   0.01   0.02
  32   1    -0.06  -0.01   0.02     0.02   0.01  -0.04    -0.00  -0.03  -0.01
  33   1    -0.06  -0.02   0.03     0.00   0.03  -0.02     0.00  -0.04  -0.01
  34   1    -0.06  -0.01   0.01    -0.05  -0.05   0.03     0.01  -0.04   0.01
  35   1    -0.06  -0.00   0.01    -0.02  -0.06   0.00     0.01  -0.04   0.01
  36   1    -0.07  -0.01   0.02    -0.00  -0.07  -0.02     0.01  -0.05  -0.00
  37   1     0.03   0.02  -0.03    -0.01   0.01  -0.04     0.01   0.09   0.03
  38   1    -0.04   0.02  -0.05     0.04  -0.00  -0.04    -0.09   0.10  -0.02
  39   1     0.02   0.05  -0.05    -0.05  -0.05  -0.05     0.06   0.14   0.05
  40   1     0.00   0.08  -0.06    -0.01  -0.05  -0.07    -0.01   0.20   0.04
  41   1    -0.03   0.06  -0.06    -0.01  -0.05  -0.07    -0.03   0.14   0.02
                      7                      8                      9
                        a                      a                      a 
 Frequencies --    85.4178                74.7429                75.1933
 Red. masses --    23.9575                13.7212                12.6967
 Frc consts  --     0.0000                 0.0000                 0.0000
 IR Inten    --    11.9050                 3.5642                 1.9812
 Raman Activ --     0.0000                 0.0000                 0.0000
 Depolar     --     0.0000                 0.0000                 0.0000
 Atom AN      X      Y      Z        X      Y      Z        X      Y      Z
   1   6    -0.02   0.12   0.01    -0.11   0.25  -0.26     0.14   0.20   0.22
   2   6    -0.01  -0.03  -0.07     0.08   0.04  -0.21     0.01   0.01   0.00
   3   8    -0.03  -0.13   0.07     0.06  -0.14   0.05    -0.08  -0.09   0.00
   4  15     0.04   0.06  -0.04     0.07  -0.10   0.12    -0.08  -0.03  -0.05
   5  16     0.41   0.14  -0.04     0.12   0.03   0.15    -0.05   0.09  -0.02
   6   8     0.09   0.06  -0.01     0.08  -0.07   0.09     0.00  -0.03   0.01
   7   6     0.02  -0.05  -0.01    -0.01   0.01   0.08     0.21   0.02   0.01
   8   6    -0.06  -0.14   0.05     0.04   0.11  -0.04     0.39   0.13   0.09
   9  16    -0.22   0.17  -0.07    -0.04  -0.09   0.01    -0.19  -0.02  -0.15
  10   6    -0.17   0.05  -0.01     0.03   0.01  -0.05    -0.13   0.00  -0.08
  11  16    -0.18  -0.05   0.21     0.01  -0.04  -0.24    -0.17  -0.07  -0.04
  12  15    -0.04   0.05   0.01     0.01  -0.11  -0.04    -0.07  -0.09   0.06
  13  16     0.33  -0.28  -0.27     0.14  -0.02   0.12    -0.02  -0.09   0.09
  14   8    -0.06   0.10   0.02    -0.01  -0.12  -0.02    -0.04  -0.03   0.03
  15   6     0.02   0.03  -0.02    -0.27   0.08   0.09     0.04   0.04   0.10
  16   6    -0.01  -0.09   0.02    -0.23   0.40  -0.05     0.23   0.18   0.19
  17   8    -0.05   0.25   0.02     0.01  -0.09  -0.02    -0.07  -0.04  -0.01
  18   6    -0.08   0.00   0.07    -0.05  -0.04   0.04     0.06  -0.10  -0.13
  19   6    -0.10  -0.24   0.14    -0.01  -0.05   0.14    -0.01  -0.05  -0.31
  20   1     0.00   0.05  -0.02    -0.02   0.11  -0.12     0.06   0.07   0.06
  21   1    -0.00   0.06   0.01    -0.07   0.08  -0.05     0.07   0.09   0.05
  22   1    -0.02   0.03   0.03    -0.05   0.08  -0.06     0.02   0.04   0.12
  23   1    -0.00  -0.04  -0.03     0.07  -0.00  -0.09    -0.03  -0.03   0.01
  24   1     0.00   0.00  -0.05     0.03   0.01  -0.07     0.03   0.02  -0.06
  25   1     0.02  -0.03  -0.03    -0.03   0.01   0.03     0.04   0.02   0.02
  26   1    -0.00  -0.01   0.01    -0.00  -0.01   0.04     0.08  -0.02  -0.04
  27   1    -0.03  -0.03   0.03     0.03   0.02  -0.03     0.13   0.03   0.01
  28   1    -0.01  -0.05   0.01     0.01   0.04  -0.02     0.10   0.07   0.06
  29   1    -0.02  -0.06   0.01    -0.00   0.06  -0.01     0.14   0.04   0.03
  30   1    -0.05   0.02  -0.00     0.02   0.01  -0.02    -0.04   0.01  -0.03
  31   1    -0.07   0.01  -0.00     0.01   0.01  -0.00    -0.05   0.00  -0.02
  32   1     0.02   0.00  -0.01    -0.12   0.03   0.05    -0.03   0.02   0.06
  33   1     0.01   0.02  -0.01    -0.09  -0.01   0.05     0.02  -0.01  -0.01
  34   1    -0.02  -0.03   0.02    -0.03   0.11  -0.05     0.10   0.05   0.03
  35   1    -0.01  -0.04   0.01    -0.05   0.14  -0.03     0.05   0.07   0.09
  36   1     0.01  -0.04  -0.01    -0.11   0.16   0.02     0.07   0.07   0.07
  37   1    -0.07   0.01   0.01    -0.03  -0.01   0.01     0.05  -0.04  -0.04
  38   1     0.03  -0.00   0.02    -0.02  -0.01   0.01     0.03  -0.04  -0.02
  39   1    -0.07  -0.07   0.05     0.01  -0.02   0.04    -0.02  -0.01  -0.11
  40   1    -0.04  -0.10   0.05    -0.02  -0.01   0.06     0.02  -0.03  -0.12
  41   1     0.01  -0.09   0.03     0.01  -0.02   0.04    -0.03   0.00  -0.08
                     10                     11                     12
                        a                      a                      a 
 Frequencies --    77.0634                76.2377                94.1482
 Red. masses --    11.7098                11.5151                13.7800
 Frc consts  --     0.0000                 0.0000                 0.0000
 IR Inten    --     1.7560                 0.1198                 1.8910
 Raman Activ --     0.0000                 0.0000                 0.0000
 Depolar     --     0.0000                 0.0000                 0.0000
 Atom AN      X      Y      Z        X      Y      Z        X      Y      Z
   1   6    -0.25  -0.01  -0.29    -0.12  -0.03  -0.07    -0.01  -0.11   0.02
   2   6    -0.02  -0.03  -0.09    -0.01  -0.03   0.03     0.02   0.08   0.16
   3   8     0.01  -0.09   0.11    -0.02  -0.06   0.09     0.02   0.18   0.01
   4  15     0.04  -0.05   0.11     0.00  -0.06   0.08     0.01   0.04  -0.01
   5  16     0.20   0.10   0.14     0.02   0.13   0.13    -0.03  -0.11  -0.05
   6   8    -0.03  -0.04   0.04    -0.03  -0.04   0.02    -0.09  -0.01  -0.02
   7   6    -0.20   0.05   0.04     0.06   0.19   0.02     0.05   0.00  -0.01
   8   6    -0.25   0.10  -0.15     0.33   0.50  -0.12     0.15   0.03   0.07
   9  16     0.02  -0.07   0.02     0.08  -0.16  -0.09     0.19  -0.06  -0.01
  10   6    -0.01   0.01   0.02    -0.03  -0.01   0.00     0.08   0.00   0.02
  11  16    -0.00  -0.02   0.08    -0.03   0.00   0.10     0.09   0.01  -0.07
  12  15    -0.04  -0.01   0.02    -0.02   0.04   0.00    -0.14  -0.00  -0.17
  13  16     0.02  -0.00   0.05     0.01  -0.04  -0.07     0.24   0.05   0.04
  14   8    -0.07   0.02   0.02    -0.02   0.01   0.01    -0.28  -0.02  -0.04
  15   6     0.14  -0.04   0.01     0.03  -0.11  -0.08    -0.17  -0.08  -0.08
  16   6     0.40  -0.03   0.24    -0.18  -0.36  -0.13     0.22   0.05   0.22
  17   8    -0.05  -0.00  -0.07    -0.02   0.07   0.00    -0.12   0.01  -0.23
  18   6     0.03   0.01  -0.14    -0.03   0.03   0.02    -0.24   0.11  -0.06
  19   6    -0.01   0.10  -0.26    -0.03  -0.03   0.04    -0.17  -0.14   0.24
  20   1    -0.07   0.01  -0.11    -0.03  -0.00  -0.03    -0.01  -0.05   0.03
  21   1    -0.12  -0.03  -0.06    -0.06  -0.03  -0.01    -0.01  -0.07   0.00
  22   1    -0.07   0.01  -0.12    -0.04   0.00  -0.04     0.01  -0.02  -0.04
  23   1     0.05   0.01  -0.05     0.02   0.01  -0.00     0.01   0.07   0.06
  24   1    -0.02  -0.02   0.01    -0.00  -0.02   0.03     0.01   0.00   0.10
  25   1    -0.07   0.02   0.02    -0.04   0.09   0.06     0.01   0.00   0.00
  26   1    -0.07   0.01   0.04     0.03   0.00  -0.02     0.03  -0.01  -0.03
  27   1    -0.06   0.02  -0.06     0.15   0.11  -0.09     0.05   0.01   0.02
  28   1    -0.06   0.02  -0.07     0.08   0.19  -0.02     0.03   0.02   0.04
  29   1    -0.10   0.06  -0.04     0.10   0.19  -0.03     0.07   0.01   0.02
  30   1    -0.01   0.01  -0.00    -0.02   0.00  -0.01     0.02   0.00  -0.00
  31   1    -0.01   0.01   0.02    -0.01   0.00   0.01     0.03   0.00   0.01
  32   1    -0.00   0.00   0.01     0.07  -0.04  -0.05    -0.14   0.01  -0.02
  33   1     0.06  -0.04  -0.06     0.00   0.01   0.00    -0.03  -0.10  -0.10
  34   1     0.15  -0.02   0.06    -0.11  -0.09  -0.01     0.15  -0.02   0.05
  35   1     0.09   0.01   0.13    -0.05  -0.14  -0.06     0.04   0.08   0.14
  36   1     0.15  -0.02   0.06    -0.04  -0.13  -0.06     0.08   0.00   0.05
  37   1     0.04  -0.01  -0.04    -0.02   0.01   0.01    -0.12   0.08   0.01
  38   1     0.00  -0.00  -0.03     0.00   0.01   0.00    -0.06   0.05  -0.07
  39   1    -0.00   0.04  -0.09    -0.02  -0.01   0.02    -0.05  -0.06   0.12
  40   1     0.01   0.03  -0.09    -0.01  -0.01   0.02    -0.09  -0.02   0.11
  41   1    -0.03   0.04  -0.07     0.00  -0.02   0.01     0.01  -0.09   0.05
                     13                     14                     15
                        a                      a                      a 
 Frequencies --   102.0265                99.0232               105.9097
 Red. masses --    14.8875                10.2113                10.2244
 Frc consts  --     0.0000                 0.0000                 0.0000
 IR Inten    --     1.6408                 0.6001                 5.7195
 Raman Activ --     0.0000                 0.0000                 0.0000
 Depolar     --     0.0000                 0.0000                 0.0000
 Atom AN      X      Y      Z        X      Y      Z        X      Y      Z
   1   6    -0.37  -0.04  -0.22     0.01  -0.02   0.03     0.08   0.01   0.08
   2   6    -0.13   0.12   0.10    -0.15  -0.08  -0.15    -0.21  -0.10  -0.25
   3   8    -0.12   0.16   0.13    -0.04  -0.02  -0.03    -0.04   0.01  -0.09
   4  15    -0.10   0.11   0.01    -0.06   0.05  -0.01    -0.10   0.07  -0.02
   5  16     0.32  -0.27  -0.11     0.13  -0.02  -0.04     0.18  -0.03  -0.06
   6   8    -0.21   0.04  -0.01    -0.06   0.02   0.00    -0.12  -0.01   0.03
   7   6     0.12  -0.07  -0.01    -0.15  -0.08   0.00    -0.29  -0.20   0.03
   8   6     0.24  -0.13   0.29     0.05   0.08   0.02     0.12   0.12   0.07
   9  16    -0.02   0.07  -0.04     0.01   0.04   0.06     0.03   0.07   0.11
  10   6     0.01   0.03  -0.04     0.03  -0.04   0.03     0.08  -0.06   0.03
  11  16     0.06   0.01   0.01     0.08  -0.09   0.12     0.13   0.04   0.07
  12  15     0.05  -0.00   0.04     0.09  -0.04   0.04     0.03   0.07  -0.07
  13  16    -0.08   0.01  -0.00    -0.26   0.04   0.01     0.07   0.11  -0.01
  14   8     0.03   0.04   0.03     0.11  -0.07   0.01    -0.10   0.11   0.00
  15   6     0.01   0.06   0.04    -0.02  -0.03   0.02    -0.07   0.01  -0.07
  16   6    -0.10   0.02  -0.04     0.02   0.09  -0.01     0.03  -0.04   0.04
  17   8     0.04  -0.06   0.02     0.06  -0.02  -0.02     0.04  -0.09  -0.06
  18   6     0.08  -0.07  -0.03     0.13   0.45  -0.13    -0.05  -0.30   0.06
  19   6     0.06   0.02  -0.12     0.02  -0.27  -0.01     0.05   0.10   0.07
  20   1    -0.11  -0.01  -0.06    -0.02  -0.02  -0.01    -0.01  -0.02  -0.00
  21   1    -0.16  -0.07  -0.05     0.03   0.06   0.01     0.08   0.11   0.02
  22   1    -0.10   0.02  -0.14     0.03  -0.04   0.06     0.06  -0.06   0.12
  23   1     0.02   0.10   0.01    -0.07  -0.10  -0.05    -0.11  -0.16  -0.08
  24   1    -0.04   0.00   0.11    -0.07   0.02  -0.10    -0.11   0.05  -0.18
  25   1     0.06  -0.03  -0.01    -0.11  -0.01  -0.02    -0.22  -0.03  -0.04
  26   1     0.05  -0.03  -0.06    -0.04  -0.09   0.02    -0.07  -0.20   0.05
  27   1     0.05  -0.03   0.10     0.08   0.01   0.03     0.15   0.01   0.05
  28   1     0.05  -0.02   0.13     0.01   0.09  -0.00     0.02   0.16   0.00
  29   1     0.13  -0.08   0.08     0.00   0.01   0.01     0.01   0.01   0.02
  30   1     0.01   0.01  -0.01     0.01  -0.02   0.01     0.02  -0.03   0.03
  31   1    -0.00   0.01  -0.01     0.00  -0.02  -0.00     0.03  -0.03  -0.01
  32   1     0.03   0.01   0.01    -0.03   0.00   0.01    -0.04   0.02  -0.04
  33   1    -0.00   0.04   0.03    -0.01  -0.03   0.01    -0.02  -0.03  -0.04
  34   1    -0.05   0.01  -0.01     0.03   0.02  -0.01     0.03  -0.03   0.03
  35   1    -0.02  -0.01  -0.03     0.01   0.05  -0.01     0.00   0.01   0.03
  36   1    -0.03   0.01  -0.01    -0.02   0.03  -0.00     0.01  -0.03  -0.01
  37   1     0.04  -0.03  -0.02     0.01   0.29   0.10    -0.01  -0.17  -0.06
  38   1     0.02  -0.03   0.01     0.10   0.21  -0.23    -0.06  -0.13   0.12
  39   1     0.02   0.01  -0.05    -0.07  -0.15   0.17     0.07   0.07  -0.06
  40   1     0.03   0.00  -0.04     0.02  -0.00  -0.02    -0.01   0.00   0.04
  41   1    -0.00   0.02  -0.03     0.05  -0.23  -0.13    -0.00   0.11   0.09
                     16                     17                     18
                        a                      a                      a 
 Frequencies --   123.9616               145.0739               130.9925
 Red. masses --    13.9160                19.3233                12.8536
 Frc consts  --     0.0000                 0.0000                 0.0000
 IR Inten    --     3.7023                16.0369                 2.7216
 Raman Activ --     0.0000                 0.0000                 0.0000
 Depolar     --     0.0000                 0.0000                 0.0000
 Atom AN      X      Y      Z        X      Y      Z        X      Y      Z
   1   6     0.08  -0.05  -0.11     0.01   0.03  -0.05     0.04  -0.05  -0.02
   2   6     0.22   0.14   0.14     0.17   0.11   0.14     0.05   0.00   0.02
   3   8     0.12   0.14  -0.07     0.00   0.02  -0.04     0.06   0.03  -0.02
   4  15     0.11  -0.01  -0.02     0.02  -0.07  -0.13     0.04   0.03   0.06
   5  16    -0.10  -0.04  -0.02     0.13   0.32  -0.05    -0.15  -0.22   0.01
   6   8     0.03  -0.06   0.01    -0.03  -0.09  -0.08     0.06   0.01   0.08
   7   6    -0.25  -0.26   0.01    -0.08  -0.20  -0.08    -0.19  -0.13   0.07
   8   6     0.11   0.06  -0.02     0.12  -0.06  -0.04     0.01   0.07   0.02
   9  16    -0.07   0.10   0.09    -0.10   0.04   0.24    -0.07   0.08  -0.13
  10   6    -0.04   0.12   0.02    -0.03  -0.26   0.14    -0.03   0.24  -0.11
  11  16    -0.11   0.14  -0.14    -0.17  -0.21   0.14     0.09  -0.00  -0.13
  12  15     0.02   0.06   0.14    -0.07  -0.06  -0.13    -0.09  -0.12   0.00
  13  16    -0.07  -0.21  -0.24     0.02   0.22   0.27     0.19  -0.12   0.13
  14   8     0.08  -0.11   0.09     0.07  -0.04  -0.16    -0.07   0.13  -0.02
  15   6    -0.16  -0.15   0.00     0.16   0.06  -0.06     0.34   0.26   0.17
  16   6     0.01  -0.00   0.07     0.02   0.05  -0.19    -0.04  -0.02  -0.02
  17   8     0.01   0.17   0.17    -0.06   0.00  -0.06    -0.08  -0.14  -0.07
  18   6     0.10  -0.00   0.07    -0.09   0.01  -0.02    -0.09   0.06  -0.06
  19   6     0.02  -0.03  -0.10    -0.07   0.02   0.02    -0.08  -0.02   0.02
  20   1     0.03  -0.01   0.01     0.03   0.03   0.02     0.01  -0.02   0.00
  21   1    -0.01  -0.10  -0.04    -0.02  -0.08  -0.02     0.01  -0.02  -0.01
  22   1     0.01   0.03  -0.11    -0.03   0.06  -0.08     0.02  -0.01  -0.02
  23   1     0.09   0.14   0.05     0.07   0.13   0.05     0.01   0.01   0.01
  24   1     0.09  -0.01   0.12     0.09  -0.02   0.11     0.01  -0.00   0.02
  25   1    -0.21  -0.05  -0.05    -0.08  -0.05  -0.05    -0.14  -0.02  -0.02
  26   1    -0.07  -0.21   0.06    -0.02  -0.12  -0.01    -0.06  -0.12   0.07
  27   1     0.15  -0.01   0.03     0.09  -0.03   0.01     0.09   0.00   0.04
  28   1     0.02   0.14  -0.04     0.03   0.04  -0.02     0.00   0.10  -0.03
  29   1    -0.01  -0.01  -0.00     0.02  -0.03  -0.01    -0.04  -0.00   0.01
  30   1    -0.00   0.05  -0.00     0.00  -0.11   0.09     0.00   0.11  -0.08
  31   1    -0.01   0.04   0.02     0.01  -0.11  -0.01    -0.04   0.10   0.02
  32   1    -0.11  -0.00  -0.02     0.09  -0.01   0.01     0.25  -0.01   0.10
  33   1    -0.06  -0.13  -0.01     0.05   0.07   0.00     0.11   0.25   0.08
  34   1     0.07  -0.03   0.04    -0.04   0.04  -0.08    -0.15   0.07  -0.05
  35   1     0.01   0.07   0.03     0.01  -0.04  -0.08    -0.02  -0.17  -0.04
  36   1    -0.04  -0.01   0.01     0.02   0.04  -0.03     0.07   0.03   0.03
  37   1     0.04  -0.01   0.01    -0.03   0.00  -0.01    -0.03   0.05   0.02
  38   1     0.06  -0.01   0.04    -0.03   0.00  -0.01    -0.03   0.04  -0.06
  39   1    -0.02   0.00  -0.05    -0.01   0.01   0.00    -0.02  -0.03   0.05
  40   1     0.03  -0.03  -0.05    -0.03   0.00   0.01    -0.03   0.03   0.01
  41   1    -0.01   0.00  -0.02    -0.01   0.01   0.01    -0.02  -0.04  -0.03
                     19                     20                     21
                        a                      a                      a 
 Frequencies --   167.4151               173.6039               190.6255
 Red. masses --    17.3123                21.2671                14.9908
 Frc consts  --     0.0000                 0.0000                 0.0000
 IR Inten    --    14.2211                 4.9666                 3.1466
 Raman Activ --     0.0000                 0.0000                 0.0000
 Depolar     --     0.0000                 0.0000                 0.0000
 Atom AN      X      Y      Z        X      Y      Z        X      Y      Z
   1   6    -0.09   0.08   0.03     0.14  -0.10  -0.04     0.03   0.00  -0.03
   2   6     0.06  -0.02   0.10    -0.08   0.04  -0.15     0.04   0.04   0.00
   3   8    -0.10  -0.18   0.06     0.05   0.21  -0.18     0.05   0.05  -0.01
   4  15    -0.04  -0.16  -0.11    -0.07  -0.04  -0.01     0.04   0.21   0.06
   5  16    -0.06   0.21  -0.03     0.24   0.17   0.02     0.04  -0.15  -0.02
   6   8    -0.02  -0.08  -0.12    -0.25  -0.13  -0.02     0.25   0.20   0.14
   7   6     0.02  -0.07  -0.12     0.06   0.07  -0.02    -0.04   0.04   0.14
   8   6     0.04  -0.06  -0.11    -0.01  -0.01   0.02    -0.06   0.06   0.09
   9  16    -0.21   0.04   0.15     0.15  -0.18   0.28     0.10  -0.01  -0.27
  10   6     0.13  -0.12  -0.08     0.11  -0.07   0.14     0.03  -0.54  -0.09
  11  16     0.14   0.15  -0.15    -0.15   0.19  -0.38    -0.26  -0.00  -0.13
  12  15     0.16   0.06   0.05    -0.12  -0.01   0.11     0.01   0.03   0.02
  13  16    -0.04  -0.03  -0.15     0.05  -0.20  -0.06    -0.08   0.01  -0.03
  14   8    -0.24   0.24   0.20    -0.02  -0.03   0.05    -0.08   0.04   0.06
  15   6    -0.05   0.11   0.14     0.11   0.06   0.16     0.00   0.04   0.09
  16   6    -0.08  -0.12   0.25    -0.05  -0.02   0.06    -0.03  -0.05   0.11
  17   8     0.13  -0.24  -0.13    -0.10   0.06   0.09    -0.00   0.03   0.00
  18   6     0.08   0.05  -0.07    -0.04   0.05   0.02     0.01   0.03   0.00
  19   6     0.16   0.02   0.12    -0.10  -0.01  -0.08     0.00   0.01   0.00
  20   1     0.01   0.06   0.01     0.00  -0.07   0.00     0.01  -0.00   0.01
  21   1    -0.05  -0.02   0.01     0.08   0.01  -0.02     0.01  -0.02  -0.02
  22   1    -0.07   0.06  -0.01     0.08  -0.06   0.01     0.00   0.01  -0.03
  23   1     0.04   0.05   0.03    -0.06  -0.04  -0.04     0.02   0.02   0.00
  24   1     0.06  -0.04   0.06    -0.06   0.04  -0.07     0.01   0.01   0.01
  25   1     0.00  -0.02  -0.03     0.08   0.01   0.04    -0.05   0.01  -0.00
  26   1     0.01  -0.02  -0.04     0.03   0.07  -0.07    -0.02  -0.02   0.09
  27   1     0.01  -0.02  -0.04    -0.06   0.00  -0.04     0.02   0.02   0.08
  28   1     0.01  -0.02  -0.02    -0.01  -0.05   0.06    -0.00   0.05  -0.03
  29   1     0.02  -0.01  -0.03     0.05   0.03   0.01    -0.07  -0.02   0.03
  30   1     0.04  -0.07   0.03     0.02  -0.04   0.06    -0.02  -0.28   0.12
  31   1     0.07  -0.06  -0.07     0.08  -0.03   0.02     0.08  -0.24  -0.17
  32   1     0.01   0.03   0.03     0.09  -0.02   0.07     0.02   0.00   0.03
  33   1    -0.00   0.06   0.03     0.04   0.09   0.06     0.01   0.04   0.02
  34   1    -0.06  -0.03   0.09    -0.08   0.03  -0.01    -0.04   0.00   0.02
  35   1    -0.04  -0.07   0.10    -0.02  -0.08   0.00    -0.02  -0.05   0.04
  36   1     0.03  -0.06   0.05     0.02   0.02   0.04     0.03  -0.01   0.04
  37   1     0.02   0.05   0.01    -0.00   0.02   0.02     0.00   0.01   0.00
  38   1    -0.01   0.04  -0.07     0.01   0.02  -0.00     0.00   0.01  -0.00
  39   1     0.08  -0.02   0.09    -0.05  -0.01  -0.01    -0.00   0.00  -0.00
  40   1     0.02   0.06   0.06    -0.01  -0.01  -0.04     0.00  -0.00   0.00
  41   1     0.06  -0.03   0.01    -0.04  -0.01  -0.03     0.00   0.00   0.00
                     22                     23                     24
                        a                      a                      a 
 Frequencies --   204.4109               222.1333               219.5602
 Red. masses --    16.7689                12.3430                 8.7194
 Frc consts  --     0.0000                 0.0000                 0.0000
 IR Inten    --     1.4720                 8.0489                 6.5115
 Raman Activ --     0.0000                 0.0000                 0.0000
 Depolar     --     0.0000                 0.0000                 0.0000
 Atom AN      X      Y      Z        X      Y      Z        X      Y      Z
   1   6    -0.28   0.15   0.13    -0.00   0.00   0.01     0.05   0.01   0.01
   2   6    -0.15  -0.13   0.07    -0.01  -0.01  -0.01     0.02  -0.07  -0.06
   3   8    -0.12  -0.22   0.25     0.01  -0.01   0.02    -0.16  -0.20  -0.21
   4  15     0.07   0.05  -0.08     0.03  -0.01   0.00    -0.27  -0.00  -0.05
   5  16    -0.17   0.05  -0.08    -0.02  -0.00   0.01     0.12  -0.01  -0.10
   6   8     0.18   0.18  -0.17    -0.05  -0.05   0.00     0.08   0.06   0.11
   7   6    -0.01  -0.11  -0.16    -0.00  -0.03  -0.00    -0.02   0.08   0.12
   8   6     0.08  -0.09  -0.06     0.01  -0.01  -0.01    -0.05   0.07   0.11
   9  16     0.37  -0.01   0.09    -0.03   0.06  -0.00     0.05  -0.07   0.05
  10   6     0.16  -0.02   0.12     0.05   0.03  -0.06     0.10   0.05  -0.01
  11  16     0.08   0.14  -0.14     0.16  -0.23  -0.05     0.20   0.05   0.00
  12  15    -0.12   0.01   0.06     0.14  -0.07  -0.07    -0.03   0.01   0.03
  13  16     0.04  -0.11  -0.01    -0.22   0.11  -0.03    -0.01  -0.02   0.00
  14   8     0.07  -0.10  -0.02    -0.06  -0.20   0.05     0.03  -0.02  -0.00
  15   6     0.06  -0.02   0.03     0.01  -0.03   0.21     0.01  -0.02  -0.01
  16   6     0.02   0.04  -0.04    -0.05  -0.02   0.15     0.01   0.01  -0.02
  17   8    -0.10   0.12   0.11     0.03   0.49  -0.17    -0.03   0.05   0.03
  18   6    -0.07   0.02   0.06    -0.02   0.06  -0.06    -0.04   0.03   0.03
  19   6    -0.15  -0.00  -0.08     0.01  -0.01   0.04    -0.08   0.01  -0.02
  20   1    -0.07   0.08  -0.04    -0.01  -0.00  -0.01     0.28   0.18   0.33
  21   1    -0.11   0.09   0.07    -0.00   0.02   0.01     0.12  -0.37  -0.17
  22   1    -0.09   0.03   0.09     0.01  -0.01   0.01    -0.34   0.23  -0.12
  23   1    -0.03  -0.07  -0.00    -0.00  -0.01  -0.01    -0.00   0.04   0.01
  24   1    -0.04  -0.02  -0.02    -0.01   0.00  -0.01     0.06  -0.06   0.00
  25   1    -0.05  -0.03  -0.11     0.00  -0.01   0.01    -0.00   0.02   0.03
  26   1    -0.01  -0.09  -0.00     0.00  -0.01  -0.01    -0.01   0.03   0.04
  27   1     0.09  -0.02   0.07    -0.01  -0.01  -0.04     0.00   0.03   0.08
  28   1     0.03   0.05  -0.08    -0.00  -0.02   0.03    -0.01   0.04  -0.01
  29   1    -0.03  -0.11  -0.02     0.03   0.03  -0.00    -0.05  -0.02   0.03
  30   1     0.03  -0.02   0.05     0.03   0.03  -0.03     0.02   0.02  -0.01
  31   1     0.07  -0.02   0.02    -0.01   0.02   0.00     0.03   0.02   0.01
  32   1     0.03  -0.02   0.02     0.04  -0.04   0.10    -0.00  -0.00  -0.00
  33   1     0.01   0.01   0.02     0.01   0.05   0.07     0.00  -0.01  -0.00
  34   1    -0.01   0.03  -0.04    -0.11   0.08  -0.08     0.01  -0.00  -0.01
  35   1     0.01  -0.01  -0.02    -0.06  -0.17   0.08     0.01   0.01  -0.01
  36   1     0.01   0.03   0.01     0.12   0.08   0.13    -0.01   0.00  -0.01
  37   1    -0.02  -0.00   0.01    -0.06  -0.03  -0.07    -0.01   0.01   0.01
  38   1    -0.00  -0.00   0.03     0.02  -0.01   0.05    -0.01   0.01   0.01
  39   1    -0.07   0.01  -0.04    -0.10   0.11  -0.23    -0.05   0.02  -0.04
  40   1    -0.02  -0.03  -0.05    -0.06  -0.30   0.09    -0.02  -0.05  -0.01
  41   1    -0.06   0.01  -0.02     0.17   0.15   0.21    -0.01   0.02   0.02
                     25                     26                     27
                        a                      a                      a 
 Frequencies --   227.5961               212.0514               248.6599
 Red. masses --     9.7152                 4.3255                11.6265
 Frc consts  --     0.0000                 0.0000                 0.0000
 IR Inten    --     4.5472                 3.3972                 4.9521
 Raman Activ --     0.0000                 0.0000                 0.0000
 Depolar     --     0.0000                 0.0000                 0.0000
 Atom AN      X      Y      Z        X      Y      Z        X      Y      Z
   1   6    -0.00   0.01   0.00    -0.01   0.01   0.01    -0.05   0.02   0.03
   2   6     0.03  -0.03   0.00     0.01  -0.03  -0.00    -0.03  -0.06  -0.00
   3   8     0.02  -0.06   0.05     0.00  -0.06   0.03    -0.01  -0.06   0.02
   4  15     0.07   0.01  -0.02     0.04   0.03  -0.02     0.06   0.12  -0.03
   5  16    -0.05  -0.04  -0.02    -0.03  -0.03  -0.04    -0.02  -0.01  -0.08
   6   8    -0.09  -0.14   0.07    -0.04  -0.07   0.06     0.11   0.10   0.01
   7   6    -0.05  -0.09   0.06    -0.04  -0.06   0.05    -0.11  -0.08   0.02
   8   6     0.01   0.01  -0.04     0.00   0.01  -0.01     0.00   0.00   0.03
   9  16    -0.10   0.24  -0.07     0.00   0.14  -0.04     0.24  -0.02   0.04
  10   6     0.16  -0.16  -0.16     0.03  -0.04  -0.02    -0.15   0.11   0.22
  11  16     0.28  -0.00  -0.03     0.05   0.11   0.11    -0.38   0.07  -0.02
  12  15    -0.07  -0.01   0.06    -0.02   0.09  -0.01     0.03  -0.02  -0.02
  13  16     0.02  -0.06   0.08     0.04   0.04  -0.08    -0.00  -0.01  -0.03
  14   8     0.03   0.09  -0.01     0.02  -0.14  -0.01     0.01  -0.05   0.00
  15   6     0.06   0.05  -0.03    -0.09  -0.13  -0.04     0.04   0.00   0.06
  16   6     0.01   0.00  -0.05     0.02   0.03  -0.03    -0.01  -0.00   0.01
  17   8    -0.08   0.08   0.13    -0.00  -0.01   0.06     0.04  -0.18  -0.16
  18   6    -0.09   0.07   0.10    -0.00  -0.07   0.06     0.07  -0.00  -0.15
  19   6    -0.20   0.00  -0.09    -0.03   0.01  -0.03     0.19  -0.00   0.09
  20   1    -0.01   0.00  -0.02     0.03   0.03   0.03     0.06   0.06   0.08
  21   1    -0.01   0.02   0.01     0.00  -0.03  -0.01     0.01  -0.07  -0.03
  22   1     0.01  -0.01   0.01    -0.04   0.02  -0.00    -0.11   0.06  -0.01
  23   1     0.01  -0.01  -0.00     0.00  -0.01  -0.00    -0.01  -0.02  -0.00
  24   1     0.01  -0.01  -0.00     0.00  -0.01  -0.01    -0.01  -0.01  -0.01
  25   1    -0.02  -0.02   0.04    -0.02  -0.01   0.02    -0.07  -0.02  -0.03
  26   1    -0.01  -0.03   0.01    -0.01  -0.02   0.01    -0.03  -0.07   0.04
  27   1    -0.15  -0.04  -0.30    -0.10  -0.03  -0.20    -0.15  -0.04  -0.27
  28   1    -0.06  -0.15   0.24    -0.04  -0.11   0.17    -0.07  -0.14   0.28
  29   1     0.24   0.24  -0.01     0.17   0.17  -0.00     0.27   0.22   0.01
  30   1     0.04  -0.11   0.03    -0.00  -0.04   0.03    -0.04   0.07   0.02
  31   1     0.06  -0.09  -0.12     0.02  -0.03  -0.04    -0.05   0.05   0.10
  32   1     0.02   0.02  -0.02    -0.05  -0.03  -0.01     0.03  -0.01   0.03
  33   1     0.01   0.01  -0.01    -0.03  -0.06  -0.02     0.01   0.02   0.02
  34   1     0.10  -0.11   0.16    -0.14   0.20  -0.34     0.02  -0.03   0.06
  35   1     0.07   0.20  -0.09    -0.11  -0.34   0.12     0.02   0.06  -0.03
  36   1    -0.18  -0.11  -0.13     0.32   0.22   0.20    -0.06  -0.03  -0.03
  37   1    -0.02   0.02   0.03     0.01  -0.03   0.01     0.02   0.02  -0.03
  38   1    -0.01   0.02   0.02    -0.00  -0.03   0.03    -0.00   0.01  -0.07
  39   1    -0.12   0.02  -0.07     0.08  -0.08   0.17     0.05   0.04  -0.07
  40   1    -0.02  -0.07  -0.06     0.04   0.23  -0.07    -0.01  -0.11   0.10
  41   1    -0.06   0.03   0.00    -0.15  -0.11  -0.16     0.17   0.06   0.12
                     28                     29                     30
                        a                      a                      a 
 Frequencies --   250.1989               290.9479               287.8585
 Red. masses --    10.1392                15.1345                15.0411
 Frc consts  --     0.0000                 0.0000                 0.0000
 IR Inten    --     4.2529                 7.9669                25.7190
 Raman Activ --     0.0000                 0.0000                 0.0000
 Depolar     --     0.0000                 0.0000                 0.0000
 Atom AN      X      Y      Z        X      Y      Z        X      Y      Z
   1   6    -0.01   0.00   0.01    -0.01  -0.00   0.00    -0.02   0.02   0.01
   2   6    -0.02  -0.02  -0.01    -0.02   0.01  -0.00     0.09   0.09   0.15
   3   8     0.00  -0.01   0.00     0.00   0.03  -0.01    -0.20  -0.07  -0.25
   4  15     0.02   0.03  -0.01    -0.00   0.02   0.02    -0.37  -0.04  -0.11
   5  16    -0.01   0.01  -0.01     0.01   0.01   0.02     0.15   0.03  -0.20
   6   8     0.03   0.05  -0.03     0.08   0.10  -0.05     0.36   0.12   0.17
   7   6    -0.04  -0.00  -0.02    -0.03  -0.01  -0.05    -0.00  -0.02   0.17
   8   6     0.00   0.01   0.02     0.01  -0.02   0.01    -0.04   0.04   0.01
   9  16     0.09  -0.04   0.04     0.05  -0.11   0.05    -0.02  -0.22   0.10
  10   6    -0.02   0.06   0.05    -0.01   0.03   0.02     0.04   0.07   0.02
  11  16    -0.04  -0.30  -0.15    -0.02  -0.32  -0.20     0.13   0.03   0.01
  12  15     0.10  -0.09  -0.12    -0.04  -0.13  -0.08     0.00   0.01   0.01
  13  16    -0.10   0.11   0.01     0.03  -0.01   0.16    -0.02   0.01  -0.02
  14   8    -0.07   0.01  -0.00    -0.16   0.41  -0.07     0.02  -0.03   0.00
  15   6     0.02   0.10   0.12    -0.18   0.16  -0.27     0.01  -0.01   0.02
  16   6    -0.06  -0.04   0.15    -0.00  -0.07   0.02     0.00   0.00   0.00
  17   8     0.04   0.39  -0.04     0.05   0.02   0.34    -0.00   0.02  -0.01
  18   6     0.01  -0.14   0.04     0.19   0.12   0.18    -0.02  -0.01   0.00
  19   6     0.02   0.01   0.01     0.05  -0.01  -0.07    -0.03   0.00  -0.01
  20   1     0.03   0.03   0.04     0.01   0.01   0.02    -0.18  -0.11  -0.22
  21   1     0.01  -0.04  -0.02     0.00  -0.01  -0.01    -0.10   0.23   0.12
  22   1    -0.05   0.03  -0.01    -0.02   0.01  -0.00     0.22  -0.13   0.06
  23   1    -0.01  -0.01  -0.00    -0.01  -0.00  -0.00     0.03   0.14   0.08
  24   1    -0.01  -0.00  -0.01    -0.01   0.01  -0.00     0.10  -0.05   0.11
  25   1    -0.02  -0.00  -0.02    -0.03  -0.01  -0.04    -0.04  -0.00   0.01
  26   1    -0.01  -0.02   0.00    -0.01  -0.03   0.01    -0.01  -0.03   0.11
  27   1    -0.03  -0.00  -0.04    -0.03  -0.01  -0.04    -0.05  -0.01  -0.09
  28   1    -0.02  -0.02   0.06    -0.02  -0.03   0.07    -0.02  -0.04   0.06
  29   1     0.06   0.03   0.01     0.07   0.03   0.00     0.04   0.11   0.01
  30   1     0.02   0.06  -0.03     0.02   0.05  -0.04     0.01   0.05  -0.03
  31   1    -0.04   0.05   0.06    -0.03   0.04   0.05     0.01   0.04   0.04
  32   1     0.04   0.01   0.05    -0.09   0.08  -0.13     0.00  -0.00   0.01
  33   1     0.01   0.07   0.04    -0.05  -0.03  -0.11     0.00  -0.00   0.01
  34   1     0.02  -0.09   0.19    -0.06   0.03  -0.07    -0.00   0.00  -0.00
  35   1     0.02   0.11   0.00    -0.07  -0.14   0.12     0.00  -0.00  -0.00
  36   1    -0.12  -0.11  -0.05     0.18  -0.00   0.04    -0.00   0.00   0.00
  37   1    -0.03  -0.10  -0.05     0.08   0.06   0.08    -0.01  -0.01  -0.00
  38   1     0.02  -0.08   0.10     0.08   0.05   0.01    -0.01  -0.00   0.01
  39   1     0.17  -0.13   0.29    -0.08   0.03  -0.10    -0.01  -0.00   0.00
  40   1     0.06   0.38  -0.07     0.05  -0.12  -0.05    -0.00   0.01  -0.01
  41   1    -0.20  -0.17  -0.22     0.04   0.04   0.03    -0.02  -0.00  -0.01
                     31                     32                     33
                        a                      a                      a 
 Frequencies --   295.7740               311.4641               348.0778
 Red. masses --    10.2694                18.9801                17.1675
 Frc consts  --     0.0000                 0.0000                 0.0000
 IR Inten    --     5.8399                21.1056                14.0460
 Raman Activ --     0.0000                 0.0000                 0.0000
 Depolar     --     0.0000                 0.0000                 0.0000
 Atom AN      X      Y      Z        X      Y      Z        X      Y      Z
   1   6     0.17  -0.04  -0.10     0.04  -0.02  -0.02     0.02  -0.01  -0.01
   2   6     0.27  -0.08  -0.02    -0.09   0.11  -0.06     0.01   0.01  -0.00
   3   8     0.00  -0.33   0.04     0.04   0.25  -0.02    -0.02  -0.01   0.00
   4  15     0.03  -0.04  -0.00    -0.10  -0.09   0.21    -0.04  -0.00   0.02
   5  16    -0.05   0.02   0.02     0.04   0.02   0.35     0.01  -0.00   0.04
   6   8    -0.18   0.18  -0.25     0.24   0.38  -0.25    -0.00   0.03  -0.01
   7   6    -0.24   0.25  -0.18    -0.04  -0.08  -0.27    -0.00  -0.01  -0.02
   8   6    -0.08   0.11   0.44     0.08  -0.11  -0.06     0.00  -0.02  -0.02
   9  16     0.02  -0.02  -0.01    -0.22  -0.30  -0.04    -0.01  -0.00  -0.02
  10   6     0.02  -0.02  -0.00     0.01  -0.03  -0.15     0.07  -0.03  -0.05
  11  16     0.02   0.02   0.01     0.13   0.06   0.09     0.06   0.14  -0.04
  12  15    -0.00   0.01   0.00     0.01   0.06   0.03    -0.14  -0.11   0.23
  13  16     0.01  -0.00  -0.01     0.00   0.02  -0.04    -0.14  -0.33   0.27
  14   8     0.01  -0.02  -0.00     0.05  -0.07   0.02    -0.13   0.20   0.08
  15   6     0.00  -0.01   0.01     0.03  -0.04   0.05     0.05  -0.07  -0.18
  16   6    -0.00   0.01  -0.00     0.00   0.01  -0.01     0.10   0.07  -0.26
  17   8    -0.01  -0.01  -0.01    -0.01  -0.02  -0.04    -0.13   0.34  -0.14
  18   6    -0.01  -0.00  -0.00    -0.06  -0.01  -0.00     0.07  -0.07  -0.24
  19   6    -0.02  -0.00  -0.01    -0.08   0.00  -0.01     0.29  -0.01   0.13
  20   1    -0.01  -0.05  -0.11     0.04  -0.01   0.08    -0.00  -0.01  -0.00
  21   1     0.01   0.06   0.02     0.06  -0.07  -0.05     0.01   0.00  -0.00
  22   1     0.13  -0.06  -0.02    -0.03   0.03  -0.03     0.01  -0.01  -0.01
  23   1     0.10   0.03   0.00    -0.04  -0.01  -0.02     0.00   0.01   0.00
  24   1     0.13  -0.06   0.02    -0.06   0.06  -0.03     0.01  -0.00   0.00
  25   1    -0.06   0.06  -0.07    -0.07  -0.03  -0.17    -0.00  -0.01  -0.01
  26   1    -0.06   0.05  -0.07    -0.02  -0.10  -0.02    -0.00  -0.01  -0.00
  27   1    -0.07   0.07   0.19    -0.04  -0.04  -0.10    -0.00  -0.01  -0.01
  28   1    -0.07   0.06   0.26    -0.02  -0.07   0.11    -0.00  -0.01   0.00
  29   1     0.13  -0.09   0.12     0.15   0.02  -0.02     0.01   0.00  -0.00
  30   1     0.00  -0.01   0.00    -0.01  -0.01  -0.04    -0.00  -0.04   0.02
  31   1     0.01  -0.01  -0.00     0.02  -0.01  -0.04     0.04  -0.03  -0.05
  32   1     0.00  -0.00   0.00     0.01  -0.01   0.02    -0.01   0.00  -0.08
  33   1     0.00  -0.00   0.00     0.01  -0.00   0.02     0.01  -0.05  -0.07
  34   1    -0.00   0.01  -0.01     0.00   0.01  -0.01     0.05   0.04  -0.14
  35   1    -0.00  -0.00  -0.00     0.01   0.01  -0.02     0.03   0.02  -0.09
  36   1     0.00   0.01   0.00    -0.01   0.01   0.00     0.01   0.08  -0.03
  37   1    -0.00  -0.00  -0.00    -0.02  -0.01  -0.00    -0.01  -0.05  -0.10
  38   1    -0.00  -0.00   0.00    -0.02  -0.00   0.00     0.04  -0.04  -0.01
  39   1    -0.01   0.00  -0.01    -0.02   0.00  -0.00     0.19  -0.03   0.09
  40   1    -0.00  -0.01  -0.00    -0.01   0.00  -0.01    -0.00   0.08   0.13
  41   1    -0.00   0.00   0.00    -0.03   0.00  -0.01     0.14  -0.03   0.03
                     34                     35                     36
                        a                      a                      a 
 Frequencies --   375.6710               384.9748               422.7219
 Red. masses --    19.7725                18.8031                17.2905
 Frc consts  --     0.0000                 0.0000                 0.0000
 IR Inten    --     4.0242                 6.7413                59.5129
 Raman Activ --     0.0000                 0.0000                 0.0000
 Depolar     --     0.0000                 0.0000                 0.0000
 Atom AN      X      Y      Z        X      Y      Z        X      Y      Z
   1   6    -0.21   0.06   0.12    -0.10   0.03   0.05     0.06  -0.02  -0.04
   2   6    -0.13  -0.08   0.06    -0.06  -0.03   0.03     0.01   0.05  -0.03
   3   8     0.21   0.26  -0.05     0.08   0.12  -0.06    -0.03  -0.06   0.15
   4  15     0.36  -0.11  -0.18     0.10  -0.12  -0.06     0.04   0.15  -0.01
   5  16    -0.04   0.08  -0.26    -0.01   0.03  -0.06    -0.03   0.01  -0.10
   6   8     0.19  -0.12  -0.00     0.09  -0.06  -0.01    -0.03   0.03   0.03
   7   6    -0.10   0.14   0.08    -0.04   0.06   0.02     0.02  -0.02   0.03
   8   6    -0.09   0.11   0.24    -0.04   0.05   0.10     0.01  -0.01  -0.03
   9  16    -0.23  -0.26   0.11    -0.11  -0.06   0.01    -0.04  -0.13   0.05
  10   6    -0.01  -0.01  -0.05     0.05  -0.03  -0.07    -0.01  -0.01   0.01
  11  16     0.01  -0.01  -0.01     0.15   0.07   0.10     0.04  -0.27  -0.10
  12  15     0.17  -0.00   0.12    -0.46   0.05  -0.22    -0.02   0.23   0.13
  13  16    -0.04  -0.05   0.04     0.10   0.08  -0.06     0.07   0.18  -0.19
  14   8     0.05   0.11   0.10    -0.15  -0.27  -0.21    -0.47  -0.01   0.26
  15   6     0.01  -0.03  -0.05     0.01   0.02   0.09     0.16  -0.28   0.09
  16   6     0.03   0.02  -0.07    -0.03  -0.01   0.09     0.10   0.10  -0.24
  17   8     0.04   0.00  -0.12    -0.13   0.05   0.28     0.01  -0.08   0.10
  18   6    -0.11  -0.01  -0.01     0.25   0.01  -0.01     0.06   0.02   0.09
  19   6    -0.12   0.01  -0.01     0.33  -0.02   0.04     0.01  -0.00  -0.01
  20   1    -0.00   0.09   0.01    -0.01   0.04   0.00     0.01  -0.03   0.02
  21   1    -0.08   0.01   0.04    -0.04   0.01   0.02     0.04  -0.02  -0.03
  22   1    -0.13   0.04   0.06    -0.05   0.02   0.03     0.03  -0.01  -0.03
  23   1    -0.05  -0.08   0.00    -0.02  -0.03   0.00     0.01  -0.00  -0.02
  24   1    -0.10   0.02  -0.01    -0.04   0.01   0.00     0.00   0.02  -0.02
  25   1    -0.03   0.05   0.03    -0.02   0.02   0.01     0.01  -0.01   0.00
  26   1    -0.04   0.04   0.05    -0.02   0.02   0.02     0.01  -0.01   0.00
  27   1    -0.05   0.05   0.10    -0.02   0.02   0.05     0.01  -0.01  -0.02
  28   1    -0.04   0.04   0.12    -0.02   0.02   0.05     0.01  -0.01  -0.02
  29   1     0.04  -0.02   0.07     0.01  -0.01   0.03    -0.01   0.01  -0.01
  30   1    -0.01   0.01  -0.04     0.00  -0.03   0.00     0.02   0.04  -0.04
  31   1     0.00   0.01   0.02     0.03  -0.02  -0.04    -0.03   0.02   0.05
  32   1    -0.02   0.01  -0.04     0.06  -0.05   0.09     0.09  -0.10   0.04
  33   1    -0.00  -0.05  -0.01     0.02   0.10   0.02     0.07   0.00  -0.00
  34   1     0.01   0.02  -0.06    -0.00  -0.03   0.08     0.08   0.04  -0.15
  35   1     0.01  -0.01  -0.02     0.00   0.03   0.01     0.09   0.08  -0.19
  36   1     0.01   0.03   0.00    -0.04  -0.04  -0.01    -0.12   0.13   0.00
  37   1    -0.04  -0.01  -0.02     0.10   0.02   0.02     0.03   0.02   0.04
  38   1    -0.04  -0.01   0.01     0.10   0.01  -0.02     0.02   0.01   0.00
  39   1    -0.04   0.00  -0.01     0.12  -0.01   0.02    -0.02   0.00  -0.01
  40   1    -0.02   0.00  -0.02     0.05   0.00   0.06     0.02  -0.01  -0.02
  41   1    -0.05   0.00  -0.01     0.14  -0.01   0.02    -0.01   0.00  -0.00
                     37                     38                     39
                        a                      a                      a 
 Frequencies --   431.0539               438.4188               459.9113
 Red. masses --    24.1026                23.2157                18.4051
 Frc consts  --     0.0000                 0.0000                 0.0000
 IR Inten    --    89.0265               126.1752                81.8320
 Raman Activ --     0.0000                 0.0000                 0.0000
 Depolar     --     0.0000                 0.0000                 0.0000
 Atom AN      X      Y      Z        X      Y      Z        X      Y      Z
   1   6    -0.17   0.07   0.11     0.05  -0.02  -0.03    -0.14   0.07   0.10
   2   6    -0.01  -0.13   0.08    -0.00   0.05  -0.02     0.18  -0.33   0.08
   3   8     0.08   0.12  -0.41    -0.02  -0.03   0.14     0.18  -0.07  -0.41
   4  15    -0.14  -0.38   0.04     0.03   0.07  -0.01     0.09   0.48   0.13
   5  16     0.07  -0.04   0.29    -0.02   0.01  -0.09     0.03  -0.06   0.08
   6   8     0.07  -0.07  -0.07    -0.01   0.01   0.02    -0.30   0.12   0.02
   7   6    -0.04   0.05  -0.07     0.01  -0.01   0.02     0.03  -0.06  -0.03
   8   6    -0.01   0.02   0.06    -0.00  -0.00  -0.01     0.05  -0.06  -0.11
   9  16     0.24   0.39  -0.11    -0.03  -0.06   0.04    -0.14  -0.23   0.03
  10   6    -0.06  -0.01  -0.00     0.00  -0.04  -0.02     0.03  -0.01  -0.01
  11  16    -0.05  -0.23  -0.11     0.11  -0.39  -0.16     0.03  -0.01   0.01
  12  15    -0.03   0.17   0.15    -0.28   0.40   0.33    -0.03   0.03   0.01
  13  16     0.03   0.07  -0.08     0.06   0.05  -0.08     0.01   0.00  -0.01
  14   8    -0.05   0.05   0.11     0.44   0.04  -0.01     0.03  -0.01  -0.01
  15   6     0.04  -0.07   0.02    -0.06   0.09  -0.01    -0.00   0.01   0.00
  16   6     0.03   0.03  -0.07    -0.04  -0.04   0.10    -0.00  -0.00   0.01
  17   8    -0.02  -0.06  -0.01    -0.19  -0.07  -0.05    -0.02  -0.00   0.01
  18   6    -0.01  -0.01  -0.02    -0.07  -0.05  -0.21    -0.00  -0.00  -0.01
  19   6     0.00   0.00   0.01     0.07   0.00   0.04     0.01   0.00   0.00
  20   1    -0.02   0.08  -0.05     0.01  -0.03   0.02     0.02   0.14  -0.11
  21   1    -0.10   0.05   0.08     0.03  -0.02  -0.03    -0.14   0.07   0.10
  22   1    -0.09   0.02   0.07     0.03  -0.01  -0.02    -0.11   0.03   0.09
  23   1    -0.02   0.01   0.05     0.00  -0.01  -0.02     0.04  -0.00   0.06
  24   1     0.01  -0.06   0.05    -0.01   0.02  -0.02     0.08  -0.13   0.07
  25   1    -0.01   0.01  -0.01     0.00  -0.00   0.00     0.03  -0.02  -0.02
  26   1    -0.01   0.01  -0.01     0.00   0.00   0.01     0.02  -0.02  -0.05
  27   1    -0.01   0.02   0.04    -0.00  -0.00  -0.01     0.03  -0.03  -0.05
  28   1    -0.01   0.02   0.04     0.00  -0.01  -0.01     0.02  -0.02  -0.06
  29   1     0.03  -0.03   0.02    -0.01   0.01  -0.00    -0.02   0.02  -0.03
  30   1     0.02  -0.00   0.02     0.04   0.03  -0.04    -0.00   0.01  -0.02
  31   1    -0.04  -0.01  -0.02    -0.03   0.01   0.04     0.01   0.01   0.01
  32   1     0.01  -0.01  -0.01    -0.06   0.06  -0.05    -0.00   0.00   0.00
  33   1     0.01  -0.02   0.00    -0.04  -0.05   0.02    -0.00  -0.00   0.00
  34   1     0.02   0.01  -0.05    -0.04  -0.01   0.05    -0.00  -0.00   0.00
  35   1     0.02   0.01  -0.05    -0.04  -0.05   0.08    -0.00  -0.00   0.01
  36   1    -0.02   0.04   0.00     0.06  -0.05   0.01     0.00  -0.00   0.00
  37   1    -0.00   0.00  -0.00    -0.01  -0.01  -0.05     0.00  -0.00  -0.00
  38   1    -0.01   0.00  -0.01    -0.02  -0.01  -0.06     0.00  -0.00  -0.00
  39   1     0.01   0.00   0.00     0.08  -0.01   0.02     0.01  -0.00   0.00
  40   1    -0.01   0.00   0.01    -0.05   0.03   0.08    -0.00   0.00   0.01
  41   1     0.01   0.00   0.00     0.07  -0.00   0.02     0.01  -0.00   0.00
                     40                     41                     42
                        a                      a                      a 
 Frequencies --   632.9559               643.4717               680.7862
 Red. masses --    23.4077                25.4428                18.4849
 Frc consts  --     0.0000                 0.0000                 0.0000
 IR Inten    --   184.1029               182.7536                25.0794
 Raman Activ --     0.0000                 0.0000                 0.0000
 Depolar     --     0.0000                 0.0000                 0.0000
 Atom AN      X      Y      Z        X      Y      Z        X      Y      Z
   1   6     0.03  -0.01  -0.02     0.00   0.00  -0.00     0.01  -0.00  -0.01
   2   6     0.17  -0.20   0.02     0.00  -0.00  -0.00     0.05  -0.06   0.00
   3   8     0.34   0.13   0.20     0.00   0.00   0.00     0.10   0.08   0.05
   4  15    -0.31  -0.24   0.38    -0.00  -0.01   0.01    -0.09  -0.12   0.15
   5  16    -0.02   0.13  -0.48    -0.00   0.00  -0.01     0.00   0.04  -0.13
   6   8    -0.11   0.22   0.03     0.00  -0.00  -0.00    -0.01   0.05  -0.01
   7   6     0.02  -0.03   0.04    -0.00   0.00  -0.00     0.00  -0.01   0.01
   8   6     0.02  -0.03  -0.03     0.00  -0.00  -0.00     0.00  -0.01  -0.00
   9  16     0.12   0.05   0.10    -0.02  -0.01  -0.02    -0.28   0.01  -0.43
  10   6    -0.11  -0.00  -0.23     0.12   0.04  -0.00     0.21   0.03   0.72
  11  16    -0.03   0.00   0.02    -0.05   0.05   0.03     0.12  -0.01  -0.10
  12  15     0.01  -0.01  -0.00    -0.00  -0.59   0.11    -0.01   0.02   0.01
  13  16    -0.00  -0.00   0.00     0.13   0.43  -0.31    -0.00  -0.00   0.00
  14   8    -0.00   0.00   0.00     0.15   0.19   0.19    -0.01   0.00  -0.01
  15   6     0.00  -0.00  -0.00     0.02  -0.07   0.06    -0.00  -0.00  -0.00
  16   6     0.00   0.00  -0.00    -0.00  -0.01  -0.00     0.00  -0.00  -0.00
  17   8     0.00   0.00  -0.00    -0.30   0.03   0.20     0.03  -0.00  -0.02
  18   6     0.00   0.00   0.00    -0.08  -0.03  -0.16     0.01   0.01   0.02
  19   6    -0.00  -0.00  -0.00     0.01  -0.00  -0.01    -0.00   0.00   0.00
  20   1     0.05   0.08  -0.07     0.00   0.00  -0.00     0.02   0.02  -0.03
  21   1    -0.06  -0.00   0.03    -0.00  -0.00   0.00    -0.02  -0.00   0.01
  22   1    -0.05   0.02   0.01    -0.00   0.00  -0.00    -0.02   0.01   0.00
  23   1     0.05  -0.14  -0.02     0.00  -0.00  -0.00     0.01  -0.04  -0.01
  24   1    -0.02   0.00  -0.03    -0.00   0.00  -0.00    -0.01   0.01  -0.01
  25   1     0.00  -0.01  -0.01    -0.00   0.00   0.00     0.00  -0.01  -0.01
  26   1     0.01  -0.02  -0.00     0.00  -0.00  -0.00     0.00  -0.00  -0.00
  27   1     0.01  -0.02  -0.04    -0.00   0.00   0.00     0.00  -0.00  -0.01
  28   1     0.02  -0.02  -0.04     0.00  -0.00   0.00     0.00  -0.00  -0.01
  29   1    -0.03   0.03  -0.01     0.00  -0.00  -0.00    -0.00   0.01  -0.00
  30   1    -0.01  -0.02  -0.03     0.00  -0.02   0.02     0.02  -0.01   0.19
  31   1    -0.01  -0.00  -0.06     0.04  -0.00  -0.02     0.06  -0.03   0.12
  32   1    -0.00   0.00   0.00    -0.04   0.03  -0.04     0.00  -0.00  -0.00
  33   1    -0.00   0.00   0.00    -0.01  -0.10   0.02     0.00   0.00  -0.00
  34   1     0.00   0.00  -0.00    -0.00   0.01  -0.03     0.00  -0.00   0.00
  35   1     0.00   0.00   0.00     0.01  -0.01  -0.03    -0.00   0.00   0.00
  36   1    -0.00   0.00   0.00    -0.03   0.03   0.02     0.00  -0.00  -0.00
  37   1    -0.00  -0.00  -0.00     0.01   0.01  -0.02    -0.00  -0.00   0.00
  38   1    -0.00  -0.00   0.00    -0.00  -0.00  -0.05     0.00   0.00   0.01
  39   1    -0.00   0.00  -0.00     0.07  -0.01   0.01    -0.01   0.00  -0.00
  40   1     0.00  -0.00  -0.00    -0.07   0.03   0.08     0.01  -0.00  -0.01
  41   1    -0.00   0.00  -0.00     0.07   0.00   0.02    -0.01  -0.00  -0.00
                     43                     44                     45
                        a                      a                      a 
 Frequencies --   711.3352               754.1119               755.8129
 Red. masses --    16.9490                22.5444                18.1250
 Frc consts  --     0.0000                 0.0000                 0.0000
 IR Inten    --    35.6437               277.5548               130.8190
 Raman Activ --     0.0000                 0.0000                 0.0000
 Depolar     --     0.0000                 0.0000                 0.0000
 Atom AN      X      Y      Z        X      Y      Z        X      Y      Z
   1   6    -0.00  -0.00  -0.00     0.06  -0.02  -0.05    -0.00  -0.00   0.00
   2   6    -0.01   0.00  -0.00     0.20  -0.18   0.07    -0.00   0.00   0.00
   3   8    -0.02  -0.00  -0.01     0.28   0.15   0.30    -0.00  -0.00  -0.00
   4  15    -0.01  -0.04   0.05    -0.44   0.20  -0.50     0.00  -0.00   0.00
   5  16    -0.01   0.01  -0.04     0.02  -0.08   0.28    -0.00   0.00   0.00
   6   8     0.00  -0.00  -0.00     0.12  -0.15   0.01     0.00   0.01  -0.01
   7   6    -0.00  -0.00  -0.00    -0.01   0.01  -0.03    -0.01  -0.01   0.01
   8   6     0.00  -0.00  -0.00    -0.02   0.02   0.00    -0.01  -0.00   0.00
   9  16    -0.05   0.01  -0.05    -0.02  -0.02   0.01     0.00   0.00   0.00
  10   6     0.76   0.18  -0.18     0.07  -0.02   0.01    -0.00  -0.01  -0.01
  11  16    -0.44  -0.14   0.18    -0.02   0.01   0.01    -0.00   0.02   0.00
  12  15     0.02   0.12  -0.02    -0.01  -0.00   0.01     0.22  -0.10   0.53
  13  16    -0.01  -0.06   0.04    -0.00   0.00  -0.00     0.03   0.13  -0.12
  14   8    -0.01  -0.03  -0.01    -0.00  -0.00   0.00    -0.27  -0.35  -0.24
  15   6    -0.01   0.01  -0.01    -0.00   0.00  -0.00    -0.12   0.28  -0.30
  16   6    -0.00   0.00  -0.00     0.00   0.00  -0.00     0.05   0.03  -0.11
  17   8    -0.01  -0.02  -0.01     0.01   0.00  -0.00    -0.05   0.00   0.01
  18   6     0.01  -0.00   0.01     0.00   0.00   0.00    -0.01  -0.01  -0.02
  19   6     0.00  -0.00   0.00     0.00  -0.00  -0.00    -0.02   0.00   0.00
  20   1    -0.00  -0.00   0.00     0.06   0.09  -0.12    -0.00  -0.00   0.00
  21   1     0.00   0.00  -0.00    -0.09  -0.02   0.05     0.00  -0.00  -0.00
  22   1     0.00  -0.00   0.00    -0.04   0.03  -0.03     0.00  -0.00  -0.00
  23   1    -0.00   0.01   0.00     0.03  -0.22  -0.02    -0.00   0.00   0.00
  24   1     0.00  -0.00   0.00    -0.05   0.05  -0.07     0.00  -0.00  -0.00
  25   1     0.00  -0.00  -0.00     0.01   0.01   0.02     0.03  -0.01  -0.00
  26   1    -0.00   0.00  -0.00    -0.01   0.02  -0.00    -0.00   0.02  -0.00
  27   1     0.00  -0.00   0.00    -0.01   0.01   0.03     0.02  -0.01  -0.01
  28   1    -0.00   0.00   0.00    -0.02   0.02   0.03    -0.01   0.02   0.00
  29   1     0.00  -0.00  -0.00     0.03  -0.03  -0.00     0.01   0.01   0.00
  30   1     0.17   0.07  -0.09     0.01   0.03  -0.05    -0.00   0.00  -0.01
  31   1     0.13   0.07  -0.01    -0.03   0.02   0.05    -0.00   0.00   0.00
  32   1     0.01  -0.01   0.01     0.00  -0.00   0.00     0.10  -0.04   0.05
  33   1     0.00   0.01  -0.00    -0.00   0.00   0.00    -0.02   0.26  -0.03
  34   1     0.00  -0.00   0.00     0.00  -0.00   0.00     0.04  -0.04   0.07
  35   1    -0.00   0.00   0.01    -0.00  -0.00   0.00    -0.06   0.03   0.14
  36   1     0.00  -0.00  -0.00     0.00  -0.00  -0.00     0.17  -0.12  -0.12
  37   1     0.00  -0.00   0.00    -0.00   0.00   0.00     0.00  -0.00  -0.00
  38   1    -0.00   0.00  -0.00     0.00   0.00   0.00    -0.00  -0.00  -0.01
  39   1     0.00   0.00  -0.00    -0.00   0.00  -0.00     0.01  -0.00   0.00
  40   1     0.00  -0.00  -0.00     0.00  -0.00  -0.00    -0.02   0.01   0.01
  41   1    -0.00   0.00   0.00    -0.00   0.00  -0.00     0.01   0.00   0.00
                     46                     47                     48
                        a                      a                      a 
 Frequencies --   784.2402               786.1799               795.7319
 Red. masses --    19.8088                17.2342                 5.9427
 Frc consts  --     0.0000                 0.0000                 0.0000
 IR Inten    --   273.7185               128.2374                 2.2501
 Raman Activ --     0.0000                 0.0000                 0.0000
 Depolar     --     0.0000                 0.0000                 0.0000
 Atom AN      X      Y      Z        X      Y      Z        X      Y      Z
   1   6     0.00  -0.00  -0.00    -0.01   0.00   0.01     0.00   0.00  -0.00
   2   6     0.01  -0.01   0.00    -0.03   0.05   0.01     0.01  -0.01   0.01
   3   8     0.01   0.01   0.01     0.03  -0.04  -0.03     0.01   0.00   0.02
   4  15    -0.01  -0.01  -0.02    -0.16   0.29   0.39    -0.01   0.01  -0.10
   5  16     0.00  -0.00   0.01     0.00   0.02  -0.15     0.00  -0.01   0.04
   6   8    -0.00   0.02   0.00     0.29  -0.51   0.08    -0.02   0.03  -0.00
   7   6     0.00  -0.00   0.01    -0.11   0.08  -0.39     0.01  -0.01   0.03
   8   6    -0.00  -0.00   0.00     0.02  -0.02  -0.12    -0.00   0.00   0.02
   9  16    -0.00  -0.01  -0.01     0.01  -0.00   0.00     0.03  -0.13   0.03
  10   6    -0.05   0.04   0.04    -0.03   0.04  -0.01    -0.08   0.52  -0.02
  11  16     0.03  -0.03  -0.01     0.00  -0.01  -0.00    -0.02  -0.16   0.00
  12  15     0.50   0.25  -0.25     0.01   0.01   0.00    -0.03   0.02   0.03
  13  16    -0.05  -0.15   0.11    -0.00  -0.00   0.00     0.01   0.01  -0.01
  14   8    -0.07  -0.03  -0.02    -0.01  -0.01  -0.00     0.00  -0.01   0.01
  15   6    -0.01  -0.01   0.01    -0.00   0.00  -0.00     0.00   0.01  -0.01
  16   6    -0.00   0.00   0.01     0.00   0.00  -0.00     0.00  -0.00  -0.00
  17   8    -0.39  -0.03   0.43    -0.01  -0.00   0.00     0.03  -0.02  -0.06
  18   6    -0.15  -0.09  -0.25    -0.00  -0.00  -0.00     0.02   0.01   0.04
  19   6    -0.07  -0.01  -0.06    -0.00  -0.00  -0.00     0.01   0.00   0.01
  20   1     0.00   0.00  -0.00    -0.01  -0.01   0.02     0.00   0.00  -0.01
  21   1    -0.00  -0.00   0.00     0.00  -0.01  -0.00    -0.01  -0.00   0.00
  22   1    -0.00   0.00  -0.00     0.01  -0.00  -0.01     0.00   0.00  -0.01
  23   1     0.00  -0.01  -0.00    -0.00   0.01   0.00    -0.00  -0.02  -0.00
  24   1    -0.00   0.00  -0.00     0.00   0.01   0.00    -0.00   0.01  -0.01
  25   1     0.01  -0.00   0.00     0.00   0.04   0.00     0.00  -0.01  -0.00
  26   1    -0.00   0.00   0.00    -0.05   0.08  -0.05     0.00  -0.00   0.00
  27   1     0.01  -0.00  -0.00    -0.02   0.05   0.12     0.00  -0.00  -0.01
  28   1    -0.00   0.01  -0.00    -0.06   0.07   0.13     0.00  -0.00  -0.01
  29   1    -0.00   0.01   0.00     0.20  -0.23  -0.04    -0.02   0.02   0.01
  30   1    -0.01  -0.02   0.05    -0.01  -0.03   0.05    -0.06  -0.27   0.49
  31   1     0.02  -0.02  -0.03     0.02  -0.02  -0.05     0.21  -0.16  -0.51
  32   1     0.01  -0.02   0.02    -0.00  -0.00   0.00    -0.00   0.00  -0.00
  33   1     0.01   0.03   0.00     0.00   0.00  -0.00    -0.00   0.00   0.00
  34   1     0.00   0.00  -0.00    -0.00   0.00   0.00     0.00  -0.00   0.00
  35   1     0.00   0.00  -0.00    -0.00  -0.00  -0.00    -0.00   0.00   0.00
  36   1    -0.00   0.00   0.00     0.00  -0.00  -0.00     0.00  -0.00  -0.00
  37   1     0.02   0.04   0.01    -0.00   0.00   0.00    -0.00  -0.01  -0.00
  38   1     0.03   0.00  -0.13     0.00   0.00  -0.00    -0.01   0.00   0.01
  39   1     0.17  -0.01   0.00     0.00   0.00  -0.00    -0.02   0.00   0.00
  40   1    -0.19   0.07   0.16    -0.00   0.00   0.00     0.03  -0.01  -0.02
  41   1     0.10   0.02   0.05    -0.00   0.00   0.00    -0.01  -0.00  -0.01
                     49                     50                     51
                        a                      a                      a 
 Frequencies --   819.7241               819.7041               822.6429
 Red. masses --     2.8986                 2.3671                 2.9454
 Frc consts  --     0.0000                 0.0000                 0.0000
 IR Inten    --     1.5229                 4.0875                 2.3941
 Raman Activ --     0.0000                 0.0000                 0.0000
 Depolar     --     0.0000                 0.0000                 0.0000
 Atom AN      X      Y      Z        X      Y      Z        X      Y      Z
   1   6     0.00   0.00   0.01    -0.01  -0.01  -0.01     0.03   0.05   0.10
   2   6     0.01   0.01   0.02    -0.02  -0.02  -0.03     0.12   0.14   0.20
   3   8    -0.01  -0.00  -0.01     0.02   0.01   0.02    -0.09  -0.09  -0.15
   4  15    -0.00   0.00   0.00    -0.00  -0.01  -0.01     0.08  -0.01   0.07
   5  16     0.00  -0.00  -0.00    -0.00   0.00   0.00     0.00   0.01  -0.02
   6   8    -0.04  -0.04   0.03     0.05   0.06  -0.04    -0.01   0.03  -0.02
   7   6     0.13   0.11  -0.02    -0.15  -0.14   0.03    -0.03  -0.03   0.02
   8   6     0.05   0.04  -0.02    -0.06  -0.05   0.02    -0.01  -0.01   0.01
   9  16    -0.00   0.00  -0.00     0.00  -0.00   0.00     0.00   0.00   0.00
  10   6     0.01   0.00   0.00     0.00  -0.00  -0.01     0.00  -0.01  -0.01
  11  16     0.00   0.00   0.00     0.00   0.00   0.00    -0.00   0.00   0.00
  12  15     0.04   0.01   0.07     0.01   0.00   0.03    -0.00  -0.00   0.00
  13  16     0.00   0.01  -0.01     0.00   0.01  -0.01     0.00   0.00  -0.00
  14   8    -0.12  -0.15  -0.03    -0.08  -0.09  -0.02    -0.00  -0.00  -0.00
  15   6     0.14   0.17   0.03     0.13   0.12   0.04     0.01   0.00   0.01
  16   6     0.08   0.05  -0.01     0.05   0.04   0.01     0.00   0.00   0.00
  17   8    -0.02   0.01  -0.01    -0.01   0.01  -0.02     0.00   0.00  -0.01
  18   6     0.00  -0.03   0.02     0.01  -0.03   0.03     0.00  -0.01   0.01
  19   6     0.00  -0.01   0.01     0.01  -0.02   0.01     0.00  -0.01   0.00
  20   1    -0.01  -0.00  -0.01     0.02   0.01   0.02    -0.11  -0.07  -0.09
  21   1    -0.02  -0.02   0.01     0.05   0.04  -0.02    -0.30  -0.25   0.13
  22   1     0.01   0.01  -0.03    -0.02  -0.02   0.06     0.13   0.13  -0.39
  23   1    -0.02  -0.03   0.01     0.04   0.06  -0.02    -0.26  -0.37   0.10
  24   1     0.00   0.02  -0.03    -0.00  -0.04   0.06     0.02   0.25  -0.41
  25   1    -0.30   0.13  -0.02     0.35  -0.15   0.03     0.08  -0.03   0.00
  26   1     0.07  -0.31   0.03    -0.08   0.36  -0.03    -0.02   0.08  -0.01
  27   1    -0.24   0.12   0.07     0.29  -0.14  -0.09     0.07  -0.03  -0.02
  28   1     0.07  -0.25  -0.06    -0.08   0.29   0.07    -0.01   0.06   0.01
  29   1    -0.06  -0.08  -0.01     0.07   0.10   0.01     0.01   0.03   0.00
  30   1    -0.00   0.00  -0.00     0.00   0.00  -0.00    -0.00   0.00  -0.01
  31   1     0.00  -0.00   0.00     0.00   0.00   0.00    -0.00   0.00   0.00
  32   1    -0.32   0.17   0.05    -0.27   0.14   0.04    -0.02   0.01   0.00
  33   1     0.07  -0.28  -0.19     0.06  -0.24  -0.16     0.00  -0.02  -0.01
  34   1    -0.29   0.07   0.15    -0.24   0.06   0.12    -0.01   0.00   0.01
  35   1     0.08  -0.20  -0.22     0.07  -0.16  -0.19     0.00  -0.01  -0.01
  36   1    -0.04  -0.09  -0.10    -0.05  -0.06  -0.06    -0.01  -0.00  -0.00
  37   1    -0.02   0.03   0.03    -0.03   0.04   0.04    -0.01   0.02   0.01
  38   1     0.03   0.01  -0.04     0.04   0.02  -0.05     0.01   0.01  -0.02
  39   1     0.03   0.01  -0.03     0.04   0.01  -0.03     0.01   0.00  -0.01
  40   1     0.01   0.01  -0.01     0.02   0.02  -0.01     0.00   0.01  -0.00
  41   1    -0.04   0.03   0.02    -0.05   0.03   0.02    -0.02   0.01   0.01
                     52                     53                     54
                        a                      a                      a 
 Frequencies --   825.1663               914.8917               918.4655
 Red. masses --     2.2725                14.5729                14.4509
 Frc consts  --     0.0000                 0.0000                 0.0000
 IR Inten    --     2.4693               563.4092               240.2158
 Raman Activ --     0.0000                 0.0000                 0.0000
 Depolar     --     0.0000                 0.0000                 0.0000
 Atom AN      X      Y      Z        X      Y      Z        X      Y      Z
   1   6     0.00   0.00   0.00     0.08  -0.02  -0.06     0.09  -0.02  -0.07
   2   6     0.00   0.00   0.01     0.07  -0.13  -0.01     0.07  -0.14  -0.00
   3   8    -0.00  -0.00  -0.00    -0.22   0.13   0.04    -0.24   0.14   0.04
   4  15     0.00   0.00   0.00     0.13  -0.13  -0.10     0.12  -0.11  -0.09
   5  16     0.00   0.00  -0.00    -0.00  -0.00   0.00    -0.00  -0.00   0.00
   6   8     0.00   0.00  -0.00    -0.08   0.17   0.46    -0.07   0.14   0.41
   7   6    -0.01  -0.01   0.00    -0.05   0.06  -0.24    -0.03   0.06  -0.22
   8   6    -0.00  -0.00   0.00     0.03  -0.05  -0.12     0.03  -0.04  -0.11
   9  16    -0.00   0.00  -0.00    -0.00  -0.00  -0.00     0.00  -0.00   0.00
  10   6    -0.00   0.00   0.00     0.00   0.00   0.01     0.00   0.00  -0.01
  11  16     0.00   0.00  -0.00     0.00  -0.01  -0.00     0.00   0.00   0.00
  12  15     0.05   0.02  -0.02    -0.12  -0.00  -0.17     0.13   0.00   0.18
  13  16    -0.00  -0.01   0.00    -0.00  -0.01  -0.00     0.00   0.01   0.00
  14   8    -0.04  -0.03  -0.01     0.03  -0.17   0.46    -0.03   0.18  -0.48
  15   6     0.03   0.04   0.01    -0.01   0.21  -0.13     0.01  -0.21   0.13
  16   6     0.02   0.01   0.00     0.06   0.02  -0.13    -0.06  -0.03   0.14
  17   8    -0.03  -0.09   0.09     0.17   0.01   0.07    -0.19  -0.01  -0.09
  18   6     0.01   0.24  -0.09    -0.05  -0.01  -0.08     0.06   0.01   0.10
  19   6    -0.00   0.11  -0.04    -0.05   0.00  -0.02     0.06  -0.00   0.02
  20   1    -0.00  -0.00  -0.00     0.06   0.07  -0.09     0.07   0.08  -0.10
  21   1    -0.01  -0.01   0.01    -0.03   0.01   0.02    -0.03   0.01   0.02
  22   1     0.00   0.00  -0.01    -0.03   0.01   0.01    -0.03   0.01   0.01
  23   1    -0.01  -0.01   0.00    -0.03  -0.02   0.03    -0.04  -0.02   0.03
  24   1     0.00   0.01  -0.01    -0.01  -0.01   0.00    -0.01  -0.02   0.00
  25   1     0.02  -0.01   0.00     0.01   0.02  -0.00    -0.01   0.02  -0.01
  26   1    -0.00   0.02  -0.00    -0.04   0.05   0.03    -0.03   0.03   0.03
  27   1     0.02  -0.01  -0.00     0.02   0.01   0.04    -0.00   0.01   0.04
  28   1    -0.00   0.02   0.00    -0.03   0.04   0.05    -0.02   0.03   0.04
  29   1     0.00   0.00   0.00     0.12  -0.13  -0.04     0.11  -0.12  -0.03
  30   1     0.00   0.00  -0.00     0.00  -0.00   0.00     0.00  -0.00   0.00
  31   1    -0.00   0.00   0.00    -0.00   0.00   0.00     0.00   0.00  -0.00
  32   1    -0.07   0.04   0.01     0.01   0.03   0.00    -0.01  -0.03  -0.00
  33   1     0.02  -0.06  -0.04    -0.05   0.01   0.07     0.05  -0.01  -0.08
  34   1    -0.07   0.02   0.03     0.01  -0.02   0.03    -0.01   0.02  -0.04
  35   1     0.02  -0.04  -0.05    -0.03  -0.00   0.06     0.03   0.00  -0.07
  36   1    -0.01  -0.02  -0.02     0.13  -0.09  -0.10    -0.14   0.10   0.11
  37   1     0.23  -0.32  -0.29     0.00   0.00  -0.01    -0.00  -0.00   0.01
  38   1    -0.28  -0.11   0.38     0.02  -0.01  -0.01    -0.02   0.01   0.01
  39   1    -0.32  -0.08   0.24     0.03  -0.00   0.00    -0.03   0.00  -0.00
  40   1    -0.07  -0.13   0.06    -0.06   0.02   0.04     0.07  -0.02  -0.05
  41   1     0.33  -0.25  -0.16     0.02   0.01   0.01    -0.02  -0.00  -0.01
                     55                     56                     57
                        a                      a                      a 
 Frequencies --   938.3366               939.5668              1028.4089
 Red. masses --    12.6804                12.6137                 7.9341
 Frc consts  --     0.0000                 0.0000                 0.0000
 IR Inten    --   194.5105               170.1269               145.4862
 Raman Activ --     0.0000                 0.0000                 0.0000
 Depolar     --     0.0000                 0.0000                 0.0000
 Atom AN      X      Y      Z        X      Y      Z        X      Y      Z
   1   6    -0.03   0.01   0.02     0.25  -0.05  -0.18    -0.00   0.00   0.00
   2   6    -0.01   0.04  -0.00     0.08  -0.27   0.03     0.00  -0.00  -0.00
   3   8     0.07  -0.04  -0.01    -0.50   0.27   0.07    -0.00   0.00   0.00
   4  15    -0.01  -0.01  -0.02     0.08   0.08   0.18    -0.00   0.00   0.00
   5  16     0.00  -0.00   0.00    -0.00   0.01  -0.02     0.00   0.00  -0.00
   6   8    -0.02   0.02   0.04     0.13  -0.19  -0.36     0.00  -0.01   0.00
   7   6    -0.00   0.00  -0.02     0.04  -0.05   0.17     0.01  -0.01  -0.02
   8   6     0.00  -0.00  -0.01    -0.03   0.04   0.09    -0.01   0.01   0.02
   9  16    -0.00   0.00  -0.00     0.02   0.01   0.01    -0.00   0.00  -0.00
  10   6    -0.02  -0.02   0.01    -0.02  -0.00  -0.02    -0.00  -0.00   0.00
  11  16     0.02  -0.00  -0.01     0.00  -0.00   0.00     0.00  -0.00  -0.00
  12  15     0.15   0.03  -0.14     0.01   0.01  -0.03     0.01  -0.00   0.00
  13  16    -0.00  -0.01   0.01    -0.00  -0.00   0.00    -0.00   0.01  -0.01
  14   8     0.07  -0.07   0.25     0.01  -0.02   0.06     0.00  -0.19   0.16
  15   6    -0.01   0.10  -0.05    -0.00   0.02  -0.01     0.22   0.14  -0.49
  16   6     0.03   0.01  -0.09     0.01   0.00  -0.02    -0.21  -0.05   0.40
  17   8    -0.63  -0.04  -0.24    -0.07  -0.00  -0.02     0.01   0.00   0.04
  18   6     0.12   0.04   0.31     0.01   0.00   0.03    -0.12   0.01  -0.02
  19   6     0.27  -0.01   0.07     0.03  -0.00   0.01     0.10  -0.01   0.00
  20   1    -0.03  -0.03   0.03     0.19   0.20  -0.26    -0.00  -0.00   0.00
  21   1     0.01  -0.01  -0.01    -0.08   0.04   0.05     0.00  -0.00  -0.00
  22   1     0.01  -0.00  -0.00    -0.09   0.03   0.03     0.00  -0.00  -0.00
  23   1     0.01   0.00  -0.01    -0.10  -0.02   0.09     0.00  -0.00  -0.00
  24   1     0.01   0.01  -0.01    -0.05  -0.04   0.04     0.00  -0.00  -0.00
  25   1    -0.00   0.00   0.00     0.00  -0.02   0.00     0.00  -0.00  -0.00
  26   1    -0.00   0.00   0.00     0.02  -0.02  -0.01     0.00  -0.01  -0.01
  27   1     0.00   0.00   0.00    -0.00  -0.01  -0.02    -0.00  -0.00  -0.00
  28   1    -0.00   0.00   0.00     0.02  -0.02  -0.03     0.00  -0.00  -0.01
  29   1     0.01  -0.01  -0.00    -0.09   0.09   0.03    -0.01   0.02   0.00
  30   1    -0.01   0.01  -0.02    -0.00  -0.00  -0.00    -0.01   0.00  -0.00
  31   1    -0.00   0.01   0.02     0.01   0.00  -0.00     0.00   0.00   0.00
  32   1     0.01   0.02  -0.01     0.00   0.00  -0.00     0.12   0.02  -0.18
  33   1    -0.04   0.00   0.07    -0.01   0.00   0.02     0.09   0.02  -0.19
  34   1     0.02  -0.02   0.02     0.00  -0.00   0.01    -0.00   0.06  -0.12
  35   1    -0.02   0.00   0.05    -0.01  -0.00   0.01     0.05   0.09  -0.10
  36   1     0.09  -0.05  -0.06     0.02  -0.02  -0.02    -0.32   0.25   0.29
  37   1    -0.05   0.00   0.04    -0.01   0.00   0.00    -0.04   0.01  -0.00
  38   1    -0.11   0.02   0.02    -0.01   0.00   0.00    -0.05   0.00  -0.00
  39   1    -0.12   0.02  -0.02    -0.01   0.00  -0.00    -0.02   0.00  -0.02
  40   1     0.29  -0.10  -0.21     0.03  -0.01  -0.02     0.08  -0.02  -0.06
  41   1    -0.08  -0.02  -0.04    -0.01  -0.00  -0.00    -0.02  -0.01  -0.02
                     58                     59                     60
                        a                      a                      a 
 Frequencies --  1034.3432              1044.7156              1047.0203
 Red. masses --     8.0154                 9.3570                 9.5925
 Frc consts  --     0.0000                 0.0000                 0.0000
 IR Inten    --    85.9837               121.7471               145.4249
 Raman Activ --     0.0000                 0.0000                 0.0000
 Depolar     --     0.0000                 0.0000                 0.0000
 Atom AN      X      Y      Z        X      Y      Z        X      Y      Z
   1   6    -0.06   0.00   0.04     0.01  -0.00  -0.01    -0.33   0.00   0.25
   2   6     0.08  -0.03  -0.05    -0.02   0.01   0.01     0.49  -0.18  -0.32
   3   8    -0.04   0.04   0.01     0.01  -0.01  -0.00    -0.27   0.27   0.06
   4  15    -0.00   0.02   0.02     0.00  -0.00  -0.00     0.01   0.02   0.01
   5  16     0.00  -0.00  -0.01    -0.00   0.00  -0.00    -0.00   0.00   0.01
   6   8     0.06  -0.08   0.21    -0.00   0.00  -0.00     0.04  -0.03  -0.09
   7   6     0.18  -0.20  -0.49    -0.01   0.01   0.01    -0.02   0.02   0.10
   8   6    -0.20   0.23   0.37     0.01  -0.01  -0.01     0.02  -0.03  -0.05
   9  16     0.00  -0.00  -0.00     0.00  -0.00  -0.00     0.00   0.00   0.00
  10   6     0.00  -0.00   0.00     0.00   0.01  -0.00    -0.00   0.00  -0.01
  11  16     0.00   0.00  -0.00    -0.00  -0.00   0.00     0.00  -0.00   0.00
  12  15     0.00   0.00  -0.00     0.01   0.01   0.01    -0.00   0.00   0.00
  13  16    -0.00  -0.00   0.00    -0.00  -0.01   0.01     0.00   0.00  -0.00
  14   8     0.00   0.01  -0.01    -0.03   0.04  -0.07    -0.00   0.00  -0.00
  15   6    -0.01  -0.00   0.03    -0.06  -0.04   0.11    -0.00  -0.00   0.00
  16   6     0.01  -0.01  -0.02     0.05   0.01  -0.07     0.00   0.00  -0.00
  17   8     0.00   0.00   0.01     0.21   0.03   0.25     0.01   0.00   0.01
  18   6    -0.01   0.00  -0.00    -0.59   0.06  -0.14    -0.02   0.00  -0.00
  19   6     0.01  -0.00   0.00     0.44  -0.07  -0.02     0.01  -0.00  -0.00
  20   1    -0.04  -0.04   0.05     0.01   0.01  -0.01    -0.20  -0.21   0.27
  21   1     0.01  -0.01  -0.01    -0.00   0.00   0.00     0.05  -0.08  -0.04
  22   1     0.01  -0.01   0.00    -0.00   0.00   0.00     0.08  -0.06   0.00
  23   1     0.03  -0.00  -0.02    -0.01   0.00   0.00     0.16  -0.01  -0.11
  24   1     0.02  -0.00  -0.02    -0.01   0.00   0.01     0.16  -0.02  -0.15
  25   1     0.10  -0.10  -0.18    -0.00   0.00   0.00    -0.01   0.01   0.03
  26   1     0.08  -0.13  -0.18    -0.00   0.01   0.00    -0.01   0.02   0.04
  27   1    -0.02  -0.02  -0.12     0.00  -0.00   0.00     0.00   0.00   0.02
  28   1     0.02   0.02  -0.12    -0.00  -0.00   0.00    -0.01  -0.00   0.02
  29   1    -0.31   0.36   0.10     0.01  -0.01  -0.00     0.05  -0.05  -0.01
[...]
  33   1    -0.01   0.02   0.00    -0.00  -0.00  -0.00    -0.05   0.01  -0.02
  34   1     0.01   0.02   0.01    -0.00  -0.00  -0.00    -0.00  -0.00  -0.00
  35   1     0.01  -0.00   0.00    -0.00   0.00  -0.00     0.00  -0.00   0.00
  36   1    -0.00   0.00  -0.00     0.00   0.00   0.00    -0.00  -0.00   0.00
  37   1     0.00   0.00  -0.00     0.04   0.17  -0.14     0.00  -0.00   0.00
  38   1    -0.00  -0.03  -0.01    -0.00  -0.88  -0.34     0.00   0.00   0.00
  39   1    -0.00  -0.00  -0.00     0.00   0.05   0.02     0.00  -0.00  -0.00
  40   1    -0.00   0.00   0.00     0.01  -0.00   0.01    -0.00   0.00  -0.00
  41   1     0.00   0.00  -0.00    -0.00  -0.00  -0.00     0.00   0.00   0.00
                    103                    104                    105
                        a                      a                      a 
 Frequencies --  2965.0404              2965.0638              3017.8932
 Red. masses --     1.7041                 1.7101                 1.7870
 Frc consts  --     0.0000                 0.0000                 0.0000
 IR Inten    --     2.5143                20.4610                 6.4554
 Raman Activ --     0.0000                 0.0000                 0.0000
 Depolar     --     0.0000                 0.0000                 0.0000
 Atom AN      X      Y      Z        X      Y      Z        X      Y      Z
   1   6     0.01  -0.00   0.01     0.01  -0.00   0.01    -0.00   0.00   0.00
   2   6    -0.11   0.06  -0.19    -0.05   0.03  -0.09     0.00  -0.00   0.00
   3   8    -0.01   0.01   0.00    -0.00   0.00   0.00    -0.00   0.00  -0.00
   4  15     0.00   0.00   0.00     0.00  -0.00   0.00     0.00   0.00   0.00
   5  16    -0.00  -0.00  -0.00    -0.00  -0.00  -0.00    -0.00  -0.00   0.00
   6   8    -0.00  -0.00  -0.00     0.00   0.00   0.00     0.00   0.00   0.00
   7   6    -0.00   0.00  -0.00     0.01  -0.00   0.00     0.00  -0.00  -0.00
   8   6     0.00   0.00  -0.00    -0.00  -0.00  -0.00     0.00   0.00   0.00
   9  16    -0.00  -0.00  -0.00     0.00   0.00  -0.00     0.00   0.00   0.00
  10   6    -0.00   0.00   0.00    -0.00   0.00   0.00    -0.08   0.21   0.14
  11  16     0.00  -0.00  -0.00    -0.00   0.00   0.00    -0.00   0.00   0.00
  12  15     0.00  -0.00  -0.00    -0.00   0.00   0.00    -0.00   0.00   0.00
  13  16    -0.00   0.00   0.00     0.00   0.00  -0.00     0.00  -0.00   0.00
  14   8     0.00  -0.00   0.00    -0.00   0.00  -0.01    -0.00  -0.00  -0.00
  15   6     0.10  -0.02   0.04    -0.21   0.04  -0.08     0.00  -0.00  -0.00
  16   6    -0.01   0.00  -0.00     0.01  -0.00   0.01     0.00   0.00   0.00
  17   8    -0.00   0.00   0.00     0.00  -0.00  -0.00     0.00   0.00   0.00
  18   6     0.00  -0.00  -0.00    -0.00  -0.00   0.00     0.00   0.00  -0.00
  19   6     0.00  -0.00   0.00    -0.00   0.00  -0.00     0.00   0.00   0.00
  20   1    -0.01   0.01   0.01    -0.00   0.00   0.00     0.00  -0.00  -0.00
  21   1    -0.04   0.02  -0.06    -0.02   0.01  -0.03     0.00  -0.00   0.00
  22   1    -0.00  -0.01  -0.00    -0.00  -0.00  -0.00    -0.00  -0.00  -0.00
  23   1     0.44  -0.20   0.71     0.22  -0.10   0.36    -0.00   0.00  -0.00
  24   1    -0.04  -0.04  -0.05    -0.02  -0.02  -0.03     0.00   0.00   0.00
  25   1    -0.00  -0.00   0.00     0.01   0.01  -0.00     0.00   0.00  -0.00
  26   1     0.01   0.00   0.00    -0.05  -0.01  -0.02    -0.00  -0.00  -0.00
  27   1    -0.00  -0.00   0.00    -0.00   0.00  -0.00     0.00   0.00   0.00
  28   1    -0.00  -0.00  -0.00     0.01   0.00   0.00    -0.00  -0.00  -0.00
  29   1     0.00  -0.00   0.00    -0.00  -0.00  -0.00     0.00   0.00  -0.00
  30   1     0.00  -0.00  -0.00     0.00  -0.00  -0.00     0.28  -0.74  -0.55
  31   1     0.00   0.00  -0.00    -0.00   0.00  -0.00    -0.01  -0.01   0.04
  32   1     0.02   0.01   0.01    -0.04  -0.03  -0.03     0.00   0.00   0.00
  33   1    -0.39   0.06  -0.17     0.78  -0.12   0.34    -0.00   0.00  -0.00
  34   1     0.00   0.00   0.00    -0.00  -0.01  -0.00    -0.00  -0.00  -0.00
  35   1     0.03  -0.00   0.01    -0.05   0.01  -0.02    -0.00   0.00  -0.00
  36   1    -0.00  -0.00   0.00     0.00   0.01  -0.01     0.00   0.00  -0.00
  37   1    -0.00  -0.00   0.00     0.00   0.00  -0.00    -0.00  -0.00   0.00
  38   1     0.00   0.00   0.00    -0.00  -0.00  -0.00    -0.00   0.00   0.00
  39   1    -0.00  -0.00  -0.00     0.00   0.00   0.00    -0.00  -0.00  -0.00
  40   1    -0.00  -0.00  -0.00     0.00   0.00   0.00    -0.00   0.00  -0.00
  41   1     0.00   0.00  -0.00    -0.00  -0.00   0.00    -0.00  -0.00   0.00
                    106                    107                    108
                        a                      a                      a 
 Frequencies --  3040.0355              3043.6626              3049.6809
 Red. masses --     1.8194                 1.7873                 1.6205
 Frc consts  --     0.0000                 0.0000                 0.0000
 IR Inten    --    30.9417                27.2271                 9.8873
 Raman Activ --     0.0000                 0.0000                 0.0000
 Depolar     --     0.0000                 0.0000                 0.0000
 Atom AN      X      Y      Z        X      Y      Z        X      Y      Z
   1   6     0.15  -0.00   0.23     0.00  -0.00   0.00    -0.08  -0.18  -0.04
   2   6     0.02  -0.00   0.03     0.00   0.00   0.00    -0.01  -0.01  -0.00
   3   8     0.00  -0.00  -0.00     0.00  -0.00  -0.00    -0.00   0.00  -0.00
   4  15    -0.00   0.00   0.00     0.00   0.00   0.00    -0.00  -0.00   0.00
   5  16     0.00  -0.00   0.00     0.00   0.00  -0.00     0.00  -0.00  -0.00
   6   8    -0.00  -0.00   0.00    -0.00  -0.00   0.00     0.00  -0.00   0.00
   7   6    -0.00  -0.00  -0.00     0.02   0.01   0.00    -0.00   0.00  -0.00
   8   6    -0.00  -0.00   0.00     0.25   0.09   0.04     0.00   0.00  -0.00
   9  16    -0.00  -0.00   0.00    -0.00  -0.00   0.00    -0.00  -0.00   0.00
  10   6     0.00   0.00  -0.00     0.00  -0.00  -0.00    -0.00   0.00   0.00
  11  16    -0.00   0.00   0.00     0.00  -0.00  -0.00    -0.00   0.00   0.00
  12  15     0.00  -0.00  -0.00    -0.00   0.00   0.00    -0.00   0.00   0.00
  13  16     0.00  -0.00   0.00     0.00   0.00   0.00    -0.00  -0.00   0.00
  14   8     0.00  -0.00   0.00     0.00   0.00  -0.00     0.00   0.00  -0.00
  15   6    -0.00   0.00  -0.00    -0.00  -0.00  -0.00    -0.01  -0.00  -0.00
  16   6    -0.00   0.00  -0.00     0.01  -0.01   0.00    -0.05  -0.01  -0.02
  17   8    -0.00   0.00   0.00    -0.00  -0.00  -0.00    -0.00  -0.00  -0.00
  18   6     0.00   0.00  -0.00     0.00   0.00   0.00     0.00   0.01   0.00
  19   6    -0.00   0.00  -0.00     0.00   0.01   0.00     0.01   0.10   0.03
  20   1     0.04  -0.02   0.02    -0.01   0.01   0.00     0.04  -0.07  -0.02
  21   1    -0.48   0.22  -0.77    -0.00   0.00  -0.00    -0.11   0.02  -0.17
  22   1    -0.07  -0.19  -0.06    -0.00  -0.00  -0.00     0.35   0.70   0.32
  23   1    -0.04   0.02  -0.06     0.00  -0.00   0.00    -0.00  -0.00  -0.00
  24   1    -0.01  -0.02  -0.01    -0.00  -0.00  -0.00     0.02   0.03   0.02
  25   1     0.00   0.00   0.00    -0.00  -0.02   0.01    -0.00  -0.00   0.00
  26   1     0.00   0.00   0.00    -0.06  -0.01  -0.02     0.00  -0.00   0.00
  27   1     0.00   0.00  -0.00    -0.04  -0.19   0.08    -0.00  -0.00   0.00
  28   1     0.00   0.00   0.00    -0.86  -0.14  -0.31    -0.00  -0.00  -0.00
  29   1    -0.00   0.00  -0.01     0.03   0.01   0.11     0.00  -0.00   0.00
  30   1     0.00  -0.00  -0.00    -0.00   0.00   0.00     0.00  -0.00  -0.00
  31   1     0.00  -0.00   0.00     0.00   0.00  -0.00    -0.00  -0.00   0.00
  32   1     0.00   0.00   0.00     0.00   0.00   0.00     0.00   0.01   0.00
  33   1     0.00  -0.00   0.00     0.00  -0.00   0.00     0.01  -0.00   0.01
  34   1    -0.00  -0.00  -0.00     0.01   0.02   0.01     0.01   0.05   0.02
  35   1     0.00  -0.00   0.00    -0.05   0.01  -0.02     0.17  -0.03   0.08
  36   1    -0.00  -0.00   0.00     0.00  -0.00   0.00    -0.00   0.01  -0.02
  37   1     0.00   0.00  -0.00     0.00  -0.00   0.00    -0.00  -0.00   0.00
  38   1     0.00  -0.00  -0.00    -0.00  -0.00  -0.00    -0.00  -0.02  -0.01
  39   1     0.00   0.00   0.00    -0.00  -0.01  -0.01    -0.01  -0.34  -0.15
  40   1     0.00   0.00   0.00    -0.00   0.00  -0.00     0.01   0.01   0.01
  41   1    -0.00  -0.00   0.00    -0.00  -0.00   0.01    -0.01  -0.03   0.05
                    109                    110                    111
                        a                      a                      a 
 Frequencies --  3049.7395              3050.4098              3052.0900
 Red. masses --     1.8219                 1.8751                 1.4386
 Frc consts  --     0.0000                 0.0000                 0.0000
 IR Inten    --    14.8413                46.4859                22.1695
 Raman Activ --     0.0000                 0.0000                 0.0000
 Depolar     --     0.0000                 0.0000                 0.0000
 Atom AN      X      Y      Z        X      Y      Z        X      Y      Z
   1   6     0.03   0.08   0.02     0.02   0.04   0.01    -0.00   0.00   0.00
   2   6     0.00   0.01   0.00     0.00   0.00   0.00    -0.00  -0.00  -0.00
   3   8     0.00  -0.00   0.00     0.00  -0.00   0.00    -0.00   0.00  -0.00
   4  15     0.00   0.00  -0.00    -0.00  -0.00  -0.00     0.00  -0.00  -0.00
   5  16    -0.00   0.00   0.00    -0.00   0.00   0.00    -0.00  -0.00   0.00
   6   8    -0.00  -0.00  -0.00     0.00   0.00   0.00    -0.00   0.00   0.00
   7   6     0.00  -0.00   0.00    -0.00   0.00  -0.00     0.00   0.01  -0.00
   8   6     0.00  -0.00   0.00    -0.01   0.01   0.00     0.03   0.15  -0.01
   9  16    -0.00   0.00  -0.00     0.00   0.00  -0.00     0.00   0.00  -0.00
  10   6     0.00  -0.00  -0.00     0.00  -0.00  -0.00    -0.00   0.00  -0.00
  11  16    -0.00   0.00   0.00     0.00   0.00  -0.00    -0.00   0.00   0.00
  12  15    -0.00   0.00   0.00     0.00   0.00  -0.00    -0.00   0.00  -0.00
  13  16    -0.00  -0.00   0.00     0.00   0.00  -0.00    -0.00  -0.00  -0.00
  14   8     0.00   0.00  -0.00    -0.00  -0.00   0.00     0.00   0.00  -0.00
  15   6    -0.02  -0.01  -0.01     0.01   0.01   0.01    -0.00   0.01   0.00
  16   6    -0.19  -0.07  -0.09     0.14   0.08   0.07    -0.04   0.10   0.04
  17   8    -0.00  -0.00  -0.00     0.00  -0.00   0.00     0.00  -0.00  -0.00
  18   6    -0.00   0.01   0.00     0.00   0.02   0.00    -0.00  -0.00   0.00
  19   6     0.00   0.12   0.04     0.02   0.21   0.04    -0.01  -0.03   0.01
  20   1    -0.02   0.03   0.01    -0.02   0.02   0.01     0.00  -0.00  -0.00
  21   1     0.05  -0.01   0.08     0.03  -0.00   0.04     0.00  -0.00   0.00
  22   1    -0.15  -0.30  -0.14    -0.08  -0.16  -0.08    -0.00  -0.01  -0.00
  23   1     0.00   0.00   0.00     0.00   0.00   0.00     0.00   0.00  -0.00
  24   1    -0.01  -0.01  -0.01    -0.00  -0.01  -0.00     0.00   0.00   0.00
  25   1     0.00   0.00  -0.00    -0.00  -0.00   0.00    -0.01  -0.02   0.01
  26   1    -0.00  -0.00  -0.00     0.00   0.00   0.00    -0.00   0.00  -0.00
  27   1     0.01   0.02  -0.01    -0.01  -0.03   0.01    -0.21  -0.59   0.21
  28   1    -0.03  -0.00  -0.01     0.04   0.01   0.01     0.10   0.03   0.03
  29   1     0.00  -0.00   0.01    -0.00   0.00  -0.03     0.00   0.03  -0.22
  30   1    -0.00   0.00   0.00    -0.00   0.00   0.00     0.00  -0.00  -0.00
  31   1     0.00   0.00  -0.00    -0.00   0.00  -0.00     0.00  -0.00   0.00
  32   1     0.01   0.02   0.01    -0.01  -0.02  -0.01    -0.01  -0.02  -0.01
  33   1     0.04  -0.01   0.02    -0.03   0.00  -0.01     0.01  -0.00   0.01
  34   1     0.11   0.32   0.11    -0.12  -0.32  -0.12    -0.20  -0.46  -0.18
  35   1     0.59  -0.11   0.27    -0.38   0.07  -0.17     0.32  -0.04   0.15
  36   1    -0.02   0.04  -0.07     0.01  -0.02   0.05     0.01   0.13  -0.13
  37   1    -0.00  -0.00   0.00    -0.00  -0.01   0.01     0.00   0.00  -0.00
  38   1    -0.00  -0.02  -0.01    -0.00  -0.04  -0.01    -0.00   0.00   0.00
  39   1    -0.02  -0.42  -0.19    -0.03  -0.65  -0.30     0.00   0.06   0.03
  40   1     0.01   0.02   0.01     0.00   0.03   0.00     0.00  -0.00   0.01
  41   1    -0.01  -0.02   0.04    -0.04  -0.12   0.16     0.02   0.06  -0.07
                    112                    113                    114
                        a                      a                      a 
 Frequencies --  3052.7493              3055.0746              3057.6471
 Red. masses --     1.4123                 1.5582                 1.8805
 Frc consts  --     0.0000                 0.0000                 0.0000
 IR Inten    --     4.5252                13.7448                13.1897
 Raman Activ --     0.0000                 0.0000                 0.0000
 Depolar     --     0.0000                 0.0000                 0.0000
 Atom AN      X      Y      Z        X      Y      Z        X      Y      Z
   1   6    -0.00  -0.00  -0.00     0.00  -0.01  -0.00     0.01  -0.01  -0.00
   2   6    -0.00  -0.00  -0.00    -0.00  -0.00  -0.00     0.00  -0.00   0.00
   3   8    -0.00  -0.00  -0.00    -0.00   0.00   0.00     0.00   0.00   0.00
   4  15     0.00  -0.00  -0.00    -0.00  -0.00   0.00    -0.00   0.00  -0.00
   5  16     0.00   0.00   0.00     0.00   0.00  -0.00     0.00  -0.00  -0.00
   6   8    -0.00   0.00  -0.00     0.00  -0.00  -0.00     0.00  -0.00   0.00
   7   6     0.00   0.01  -0.00     0.00  -0.00  -0.00    -0.00   0.00  -0.00
   8   6     0.01   0.14  -0.01     0.00  -0.00  -0.00    -0.00   0.01  -0.06
   9  16    -0.00   0.00  -0.00    -0.00   0.00  -0.00    -0.00   0.00  -0.00
  10   6    -0.00   0.00   0.00    -0.00  -0.00   0.00    -0.00   0.00   0.00
  11  16     0.00   0.00  -0.00     0.00   0.00  -0.00     0.00  -0.00  -0.00
  12  15     0.00  -0.00  -0.00    -0.00   0.00  -0.00     0.00   0.00   0.00
  13  16     0.00   0.00  -0.00     0.00  -0.00  -0.00    -0.00  -0.00  -0.00
  14   8    -0.00  -0.00   0.00     0.00   0.00  -0.00     0.00  -0.00  -0.00
  15   6     0.00  -0.01  -0.00    -0.00   0.00  -0.00    -0.00   0.01  -0.01
  16   6     0.02  -0.11  -0.06    -0.03   0.02  -0.01    -0.01   0.20  -0.19
  17   8     0.00   0.00   0.00     0.00   0.00  -0.00    -0.00  -0.00  -0.00
  18   6     0.00   0.00  -0.00     0.01   0.01  -0.01    -0.00  -0.00   0.00
  19   6     0.01   0.03  -0.02     0.06   0.11  -0.18    -0.01  -0.01   0.01
  20   1     0.00  -0.00  -0.00    -0.02   0.02   0.01    -0.05   0.04   0.02
  21   1    -0.00   0.00  -0.00     0.00  -0.00   0.00     0.00  -0.00  -0.00
  22   1     0.00   0.01   0.00     0.00   0.00   0.00     0.00  -0.00  -0.00
  23   1    -0.00   0.00  -0.00     0.00  -0.00   0.00    -0.00   0.00  -0.00
  24   1     0.00   0.00   0.00     0.00   0.00   0.00     0.00   0.00   0.00
  25   1    -0.01  -0.02   0.01     0.00   0.00  -0.00    -0.00  -0.00   0.00
  26   1    -0.00   0.00  -0.00    -0.00  -0.00  -0.00     0.00   0.00   0.00
  27   1    -0.19  -0.55   0.20     0.01   0.02  -0.01    -0.02  -0.04   0.01
  28   1     0.16   0.04   0.05    -0.01  -0.00  -0.00     0.02   0.01  -0.00
  29   1    -0.00   0.03  -0.21     0.00  -0.00   0.01     0.00  -0.01   0.21
  30   1     0.00  -0.00  -0.00     0.00  -0.00  -0.00     0.00  -0.00  -0.00
  31   1     0.00   0.00  -0.00    -0.00   0.00  -0.00    -0.00  -0.00   0.00
  32   1     0.01   0.02   0.01    -0.00  -0.00  -0.00    -0.01  -0.01  -0.01
  33   1    -0.01   0.00  -0.00     0.01  -0.00   0.00     0.02  -0.00   0.01
  34   1     0.22   0.52   0.20    -0.03  -0.06  -0.03    -0.07  -0.13  -0.08
  35   1    -0.27   0.03  -0.13     0.13  -0.02   0.06     0.18  -0.00   0.06
  36   1    -0.02  -0.15   0.15    -0.00  -0.00   0.01    -0.07  -0.58   0.68
  37   1    -0.00  -0.00   0.00    -0.01  -0.03   0.03     0.00   0.00  -0.00
  38   1     0.00  -0.00  -0.00     0.00   0.00  -0.00    -0.00  -0.00  -0.00
  39   1    -0.00  -0.03  -0.02     0.01   0.23   0.07    -0.00   0.00   0.00
  40   1    -0.01   0.00  -0.01    -0.06   0.01  -0.08     0.02  -0.00   0.02
  41   1    -0.02  -0.08   0.08    -0.19  -0.63   0.65     0.01   0.04  -0.04
                    115                    116                    117
                        a                      a                      a 
 Frequencies --  3058.2730              3058.8097              3060.8144
 Red. masses --     1.7723                 1.9033                 1.7746
 Frc consts  --     0.0000                 0.0000                 0.0000
 IR Inten    --    12.3343                 8.6327                 9.5713
 Raman Activ --     0.0000                 0.0000                 0.0000
 Depolar     --     0.0000                 0.0000                 0.0000
 Atom AN      X      Y      Z        X      Y      Z        X      Y      Z
   1   6     0.18  -0.18  -0.06     0.01  -0.01  -0.01     0.00  -0.00  -0.00
   2   6     0.01  -0.01   0.00     0.00  -0.00  -0.00     0.00  -0.00  -0.00
   3   8     0.00   0.00  -0.00    -0.00   0.00  -0.00    -0.00   0.00   0.00
   4  15    -0.00  -0.00  -0.00     0.00  -0.00   0.00    -0.00   0.00   0.00
   5  16     0.00   0.00  -0.00    -0.00   0.00  -0.00    -0.00   0.00  -0.00
   6   8     0.00  -0.00  -0.00    -0.00   0.00  -0.00    -0.00   0.00  -0.00
   7   6    -0.00   0.00  -0.00     0.00  -0.01   0.01     0.00  -0.00   0.00
   8   6    -0.00   0.00  -0.01     0.02  -0.06   0.27     0.00  -0.00   0.01
   9  16     0.00  -0.00   0.00     0.00   0.00   0.00    -0.00   0.00   0.00
  10   6    -0.00   0.00   0.00     0.00  -0.00  -0.00    -0.00   0.00   0.00
  11  16     0.00  -0.00   0.00    -0.00  -0.00  -0.00    -0.00  -0.00   0.00
  12  15    -0.00  -0.00   0.00     0.00   0.00   0.00     0.00   0.00  -0.00
  13  16     0.00  -0.00  -0.00     0.00  -0.00   0.00    -0.00  -0.00   0.00
  14   8    -0.00   0.00  -0.00     0.00  -0.00   0.00    -0.00   0.00   0.00
  15   6     0.00  -0.00   0.00    -0.00   0.00  -0.00     0.00   0.00   0.00
  16   6     0.00  -0.02   0.02    -0.00   0.04  -0.04     0.00  -0.00   0.00
  17   8     0.00   0.00  -0.00    -0.00  -0.00  -0.00    -0.00   0.00   0.00
  18   6    -0.00  -0.00   0.00     0.00  -0.00   0.00    -0.00  -0.00  -0.01
  19   6     0.00  -0.00   0.01     0.00  -0.00   0.00    -0.18   0.00  -0.20
  20   1    -0.68   0.63   0.22    -0.05   0.04   0.01    -0.01   0.01   0.00
  21   1    -0.00  -0.02  -0.04     0.00  -0.00   0.00     0.00  -0.00   0.00
  22   1     0.05   0.03   0.02     0.01   0.01   0.00     0.00   0.00   0.00
  23   1    -0.01   0.00  -0.01    -0.00  -0.00  -0.00    -0.00  -0.00   0.00
  24   1     0.01   0.01   0.01     0.00   0.00   0.00     0.00   0.00   0.00
  25   1    -0.00  -0.00   0.00     0.01   0.02  -0.00     0.00   0.00  -0.00
  26   1     0.00   0.00   0.00    -0.02  -0.00  -0.00    -0.00  -0.00  -0.00
  27   1    -0.01  -0.01   0.00     0.09   0.24  -0.05     0.00   0.00  -0.00
  28   1     0.02   0.00   0.00    -0.15  -0.04  -0.02    -0.01  -0.00  -0.00
  29   1     0.00  -0.00   0.04    -0.02   0.03  -0.88    -0.00   0.00  -0.02
  30   1     0.00  -0.00  -0.00    -0.00   0.00   0.00     0.00  -0.00  -0.00
  31   1    -0.00  -0.00   0.00    -0.00   0.00  -0.00    -0.00   0.00  -0.00
  32   1     0.00   0.00   0.00    -0.00  -0.00  -0.00    -0.00  -0.00  -0.00
  33   1    -0.00   0.00  -0.00     0.00  -0.00   0.00    -0.00   0.00  -0.00
  34   1     0.01   0.01   0.01    -0.01  -0.02  -0.02     0.00   0.00   0.00
  35   1    -0.01  -0.00  -0.00     0.04  -0.00   0.02    -0.01   0.00  -0.00
  36   1     0.01   0.05  -0.06    -0.02  -0.13   0.15     0.00   0.01  -0.01
  37   1     0.00   0.00  -0.00     0.00   0.00  -0.00    -0.00  -0.01   0.01
  38   1     0.00   0.00   0.00    -0.00   0.00   0.00    -0.00   0.01   0.00
  39   1     0.00  -0.00   0.00     0.00   0.01   0.00    -0.02   0.02  -0.02
  40   1    -0.01  -0.00  -0.01    -0.01  -0.00  -0.01     0.68   0.03   0.67
  41   1     0.01   0.02  -0.02     0.00   0.01  -0.01    -0.04  -0.06   0.03
