
                                 *****************
                                 * O   R   C   A *
                                 *****************

                                            #,                                       
                                            ###                                      
                                            ####                                     
                                            #####                                    
                                            ######                                   
                                           ########,                                 
                                     ,,################,,,,,                         
                               ,,#################################,,                 
                          ,,##########################################,,             
                       ,#########################################, ''#####,          
                    ,#############################################,,   '####,        
                  ,##################################################,,,,####,       
                ,###########''''           ''''###############################       
              ,#####''   ,,,,##########,,,,          '''####'''          '####       
            ,##' ,,,,###########################,,,                        '##       
           ' ,,###''''                  '''############,,,                           
         ,,##''                                '''############,,,,        ,,,,,,###''
      ,#''                                            '''#######################'''  
     '                                                          ''''####''''         
             ,#######,   #######,   ,#######,      ##                                
            ,#'     '#,  ##    ##  ,#'     '#,    #''#        ,####,   ,####,        
            ##       ##  ##   ,#'  ##            #'  '#       #'       #'  '#        
            ##       ##  #######   ##           ,######,      #####,   #    #        
            '#,     ,#'  ##    ##  '#,     ,#' ,#      #,     #,   #   #,  ,#        
             '#######'   ##     ##  '#######'  #'      '#     '####' # '####'        



                #########################################################
                #                        -***-                          #
                #          Department of theory and spectroscopy        #
                #                                                       #
                #                      Frank Neese                      #
                #                                                       #
                #     Directorship, Architecture, Infrastructure        #
                #                    SHARK, DRIVERS                     #
                #        Core code/Algorithms in most modules           #
                #                                                       #
                #        Max Planck Institute fuer Kohlenforschung      #
                #                Kaiser Wilhelm Platz 1                 #
                #                 D-45470 Muelheim/Ruhr                 #
                #                      Germany                          #
                #                                                       #
                #                  All rights reserved                  #
                #                        -***-                          #
                #########################################################


                         Program Version 6.0.0  -   RELEASE  -


 With contributions from (in alphabetic order):
   Daniel Aravena         : Magnetic Suceptibility
   Michael Atanasov       : Ab Initio Ligand Field Theory (pilot matlab implementation)
   Alexander A. Auer      : GIAO ZORA, VPT2 properties, NMR spectrum
   Ute Becker             : All parallelization in ORCA, NUMFREQ, NUMCALC
   Giovanni Bistoni       : ED, misc. LED, open-shell LED, HFLD
   Martin Brehm           : Molecular dynamics
   Dmytro Bykov           : pre 5.0 version of the SCF Hessian
   Marcos Casanova-Páez   : Triplet and SCS-CIS(D). UHF-(DLPNO)-IP/EA/STEOM-CCSD. UHF-CVS-IP/STEOM-CCSD
   Vijay G. Chilkuri      : MRCI spin determinant printing, contributions to CSF-ICE
   Pauline Colinet        : FMM embedding
   Dipayan Datta          : RHF DLPNO-CCSD density
   Achintya Kumar Dutta   : EOM-CC, STEOM-CC
   Nicolas Foglia         : Exact transition moments, OPA infrastructure, MCD improvements
   Dmitry Ganyushin       : Spin-Orbit,Spin-Spin,Magnetic field MRCI
   Miquel Garcia          : C-PCM and meta-GGA Hessian, CCSD/C-PCM, Gaussian charge scheme
   Tiago L. C. Gouveia    : GS-ROHF, GS-ROCIS
   Yang Guo               : DLPNO-NEVPT2, F12-NEVPT2, CIM, IAO-localization
   Andreas Hansen         : Spin unrestricted coupled pair/coupled cluster methods
   Ingolf Harden          : AUTO-CI MPn and infrastructure 
   Benjamin Helmich-Paris : MC-RPA, TRAH-(SCF,CASSCF), AVAS, COSX integrals, SCF dyn. polar.
   Lee Huntington         : MR-EOM, pCC
   Robert Izsak           : Overlap fitted RIJCOSX, COSX-SCS-MP3, EOM
   Riya Kayal             : Wick's Theorem for AUTO-CI, AUTO-CI UHF-CCSDT
   Emily Kempfer          : AUTO-CI, RHF CISDT and CCSDT
   Christian Kollmar      : KDIIS, OOCD, Brueckner-CCSD(T), CCSD density, CASPT2, CASPT2-K, improved NEVPT2
   Axel Koslowski         : Symmetry handling
   Simone Kossmann        : Meta GGA functionals, TD-DFT gradient, OOMP2, (MP2 Hessian; deprecated post 5.0)
   Lucas Lang             : DCDCAS
   Marvin Lechner         : AUTO-CI (C++ implementation), FIC-MRCC
   Spencer Leger          : CASSCF response
   Dagmar Lenk            : GEPOL surface, SMD, ORCA-2-JSON
   Dimitrios Liakos       : Extrapolation schemes; Compound Job, initial MDCI parallelization
   Dimitrios Manganas     : Further ROCIS development; embedding schemes. LFT, Crystal Embedding
   Dimitrios Pantazis     : SARC Basis sets
   Anastasios Papadopoulos: AUTO-CI, single reference methods and gradients
   Taras Petrenko         : pre 6.0 DFT Hessian and TD-DFT gradient, (ASA, deprecated), ECA, 1-Electron XAS/XES, NRVS
   Peter Pinski           : DLPNO-MP2, DLPNO-MP2 Gradient
   Christoph Reimann      : Effective Core Potentials
   Marius Retegan         : Local ZFS, SOC
   Christoph Riplinger    : Optimizer, TS searches, QM/MM, DLPNO-CCSD(T), (RO)-DLPNO pert. Triples
   Michael Roemelt        : Original ROCIS implementation
   Masaaki Saitow         : Open-shell DLPNO-CCSD energy and density
   Barbara Sandhoefer     : DKH picture change effects
   Kantharuban Sivalingam : CASSCF convergence/infrastructure, NEVPT2 and variants, FIC-MRCI
   Bernardo de Souza      : ESD, SOC TD-DFT
   Georgi Stoychev        : AutoAux, RI-MP2 NMR, DLPNO-MP2 response, X2C
   Van Anh Tran           : RI-MP2 g-tensors
   Willem Van den Heuvel  : Paramagnetic NMR
   Zikuan Wang            : NOTCH, Electric field optimization 
   Frank Wennmohs         : Technical directorship and infrastructure
   Hang Xu                : AUTO-CI-Response properties 


 We gratefully acknowledge several colleagues who have allowed us to
 interface, adapt or use parts of their codes:
   Stefan Grimme, W. Hujo, H. Kruse, P. Pracht,  : VdW corrections, initial TS optimization,
                  C. Bannwarth, S. Ehlert,         DFT functionals, gCP, sTDA/sTD-DF
                  L. Wittmann, M. Mueller
   Ed Valeev, F. Pavosevic, A. Kumar             : LibInt (2-el integral package), F12 methods
   Garnet Chan, S. Sharma, J. Yang, R. Olivares  : DMRG
   Ulf Ekstrom                                   : XCFun DFT Library
   Mihaly Kallay                                 : mrcc  (arbitrary order and MRCC methods)
   Frank Weinhold                                : gennbo (NPA and NBO analysis)
   Simon Mueller                                 : openCOSMO-RS
   Christopher J. Cramer and Donald G. Truhlar   : smd solvation model
   Lars Goerigk                                  : TD-DFT with DH, B97 family of functionals
   V. Asgeirsson, H. Jonsson                     : NEB implementation
   FAccTs GmbH                                   : IRC, NEB, NEB-TS, DLPNO-Multilevel, CI-OPT
                                                   MM, QMMM, 2- and 3-layer-ONIOM, Crystal-QMMM,
                                                   LR-CPCM, SF, NACMEs, symmetry and pop. for TD-DFT,
                                                   nearIR, NL-DFT gradient (VV10), updates on ESD,
                                                   ML-optimized integration grids, MBIS, APM,
                                                   GOAT, DOCKER, SOLVATOR, interface openCOSMO-RS
   S Lehtola, MJT Oliveira, MAL Marques          : LibXC Library
   Liviu Ungur et al                             : ANISO software


 Your calculation uses the libint2 library for the computation of 2-el integrals
 For citations please refer to: http://libint.valeyev.net

 Your ORCA version has been built with support for libXC version: 6.2.2
 For citations please refer to: https://libxc.gitlab.io

 This ORCA versions uses:
   CBLAS   interface :  Fast vector & matrix operations
   LAPACKE interface :  Fast linear algebra routines
   SCALAPACK package :  Parallel linear algebra routines
   Shared memory     :  Shared parallel matrices
   BLAS/LAPACK       :  OpenBLAS 0.3.27  USE64BITINT DYNAMIC_ARCH NO_AFFINITY SkylakeX SINGLE_THREADED
        Core in use  :  SkylakeX
   Copyright (c) 2011-2014, The OpenBLAS Project


Your calculation utilizes the geometrical counterpoise correction gCP
Please cite in your paper:
H.Kruse, S. Grimme J.Chem.Phys., 136, (2012), 154101 
   

Your calculation utilizes the DFT-NL dispersion correction.
Cite in your paper:
Vydrov, O. A.; Van Voorhis, T. J. Chem. Phys. 2010, 133, 244103
Hujo, W.; Grimme, S. J. Chem. Theory Comput. 2011, 7, 3866 
   

================================================================================

----- Orbital basis set information -----
Your calculation utilizes the basis: def2-TZVP
   F. Weigend and R. Ahlrichs, Phys. Chem. Chem. Phys. 7, 3297 (2005).

----- AuxJ basis set information -----
Your calculation utilizes the auxiliary basis: def2/J
   F. Weigend, Phys. Chem. Chem. Phys. 8, 1057 (2006).

================================================================================
                                        WARNINGS
                       Please study these warnings very carefully!
================================================================================


================================================================================
                                       INPUT FILE
================================================================================
NAME = sp_gas.inp
|  1> ! wb97x-v def2-tzvp def2/J RIJCOSX DEFGRID2 scfconv7 GCP(DFT/TZ) printgap
|  2> %output
|  3>     printlevel normal
|  4> end
|  5> * xyz 0 1
|  6> C -1.4465618762938641 0.05258702673729728 -0.0028515264933665933
|  7> C 0.037935445759803996 -0.08574122369220315 -0.004932518324300435
|  8> O 0.6543130304728296 -1.1372377973460628 -0.0021885792195035707
|  9> O 0.6628922694380697 1.1165634367533 0.001112887513686931
| 10> H -1.760818090396156 0.48952042669245727 0.9507897132029922
| 11> H -1.7631194103500973 0.735732099023297 -0.7953250655457589
| 12> H -1.9136120855758791 -0.9226450590511083 -0.1308691606468659
| 13> H 1.623188579777114 0.9613279612576224 0.01414469754833609
| 14> *
| 15> 
| 16>                          ****END OF INPUT****
================================================================================

                       ****************************
                       * Single Point Calculation *
                       ****************************

---------------------------------
CARTESIAN COORDINATES (ANGSTROEM)
---------------------------------
  C     -1.446562    0.052587   -0.002852
  C      0.037935   -0.085741   -0.004933
  O      0.654313   -1.137238   -0.002189
  O      0.662892    1.116563    0.001113
  H     -1.760818    0.489520    0.950790
  H     -1.763119    0.735732   -0.795325
  H     -1.913612   -0.922645   -0.130869
  H      1.623189    0.961328    0.014145

----------------------------
CARTESIAN COORDINATES (A.U.)
----------------------------
  NO LB      ZA    FRAG     MASS         X           Y           Z
   0 C     6.0000    0    12.011   -2.733606    0.099375   -0.005389
   1 C     6.0000    0    12.011    0.071688   -0.162027   -0.009321
   2 O     8.0000    0    15.999    1.236472   -2.149068   -0.004136
   3 O     8.0000    0    15.999    1.252685    2.109999    0.002103
   4 H     1.0000    0     1.008   -3.327464    0.925060    1.796732
   5 H     1.0000    0     1.008   -3.331813    1.390332   -1.502947
   6 H     1.0000    0     1.008   -3.616203   -1.743546   -0.247307
   7 H     1.0000    0     1.008    3.067382    1.816647    0.026730

--------------------------------
INTERNAL COORDINATES (ANGSTROEM)
--------------------------------
 C      0   0   0     0.000000000000     0.00000000     0.00000000
 C      1   0   0     1.490929688006     0.00000000     0.00000000
 O      2   1   0     1.218841212195   125.70162815     0.00000000
 O      2   1   3     1.355043938373   112.14117209   180.52482136
 H      1   2   3     1.095033962098   108.90384468   112.85013727
 H      1   2   3     1.093119468427   110.20087195   230.40743959
 H      1   2   3     1.088853541022   110.11006066   352.56161844
 H      4   2   1     0.972849877718   108.28444807   179.08576667

---------------------------
INTERNAL COORDINATES (A.U.)
---------------------------
 C      0   0   0     0.000000000000     0.00000000     0.00000000
 C      1   0   0     2.817448795264     0.00000000     0.00000000
 O      2   1   0     2.303276091785   125.70162815     0.00000000
 O      2   1   3     2.560661942956   112.14117209   180.52482136
 H      1   2   3     2.069314295708   108.90384468   112.85013727
 H      1   2   3     2.065696426985   110.20087195   230.40743959
 H      1   2   3     2.057634992482   110.11006066   352.56161844
 H      4   2   1     1.838419838306   108.28444807   179.08576667

---------------------
BASIS SET INFORMATION
---------------------
There are 3 groups of distinct atoms

 Group   1 Type C   : 11s6p2d1f contracted to 5s3p2d1f pattern {62111/411/11/1}
 Group   2 Type O   : 11s6p2d1f contracted to 5s3p2d1f pattern {62111/411/11/1}
 Group   3 Type H   : 5s1p contracted to 3s1p pattern {311/1}

Atom   0C    basis set group =>   1
Atom   1C    basis set group =>   1
Atom   2O    basis set group =>   2
Atom   3O    basis set group =>   2
Atom   4H    basis set group =>   3
Atom   5H    basis set group =>   3
Atom   6H    basis set group =>   3
Atom   7H    basis set group =>   3
---------------------------------
AUXILIARY/J BASIS SET INFORMATION
---------------------------------
There are 3 groups of distinct atoms

 Group   1 Type C   : 12s5p4d2f1g contracted to 6s4p3d1f1g pattern {711111/2111/211/2/1}
 Group   2 Type O   : 12s5p4d2f1g contracted to 6s4p3d1f1g pattern {711111/2111/211/2/1}
 Group   3 Type H   : 5s2p1d contracted to 3s1p1d pattern {311/2/1}

Atom   0C    basis set group =>   1
Atom   1C    basis set group =>   1
Atom   2O    basis set group =>   2
Atom   3O    basis set group =>   2
Atom   4H    basis set group =>   3
Atom   5H    basis set group =>   3
Atom   6H    basis set group =>   3
Atom   7H    basis set group =>   3

Checking for AutoStart:
The File: sp_gas.gbw exists
Trying to determine its content:
     ... Fine, the file contains calculation information
     ... Fine, the calculation information was read
     ... Fine, the file contains a basis set
     ... Fine, the basis set was read
     ... Fine, the file contains a geometry
     ... Fine, the geometry was read
     ... Fine, the file contains a set of orbitals
     ... Fine, the orbitals can be read
     => possible old guess file was deleted
     => GBW file was renamed to GES file
     => GES file is set as startup file
     => Guess is set to MORead
     ... now leaving AutoStart

------------------------------------------------------------------------------
                             ORCA STARTUP CALCULATIONS
                           -- RI-GTO INTEGRALS CHOSEN --
------------------------------------------------------------------------------
------------------------------------------------------------------------------
                   ___                                                        
                  /   \      - P O W E R E D   B Y -                         
                 /     \                                                     
                 |  |  |   _    _      __       _____    __    __             
                 |  |  |  | |  | |    /  \     |  _  \  |  |  /  |          
                  \  \/   | |  | |   /    \    | | | |  |  | /  /          
                 / \  \   | |__| |  /  /\  \   | |_| |  |  |/  /          
                |  |  |   |  __  | /  /__\  \  |    /   |      \           
                |  |  |   | |  | | |   __   |  |    \   |  |\   \          
                \     /   | |  | | |  |  |  |  | |\  \  |  | \   \       
                 \___/    |_|  |_| |__|  |__|  |_| \__\ |__|  \__/        
                                                                              
                      - O R C A' S   B I G   F R I E N D -                    
                                      &                                       
                       - I N T E G R A L  F E E D E R -                       
                                                                              
 v1 FN, 2020, v2 2021, v3 2022-2024                                           
------------------------------------------------------------------------------


----------------------
SHARK INTEGRAL PACKAGE
----------------------

Number of atoms                             ...      8
Number of basis functions                   ...    148
Number of shells                            ...     60
Maximum angular momentum                    ...      3
Integral batch strategy                     ... SHARK/LIBINT Hybrid
RI-J (if used) integral strategy            ... SPLIT-RIJ (Revised 2003 algorithm where possible)
Printlevel                                  ...      1
Contraction scheme used                     ... SEGMENTED contraction
Prescreening option                         ... SCHWARTZ
   Thresh                                   ... 3.000e-11
   Tcut                                     ... 1.000e-12
   Tpresel                                  ... 1.000e-12 
Coulomb Range Separation                    ... NOT USED
Exchange Range Separation                   ... Long Range
   Mu parameter                             ... 3.000e-01
   Scaling (regular/separated)              ... 1.670e-01 8.330e-01
Multipole approximations                    ... NOT USED
Finite Nucleus Model                        ... NOT USED
CABS basis                                  ... NOT available
Auxiliary Coulomb fitting basis             ... AVAILABLE
   # of basis functions in Aux-J            ...    240
   # of shells in Aux-J                     ...     80
   Maximum angular momentum in Aux-J        ...      4
Auxiliary J/K fitting basis                 ... NOT available
Auxiliary Correlation fitting basis         ... NOT available
Auxiliary 'external' fitting basis          ... NOT available

Checking pre-screening integrals            ... done (  0.0 sec) Dimension = 60
Check shell pair data                       ... done (  0.0 sec)
Shell pair information
Shell pair cut-off parameter TPreSel        ...   1.0e-12
Total number of shell pairs                 ...      1830
Shell pairs after pre-screening             ...      1797
Total number of primitive shell pairs       ...      5560
Primitive shell pairs kept                  ...      4479
          la=0 lb=0:    501 shell pairs
          la=1 lb=0:    510 shell pairs
          la=1 lb=1:    136 shell pairs
          la=2 lb=0:    252 shell pairs
          la=2 lb=1:    128 shell pairs
          la=2 lb=2:     36 shell pairs
          la=3 lb=0:    128 shell pairs
          la=3 lb=1:     64 shell pairs
          la=3 lb=2:     32 shell pairs
          la=3 lb=3:     10 shell pairs

Calculating one electron integrals          ... done (  0.0 sec)
Calculating RI/J V-Matrix + Cholesky decomp.... done (  0.0 sec)
Calculating Nuclear repulsion               ... done (  0.0 sec) ENN=    120.904384142089 Eh

Diagonalization of the overlap matrix:
Smallest eigenvalue                        ... 4.099e-04
Time for diagonalization                   ...    0.002 sec
Threshold for overlap eigenvalues          ... 1.000e-07
Number of eigenvalues below threshold      ... 0
Time for construction of square roots      ...    0.014 sec
Total time needed                          ...    0.025 sec

-------------------
DFT GRID GENERATION
-------------------

General Integration Accuracy     IntAcc      ... 4.388
Radial Grid Type                 RadialGrid  ... OptM3 with GC (2021)
Angular Grid (max. ang.)         AngularGrid ... 4 (Lebedev-302)
Angular grid pruning method      GridPruning ... 4 (adaptive)
Weight generation scheme         WeightScheme... mBecke (2022)
Basis function cutoff            BFCut       ... 1.0000e-11
Integration weight cutoff        WCut        ... 1.0000e-14
Partially contracted basis set               ... off
Rotationally invariant grid construction     ... off
Angular grids for H and He will be reduced by one unit

Total number of grid points                  ...    37370
Total number of batches                      ...      587
Average number of points per batch           ...       63
Average number of grid points per atom       ...     4671

--------------------
COSX GRID GENERATION
--------------------

GRIDX 1
-------
General Integration Accuracy     IntAcc      ... 3.816
Radial Grid Type                 RadialGrid  ... OptM3 with GC (2021)
Angular Grid (max. ang.)         AngularGrid ... 1 (Lebedev-50)
Angular grid pruning method      GridPruning ... 4 (adaptive)
Weight generation scheme         WeightScheme... mBecke (2022)
Basis function cutoff            BFCut       ... 1.0000e-11
Integration weight cutoff        WCut        ... 1.0000e-14
Partially contracted basis set               ... on
Rotationally invariant grid construction     ... off
Angular grids for H and He will be reduced by one unit

Total number of grid points                  ...     4802
Total number of batches                      ...       42
Average number of points per batch           ...      114
Average number of grid points per atom       ...      600
UseSFitting                                  ... on

GRIDX 2
-------
General Integration Accuracy     IntAcc      ... 4.020
Radial Grid Type                 RadialGrid  ... OptM3 with GC (2021)
Angular Grid (max. ang.)         AngularGrid ... 2 (Lebedev-110)
Angular grid pruning method      GridPruning ... 4 (adaptive)
Weight generation scheme         WeightScheme... mBecke (2022)
Basis function cutoff            BFCut       ... 1.0000e-11
Integration weight cutoff        WCut        ... 1.0000e-14
Partially contracted basis set               ... on
Rotationally invariant grid construction     ... off
Angular grids for H and He will be reduced by one unit

Total number of grid points                  ...    10539
Total number of batches                      ...       87
Average number of points per batch           ...      121
Average number of grid points per atom       ...     1317
UseSFitting                                  ... on

GRIDX 3
-------
General Integration Accuracy     IntAcc      ... 4.338
Radial Grid Type                 RadialGrid  ... OptM3 with GC (2021)
Angular Grid (max. ang.)         AngularGrid ... 3 (Lebedev-194)
Angular grid pruning method      GridPruning ... 4 (adaptive)
Weight generation scheme         WeightScheme... mBecke (2022)
Basis function cutoff            BFCut       ... 1.0000e-11
Integration weight cutoff        WCut        ... 1.0000e-14
Partially contracted basis set               ... on
Rotationally invariant grid construction     ... off
Angular grids for H and He will be reduced by one unit

Total number of grid points                  ...    23293
Total number of batches                      ...      185
Average number of points per batch           ...      125
Average number of grid points per atom       ...     2912
UseSFitting                                  ... on
Initializing property integral containers    ... done (  0.0 sec)

SHARK setup successfully completed in   1.7 seconds

Maximum memory used throughout the entire STARTUP-calculation: 19.7 MB
-------------------------------------------------------------------------------
                                 ORCA GUESS
                   Start orbitals & Density for SCF / CASSCF
-------------------------------------------------------------------------------

------------
SCF SETTINGS
------------
Hamiltonian:
 Density Functional     Method          .... DFT(GTOs)
 Exchange Functional    Exchange        .... WB97X-V
 Correlation Functional Correlation     .... WB97X-V
 Gradients option       PostSCFGGA      .... off
 Hybrid DFT is turned on
   Fraction HF Exchange ScalHFX         ....  0.167000
   Scaling of DF-GGA-X  ScalDFX         ....  0.000000
   Scaling of DF-GGA-C  ScalDFC         ....  1.000000
   Scaling of DF-LDA-C  ScalLDAC        ....  1.000000
   Perturbative correction              ....  0.000000
 Long-range corrected/Screened/Range-Separated Hybrid DFT is turned on
   Amount of maximum screened exact exchange              ....  0.833000
   Range separation parameter mu (erf(mu*r12)/r12)        ....  0.300000
   NL short-range parameter             ....  6.000000
   NL long-range parameter              ....  0.010000
 RI-approximation to the Coulomb term is turned on
   Number of AuxJ basis functions       .... 240
   RIJ-COSX (HFX calculated with COS-X)).... on


General Settings:
 Integral files         IntName         .... sp_gas
 Hartree-Fock type      HFTyp           .... RHF
 Total Charge           Charge          ....    0
 Multiplicity           Mult            ....    1
 Number of Electrons    NEL             ....   32
 Basis Dimension        Dim             ....  148
 Nuclear Repulsion      ENuc            ....    120.9043841421 Eh

Convergence Acceleration:
 AO-DIIS                CNVDIIS         .... on
   Start iteration      DIISMaxIt       ....    12
   Startup error        DIISStart       ....  0.200000
   # of expansion vecs  DIISMaxEq       ....     5
   Bias factor          DIISBfac        ....   1.050
   Max. coefficient     DIISMaxC        ....  10.000
 MO-DIIS                CNVKDIIS        .... off
 Trust-Rad. Augm. Hess. CNVTRAH         .... auto
   Auto Start mean grad. ratio tolernc. ....  1.125000
   Auto Start start iteration           ....     1
   Auto Start num. interpolation iter.  ....    10
   Max. Number of Micro iterations      ....    24
   Max. Number of Macro iterations      .... Maxiter - #DIIS iter
   Number of Davidson start vectors     ....     2
   Converg. threshold    (grad. norm)   ....   1.000e-04
   Grad. Scal. Fac. for Micro threshold ....   0.100
   Minimum threshold for Micro iter.    ....   1.000e-02
   NR start threshold (gradient norm)   ....   1.000e-04
   Initial trust radius                 ....   0.400
   Minimum AH scaling param. (alpha)    ....   1.000
   Maximum AH scaling param. (alpha)    .... 1000.000
   Quad. conv. algorithm                .... NR
   White noise on init. David. guess    .... on
   Maximum white noise                  ....   0.010
   Pseudo random numbers                .... off
   Inactive MOs                         .... canonical
   Orbital update algorithm             .... Taylor
   Preconditioner                       .... Diag
   Full preconditioner red. dimension   ....   250
 SOSCF                  CNVSOSCF        .... on
   Start iteration      SOSCFMaxIt      ....   150
   Startup grad/error   SOSCFStart      ....  0.003300
   Hessian update       SOSCFHessUp     .... L-BFGS
 Level Shifting         CNVShift        .... on
   Level shift para.    LevelShift      ....    0.2500
   Turn off err/grad.   ShiftErr        ....    0.0010
 Zerner damping         CNVZerner       .... off
 Static damping         CNVDamp         .... on
   Fraction old density DampFac         ....    0.7000
   Max. Damping (<1)    DampMax         ....    0.9800
   Min. Damping (>=0)   DampMin         ....    0.0000
   Turn off err/grad.   DampErr         ....    0.1000

SCF Procedure:
 Maximum # iterations   MaxIter         ....   125
 SCF integral mode      SCFMode         .... Direct
   Integral package                     .... SHARK and LIBINT hybrid scheme
 Reset frequency        DirectResetFreq ....    20
 Integral Threshold     Thresh          ....  3.000e-11 Eh
 Primitive CutOff       TCut            ....  1.000e-12 Eh

Convergence Tolerance:
 Convergence Check Mode ConvCheckMode   .... Total+1el-Energy
 Convergence forced     ConvForced      .... 0
 Energy Change          TolE            ....  1.000e-07 Eh
 1-El. energy change                    ....  1.000e-04 Eh
 Orbital Gradient       TolG            ....  1.000e-04
 Orbital Rotation angle TolX            ....  1.000e-04
 DIIS Error             TolErr          ....  1.000e-07

---------------------
INITIAL GUESS: MOREAD
---------------------
Guess MOs are being read from file: sp_gas.ges
Input Geometry matches current geometry (good)
Atom 0: N(Shells)= 11 and 9 - projection required
Input basis set needs projection
NBasis(read)= 106
NBasis(calc)= 148
Basis set overlap was calculated
Using GuessMode=FMatrix for the initial guess
C*T matrix was formed
Effective Fockian was calculated
Effective Fockian was diagonalized
Initial density was built
                      ------------------
                      INITIAL GUESS DONE (   0.0 sec)
                      ------------------
             **** ENERGY FILE WAS UPDATED (sp_gas.en.tmp) ****
Finished Guess after   0.3 sec
Maximum memory used throughout the entire GUESS-calculation: 11.9 MB

-------------------------------------------------------------------------------------------
                                      ORCA LEAN-SCF
                              memory conserving SCF solver
-------------------------------------------------------------------------------------------

----------------------------------------D-I-I-S--------------------------------------------
Iteration    Energy (Eh)           Delta-E    RMSDP     MaxDP     DIISErr   Damp  Time(sec)
-------------------------------------------------------------------------------------------
               ***  Starting incremental Fock matrix formation  ***
    1    -229.2259017385558764     0.00e+00  8.62e-04  2.33e-02  6.24e-02  0.700   3.6
    2    -229.2294368232613806    -3.54e-03  7.74e-04  2.23e-02  4.52e-02  0.700   2.4
                               ***Turning on AO-DIIS***
    3    -229.2320275276029520    -2.59e-03  6.31e-04  1.75e-02  3.23e-02  0.700   3.5
    4    -229.2338918163954986    -1.86e-03  1.59e-03  4.38e-02  2.28e-02  0.000   2.8
                              *** Initializing SOSCF ***
---------------------------------------S-O-S-C-F--------------------------------------
Iteration    Energy (Eh)           Delta-E    RMSDP     MaxDP     MaxGrad    Time(sec)
--------------------------------------------------------------------------------------
    5    -229.2386964572162356    -4.80e-03  9.75e-05  1.79e-03  1.97e-03     3.0
               *** Restarting incremental Fock matrix formation ***
    6    -229.2387290614987592    -3.26e-05  6.14e-05  8.83e-04  8.26e-04     4.7
    7    -229.2387363723826184    -7.31e-06  4.28e-05  9.16e-04  7.87e-04     3.6
    8    -229.2387394869781474    -3.11e-06  1.44e-05  2.63e-04  2.22e-04     4.1
    9    -229.2387397932877207    -3.06e-07  5.08e-06  8.49e-05  4.19e-05     3.5
   10    -229.2387398222365960    -2.89e-08  2.13e-06  3.21e-05  2.29e-05     3.1
                 **** Energy Check signals convergence ****

               *****************************************************
               *                     SUCCESS                       *
               *           SCF CONVERGED AFTER  10 CYCLES          *
               *****************************************************


------------------
NL GRID GENERATION
------------------

General Integration Accuracy     IntAcc      ... 4.004
Radial Grid Type                 RadialGrid  ... OptM3 with GC (2021)
Angular Grid (max. ang.)         AngularGrid ... 2 (Lebedev-110)
Angular grid pruning method      GridPruning ... 4 (adaptive)
Weight generation scheme         WeightScheme... mBecke (2022)
Basis function cutoff            BFCut       ... 1.0000e-10
Integration weight cutoff        WCut        ... 1.0000e-14
Partially contracted basis set               ... off
Rotationally invariant grid construction     ... off
Angular grids for H and He will be reduced by one unit

Total number of grid points                  ...    11869
Total number of batches                      ...      189
Average number of points per batch           ...       62
Average number of grid points per atom       ...     1484
Final grid set up in    0.1 sec

-------------------------------------------------------------------------------
                    post-SCF DFT-NL dispersion correction                      
-------------------------------------------------------------------------------

SCF Energy:     -229.238739822 
NL    Energy:      0.128480891 
SC+NL Energy:   -229.110258931 
NL done in  :              0.6 sec
-------------------------------------------------------------------------------
Recomputing exchange energy using gridx3       ... done (    5.537 sec)
Old exchange energy                            :     -8.927424804 Eh
New exchange energy                            :     -8.927409918 Eh
Exchange energy change after final integration :      0.000014886 Eh
Total energy after final integration           :   -229.110244045 Eh
             **** ENERGY FILE WAS UPDATED (sp_gas.en.tmp) ****

----------------
TOTAL SCF ENERGY
----------------

Total Energy       :       -229.11024404546259 Eh           -6234.40669 eV

Components:
Nuclear Repulsion  :        120.90438414208916 Eh            3289.97555 eV
Electronic Energy  :       -350.14312396432570 Eh           -9527.87879 eV
One Electron Energy:       -551.58967368803008 Eh          -15009.51809 eV
Two Electron Energy:        201.44654972370435 Eh            5481.63930 eV

Virial components:
Potential Energy   :       -457.37884423646858 Eh          -12445.91109 eV
Kinetic Energy     :        228.26860019100602 Eh            6211.50440 eV
Virial Ratio       :          2.00368707677601

DFT components:
N(Alpha)           :       16.000004991883 electrons
N(Beta)            :       16.000004991883 electrons
N(Total)           :       32.000009983767 electrons
E(X)               :      -19.311931313761 Eh       
E(C)               :       -1.353164390638 Eh       
NL Energy, E(C,NL) :        0.128480891057 Eh       
E(XC)              :      -20.536614813342 Eh       

---------------
SCF CONVERGENCE
---------------

  Last Energy change         ...    2.8949e-08  Tolerance :   1.0000e-07
  Last MAX-Density change    ...    3.2068e-05  Tolerance :   1.0000e-05
  Last RMS-Density change    ...    2.1339e-06  Tolerance :   1.0000e-06
  Last DIIS Error            ...    1.9737e-03  Tolerance :   1.0000e-07
  Last Orbital Gradient      ...    2.2878e-05  Tolerance :   1.0000e-04
  Last Orbital Rotation      ...    5.9909e-05  Tolerance :   1.0000e-04


----------------
ORBITAL ENERGIES
----------------

  NO   OCC          E(Eh)            E(eV) 
   0   2.0000     -21.725945      -591.1930 
   1   2.0000     -21.663737      -589.5002 
   2   2.0000     -12.189866      -331.7031 
   3   2.0000     -12.064580      -328.2939 
   4   2.0000      -1.766998       -48.0825 
   5   2.0000      -1.699197       -46.2375 
   6   2.0000      -1.290936       -35.1282 
   7   2.0000      -1.175318       -31.9820 
   8   2.0000      -1.091822       -29.7100 
   9   2.0000      -1.030652       -28.0455 
  10   2.0000      -0.982997       -26.7487 
  11   2.0000      -0.954786       -25.9810 
  12   2.0000      -0.902645       -24.5622 
  13   2.0000      -0.863250       -23.4902 
  14   2.0000      -0.846822       -23.0432 
  15   2.0000      -0.844014       -22.9668 
  16   0.0000      -0.310067        -8.4374 
  17   0.0000      -0.128780        -3.5043 
  18   0.0000      -0.063796        -1.7360 
  19   0.0000      -0.018605        -0.5063 
  20   0.0000       0.011469         0.3121 
  21   0.0000       0.033662         0.9160 
  22   0.0000       0.042287         1.1507 
  23   0.0000       0.100616         2.7379 
  24   0.0000       0.186375         5.0715 
  25   0.0000       0.193039         5.2529 
  26   0.0000       0.201335         5.4786 
*Only the first 10 virtual orbitals were printed.

                    ********************************
                    * MULLIKEN POPULATION ANALYSIS *
                    ********************************

-----------------------
MULLIKEN ATOMIC CHARGES
-----------------------
   0 C :   -0.322071
   1 C :    0.298018
   2 O :   -0.339643
   3 O :   -0.377782
   4 H :    0.135423
   5 H :    0.135760
   6 H :    0.140342
   7 H :    0.329954
Sum of atomic charges:    0.0000000

--------------------------------
MULLIKEN REDUCED ORBITAL CHARGES
--------------------------------
  0 C s       :     3.203264  s :     3.203264
      pz      :     1.068388  p :     3.071661
      px      :     0.921633
      py      :     1.081640
      dz2     :     0.006935  d :     0.043925
      dxz     :     0.008552
      dyz     :     0.007539
      dx2y2   :     0.009778
      dxy     :     0.011121
      f0      :     0.000294  f :     0.003221
      f+1     :     0.000292
      f-1     :     0.000705
      f+2     :     0.000300
      f-2     :    -0.000012
      f+3     :     0.000946
      f-3     :     0.000697

  1 C s       :     3.088251  s :     3.088251
      pz      :     0.719366  p :     2.322413
      px      :     0.892073
      py      :     0.710975
      dz2     :     0.007757  d :     0.267023
      dxz     :     0.030741
      dyz     :     0.067441
      dx2y2   :     0.098806
      dxy     :     0.062278
      f0      :     0.003001  f :     0.024294
      f+1     :     0.001091
      f-1     :     0.001383
      f+2     :     0.001654
      f-2     :     0.003690
      f+3     :     0.003574
      f-3     :     0.009902

  2 O s       :     3.798725  s :     3.798725
      pz      :     1.399117  p :     4.507834
      px      :     1.661609
      py      :     1.447108
      dz2     :     0.002757  d :     0.031222
      dxz     :     0.002878
      dyz     :     0.008631
      dx2y2   :     0.007957
      dxy     :     0.008998
      f0      :     0.000185  f :     0.001863
      f+1     :     0.000058
      f-1     :     0.000148
      f+2     :     0.000119
      f-2     :     0.000352
      f+3     :     0.000468
      f-3     :     0.000533

  3 O s       :     3.749415  s :     3.749415
      pz      :     1.781149  p :     4.596340
      px      :     1.300564
      py      :     1.514627
      dz2     :     0.004203  d :     0.030323
      dxz     :     0.000365
      dyz     :     0.005414
      dx2y2   :     0.012972
      dxy     :     0.007369
      f0      :     0.000239  f :     0.001705
      f+1     :     0.000402
      f-1     :     0.000244
      f+2     :     0.000049
      f-2     :     0.000088
      f+3     :     0.000457
      f-3     :     0.000226

  4 H s       :     0.843087  s :     0.843087
      pz      :     0.010787  p :     0.021490
      px      :     0.005078
      py      :     0.005625

  5 H s       :     0.842913  s :     0.842913
      pz      :     0.008757  p :     0.021327
      px      :     0.004994
      py      :     0.007576

  6 H s       :     0.838296  s :     0.838296
      pz      :     0.004262  p :     0.021362
      px      :     0.005595
      py      :     0.011505

  7 H s       :     0.626504  s :     0.626504
      pz      :     0.014029  p :     0.043543
      px      :     0.020051
      py      :     0.009463


------------------------
MULLIKEN OVERLAP CHARGES
------------------------
B(  0-C ,  1-C ) :   0.6252 B(  0-C ,  2-O ) :  -0.1930 B(  0-C ,  3-O ) :  -0.2155 
B(  0-C ,  4-H ) :   0.7491 B(  0-C ,  5-H ) :   0.7566 B(  0-C ,  6-H ) :   0.8200 
B(  1-C ,  2-O ) :   1.4271 B(  1-C ,  3-O ) :   0.7570 B(  1-C ,  6-H ) :  -0.0768 
B(  2-O ,  3-O ) :  -0.2106 B(  3-O ,  7-H ) :   0.5716 


                     *******************************
                     * LOEWDIN POPULATION ANALYSIS *
                     *******************************

----------------------
LOEWDIN ATOMIC CHARGES
----------------------
   0 C :   -0.255165
   1 C :   -0.512038
   2 O :    0.073684
   3 O :    0.084532
   4 H :    0.140532
   5 H :    0.137044
   6 H :    0.135086
   7 H :    0.196325

-------------------------------
LOEWDIN REDUCED ORBITAL CHARGES
-------------------------------
  0 C s       :     2.826816  s :     2.826816
      pz      :     1.071630  p :     3.181946
      px      :     1.035785
      py      :     1.074531
      dz2     :     0.035980  d :     0.222544
      dxz     :     0.039749
      dyz     :     0.033491
      dx2y2   :     0.054199
      dxy     :     0.059126
      f0      :     0.001867  f :     0.023858
      f+1     :     0.003678
      f-1     :     0.002992
      f+2     :     0.003072
      f-2     :     0.001999
      f+3     :     0.005726
      f-3     :     0.004525

  1 C s       :     2.772732  s :     2.772732
      pz      :     0.707406  p :     2.648575
      px      :     1.011558
      py      :     0.929611
      dz2     :     0.059404  d :     0.939027
      dxz     :     0.092001
      dyz     :     0.182649
      dx2y2   :     0.333476
      dxy     :     0.271497
      f0      :     0.009663  f :     0.151704
      f+1     :     0.006411
      f-1     :     0.012170
      f+2     :     0.010374
      f-2     :     0.025127
      f+3     :     0.024253
      f-3     :     0.063707

  2 O s       :     3.411479  s :     3.411479
      pz      :     1.320284  p :     4.443775
      px      :     1.596706
      py      :     1.526785
      dz2     :     0.008140  d :     0.065285
      dxz     :     0.003148
      dyz     :     0.010363
      dx2y2   :     0.019787
      dxy     :     0.023847
      f0      :     0.000393  f :     0.005778
      f+1     :     0.000295
      f-1     :     0.000759
      f+2     :     0.000243
      f-2     :     0.000530
      f+3     :     0.001824
      f-3     :     0.001733

  3 O s       :     3.333994  s :     3.333994
      pz      :     1.663548  p :     4.509109
      px      :     1.293787
      py      :     1.551775
      dz2     :     0.009150  d :     0.067589
      dxz     :     0.001512
      dyz     :     0.008102
      dx2y2   :     0.031445
      dxy     :     0.017382
      f0      :     0.000280  f :     0.004776
      f+1     :     0.000668
      f-1     :     0.000500
      f+2     :     0.000214
      f-2     :     0.000226
      f+3     :     0.001375
      f-3     :     0.001514

  4 H s       :     0.798149  s :     0.798149
      pz      :     0.030486  p :     0.061319
      px      :     0.013914
      py      :     0.016919

  5 H s       :     0.801469  s :     0.801469
      pz      :     0.025372  p :     0.061487
      px      :     0.013769
      py      :     0.022346

  6 H s       :     0.803605  s :     0.803605
      pz      :     0.013295  p :     0.061310
      px      :     0.015269
      py      :     0.032746

  7 H s       :     0.657623  s :     0.657623
      pz      :     0.037978  p :     0.146052
      px      :     0.077218
      py      :     0.030856


---------------------------------
LOEWDIN BOND ORDERS (THRESH 0.050000)
---------------------------------
B(  0-C ,  1-C ) :   1.2722 B(  0-C ,  2-O ) :   0.1665 B(  0-C ,  3-O ) :   0.1359 
B(  0-C ,  4-H ) :   0.8813 B(  0-C ,  5-H ) :   0.8871 B(  0-C ,  6-H ) :   0.8951 
B(  1-C ,  2-O ) :   2.6716 B(  1-C ,  3-O ) :   1.7571 B(  1-C ,  4-H ) :   0.0962 
B(  1-C ,  5-H ) :   0.0923 B(  1-C ,  6-H ) :   0.0882 B(  1-C ,  7-H ) :   0.1131 
B(  2-O ,  3-O ) :   0.1804 B(  3-O ,  7-H ) :   0.9728 

------------------------------------------
LOEWDIN REDUCED ORBITAL POPULATIONS PER MO
-------------------------------------------
THRESHOLD FOR PRINTING IS 0.1%%
                      0         1         2         3         4         5   
                 -21.72594 -21.66374 -12.18987 -12.06458  -1.76700  -1.69920
                   2.00000   2.00000   2.00000   2.00000   2.00000   2.00000
                  --------  --------  --------  --------  --------  --------
 0 C  s               0.0       0.0       0.0      99.5       0.7       0.1
 0 C  px              0.0       0.0       0.1       0.0       2.1       0.2
 0 C  py              0.0       0.0       0.0       0.0       0.0       0.3
 0 C  dz2             0.0       0.0       0.0       0.0       0.1       0.0
 0 C  dx2y2           0.0       0.0       0.1       0.0       0.3       0.0
 0 C  dxy             0.0       0.0       0.0       0.0       0.0       0.5
 1 C  s               0.0       0.0      99.1       0.0      16.4       3.0
 1 C  px              0.0       0.0       0.0       0.1       5.8       0.8
 1 C  py              0.0       0.0       0.0       0.0       0.6      24.2
 1 C  dz2             0.0       0.0       0.0       0.0       1.8       0.1
 1 C  dx2y2           0.0       0.0       0.0       0.1       1.7       0.0
 1 C  dxy             0.0       0.1       0.0       0.0       0.3       6.0
 1 C  f+1             0.0       0.0       0.0       0.0       0.1       0.0
 1 C  f-1             0.0       0.0       0.0       0.0       0.0       0.5
 1 C  f+3             0.0       0.1       0.0       0.0       0.9       0.1
 2 O  s               0.0      99.7       0.0       0.0      14.2      38.6
 2 O  px              0.0       0.0       0.0       0.0       0.5       0.9
 2 O  py              0.0       0.0       0.1       0.0       2.4       2.2
 2 O  dx2y2           0.0       0.0       0.0       0.0       0.2       0.0
 2 O  dxy             0.0       0.0       0.1       0.0       0.1       0.2
 3 O  s              99.8       0.0       0.0       0.0      39.8      17.5
 3 O  py              0.0       0.0       0.1       0.0       2.1       0.6
 4 H  s               0.0       0.0       0.0       0.0       0.1       0.0
 5 H  s               0.0       0.0       0.0       0.0       0.1       0.0
 6 H  s               0.0       0.0       0.0       0.0       0.1       0.0
 7 H  s               0.0       0.0       0.0       0.0       7.4       3.0
 7 H  px              0.0       0.0       0.0       0.0       2.0       0.9

                      6         7         8         9        10        11   
                  -1.29094  -1.17532  -1.09182  -1.03065  -0.98300  -0.95479
                   2.00000   2.00000   2.00000   2.00000   2.00000   2.00000
                  --------  --------  --------  --------  --------  --------
 0 C  s              25.4      12.4       0.3       1.6       0.0       1.2
 0 C  pz              0.0       0.0       0.0       0.0       2.5       0.0
 0 C  px              2.8       1.1       0.2       5.2       0.0      19.5
 0 C  py              0.0       0.2       0.6       0.5       0.0       1.1
 0 C  dz2             0.1       0.1       0.0       0.2       0.0       0.2
 0 C  dxz             0.0       0.0       0.0       0.0       0.7       0.0
 0 C  dx2y2           0.5       0.3       0.1       0.2       0.0       0.7
 0 C  dxy             0.0       0.2       0.3       0.1       0.0       0.1
 0 C  f+3             0.2       0.0       0.0       0.0       0.0       0.0
 1 C  s              11.2       2.5       3.0       0.3       0.0       1.5
 1 C  pz              0.0       0.0       0.0       0.0      24.1       0.0
 1 C  px             13.7       6.8       1.1       4.8       0.0      12.0
 1 C  py              2.2       5.6       5.5       4.7       0.0       2.0
 1 C  dz2             0.0       0.3       0.5       0.0       0.0       0.0
 1 C  dxz             0.0       0.0       0.0       0.0       0.9       0.0
 1 C  dyz             0.0       0.0       0.0       0.0       1.1       0.0
 1 C  dx2y2           1.2       1.0       1.8       3.4       0.0       0.1
 1 C  dxy             0.0       0.1       1.2       0.1       0.0       1.2
 1 C  f0              0.0       0.0       0.0       0.0       0.4       0.0
 1 C  f+2             0.0       0.0       0.0       0.0       0.2       0.0
 1 C  f-3             0.0       0.2       0.2       0.1       0.0       1.2
 2 O  s               2.1       0.6      13.1       1.2       0.0       0.8
 2 O  pz              0.0       0.0       0.0       0.0       7.9       0.0
 2 O  px              1.5       0.2      11.9      15.8       0.0       8.2
 2 O  py              1.3       2.6      35.8       1.2       0.0      22.5
 2 O  dz2             0.0       0.0       0.2       0.0       0.0       0.0
 2 O  dyz             0.0       0.0       0.0       0.0       0.4       0.0
 2 O  dx2y2           0.0       0.3       0.1       0.1       0.0       0.1
 2 O  dxy             0.1       0.0       0.4       0.2       0.0       0.0
 3 O  s               1.1       1.0       1.7       4.4       0.0       1.0
 3 O  pz              0.0       0.0       0.0       0.0      59.2       0.0
 3 O  px             10.7      23.0      13.7       9.9       0.0       5.7
 3 O  py              4.0      16.7       4.1      37.2       0.0       8.6
 3 O  dz2             0.0       0.0       0.1       0.1       0.0       0.0
 3 O  dyz             0.0       0.0       0.0       0.0       0.2       0.0
 3 O  dx2y2           0.1       0.8       0.0       0.0       0.0       0.5
 3 O  dxy             0.4       0.2       0.0       0.0       0.0       0.1
 4 H  s               5.4       3.8       0.2       1.7       0.3       2.9
 4 H  pz              0.4       0.3       0.0       0.1       0.0       0.2
 4 H  px              0.1       0.0       0.0       0.0       0.0       0.1
 5 H  s               5.3       3.7       0.3       1.8       0.4       3.3
 5 H  pz              0.3       0.2       0.0       0.1       0.0       0.2
 5 H  px              0.1       0.0       0.0       0.0       0.0       0.1
 5 H  py              0.2       0.2       0.0       0.1       0.0       0.1
 6 H  s               4.8       4.7       0.0       0.9       0.0       2.0
 6 H  px              0.2       0.1       0.0       0.0       0.0       0.1
 6 H  py              0.4       0.4       0.0       0.1       0.0       0.2
 7 H  s               3.4       9.4       3.1       2.8       0.0       2.2
 7 H  pz              0.0       0.0       0.0       0.0       1.2       0.0
 7 H  px              0.4       0.4       0.1       0.0       0.0       0.0
 7 H  py              0.1       0.6       0.0       0.7       0.0       0.1

                     12        13        14        15        16        17   
                  -0.90265  -0.86325  -0.84682  -0.84401  -0.31007  -0.12878
                   2.00000   2.00000   2.00000   2.00000   0.00000   0.00000
                  --------  --------  --------  --------  --------  --------
 0 C  s               0.0       0.1       0.0       0.0       0.0       2.6
 0 C  pz              5.2       0.0       0.6      45.2       0.2       0.0
 0 C  px              0.0      18.2       2.4       0.1       0.0       4.1
 0 C  py              0.0      13.2      37.4       0.4       0.0       0.2
 0 C  dz2             0.0       0.2       0.5       0.3       0.1       0.8
 0 C  dxz             0.1       0.0       0.0       1.1       5.2       0.0
 0 C  dyz             0.0       0.0       0.3       1.3       0.6       0.0
 0 C  dx2y2           0.0       0.5       0.0       0.0       0.0       2.1
 0 C  dxy             0.0       0.3       1.4       0.0       0.0       0.8
 0 C  f0              0.0       0.0       0.0       0.0       0.2       0.0
 0 C  f+2             0.0       0.0       0.0       0.1       0.5       0.0
 0 C  f+3             0.0       0.0       0.1       0.0       0.0       0.3
 1 C  s               0.0       1.2       0.4       0.0       0.0      14.6
 1 C  pz             10.8       0.0       0.0       0.4      47.1       0.0
 1 C  px              0.0       4.3       1.2       0.0       0.0       3.6
 1 C  py              0.0       1.1       0.4       0.0       0.0       8.3
 1 C  dz2             0.0       0.0       0.0       0.0       0.0       8.8
 1 C  dxz             0.0       0.0       0.1       3.7       0.9       0.0
 1 C  dyz             7.2       0.0       0.0       0.8       0.6       0.0
 1 C  dx2y2           0.0       4.4       2.9       0.1       0.0       0.1
 1 C  dxy             0.0       4.3       0.2       0.0       0.0       0.7
 1 C  f0              0.1       0.0       0.0       0.0       1.0       0.0
 1 C  f+1             0.0       0.0       0.0       0.0       0.0       0.1
 1 C  f-1             0.0       0.0       0.0       0.0       0.0       0.2
 1 C  f+2             0.0       0.0       0.0       0.3       0.3       0.0
 1 C  f-2             1.1       0.0       0.0       0.0       0.2       0.0
 1 C  f+3             0.0       0.0       0.0       0.0       0.0       3.8
 1 C  f-3             0.0       0.2       1.3       0.0       0.0       0.1
 2 O  s               0.0       0.0       0.1       0.0       0.0       1.7
 2 O  pz             48.2       0.0       0.2       9.7      26.1       0.0
 2 O  px              0.0      22.8      17.6       0.4       0.0       0.6
 2 O  py              0.0       5.9       2.3       0.1       0.0       5.0
 2 O  dxz             0.1       0.0       0.0       0.0       0.8       0.0
 2 O  dyz             0.1       0.0       0.0       0.0       2.1       0.0
 2 O  dx2y2           0.0       0.1       0.1       0.0       0.0       1.4
 2 O  f0              0.0       0.0       0.0       0.0       0.1       0.0
 2 O  f-2             0.0       0.0       0.0       0.0       0.1       0.0
 3 O  s               0.0       0.4       0.0       0.0       0.0      10.0
 3 O  pz             23.8       0.0       0.0       0.1       9.2       0.0
 3 O  px              0.0       1.4       0.0       0.0       0.0       0.7
 3 O  py              0.0       3.5       0.9       0.0       0.0      13.9
 3 O  dz2             0.0       0.1       0.0       0.0       0.0       1.5
 3 O  dxz             0.1       0.0       0.0       0.0       0.4       0.0
 3 O  dyz             0.2       0.0       0.0       0.0       1.3       0.0
 3 O  dx2y2           0.0       0.1       0.0       0.0       0.0       0.5
 3 O  dxy             0.0       0.0       0.0       0.0       0.0       2.2
 3 O  f+3             0.0       0.0       0.0       0.0       0.0       0.3
 4 H  s               1.2       0.0       2.5      21.7       1.5       0.3
 4 H  pz              0.0       0.0       0.2       0.2       0.0       0.0
 4 H  px              0.0       0.3       0.0       0.1       0.0       0.1
 4 H  py              0.0       0.1       0.3       0.2       0.0       0.0
 5 H  s               0.8       0.2      13.0      11.2       1.1       0.3
 5 H  pz              0.0       0.0       0.5       0.0       0.0       0.0
 5 H  px              0.0       0.3       0.0       0.1       0.0       0.1
 5 H  py              0.1       0.1       0.0       0.5       0.0       0.0
 6 H  s               0.0      14.4      12.2       0.9       0.0       1.2
 6 H  pz              0.1       0.0       0.0       0.5       0.0       0.0
 6 H  px              0.0       0.0       0.4       0.0       0.0       0.5
 6 H  py              0.0       0.4       0.1       0.0       0.0       0.1
 7 H  s               0.0       1.4       0.2       0.0       0.0       6.2
 7 H  pz              0.6       0.0       0.0       0.0       0.2       0.0
 7 H  px              0.0       0.0       0.0       0.0       0.0       1.7
 7 H  py              0.0       0.1       0.0       0.0       0.0       0.2

                     18        19        20        21        22        23   
                  -0.06380  -0.01860   0.01147   0.03366   0.04229   0.10062
                   0.00000   0.00000   0.00000   0.00000   0.00000   0.00000
                  --------  --------  --------  --------  --------  --------
 0 C  s               0.2       7.7      10.2       4.8       0.0       0.6
 0 C  pz              0.0       0.0       0.1       0.6      26.1       0.0
 0 C  px              0.7       2.6      15.4      11.7       0.4       3.6
 0 C  py              0.1       4.7       0.1       7.4       0.2      17.3
 0 C  dz2             0.0       0.8       1.8      10.7       0.5       1.1
 0 C  dxz             0.0       0.0       0.0       0.0       1.0       0.0
 0 C  dyz             0.0       0.6       0.2       0.1      13.1       0.4
 0 C  dx2y2           1.5       2.0       9.1       2.1       1.1       2.5
 0 C  dxy             0.8       7.8       1.5       1.1       0.0       0.6
 0 C  f+1             0.0       0.3       0.0       0.1       0.0       0.1
 0 C  f-1             0.0       0.1       0.3       0.0       0.0       0.0
 0 C  f-2             0.0       0.0       0.0       0.0       0.2       0.0
 0 C  f+3             0.1       0.0       0.0       0.7       0.0       0.0
 0 C  f-3             0.0       0.3       0.1       0.0       0.0       0.2
 1 C  s               4.0       2.4       3.2       1.9       0.0       3.7
 1 C  pz              0.0       0.0       0.0       0.0       1.4       0.0
 1 C  px              1.3       5.7       4.0      16.7       0.6       3.2
 1 C  py              0.3       9.6       0.5       0.3       0.0      17.9
 1 C  dz2             2.3       2.7       0.1       0.3       0.0       0.9
 1 C  dxz             0.0       0.0       0.0       0.0       2.6       0.0
 1 C  dyz             0.0       0.0       0.0       0.0       0.3       0.0
 1 C  dx2y2           0.5       0.7       0.0       4.5       0.1       0.6
 1 C  dxy             0.8       6.4       0.3       1.7       0.0       2.3
 1 C  f0              0.0       0.0       0.0       0.0       0.3       0.0
 1 C  f+1             0.0       0.2       0.0       0.4       0.0       0.1
 1 C  f-1             0.0       0.3       0.0       0.0       0.0       0.7
 1 C  f+2             0.0       0.0       0.0       0.0       0.2       0.0
 1 C  f+3             0.1       0.3       0.0       0.0       0.0       0.6
 1 C  f-3             0.1       0.9       0.1       0.0       0.0       0.0
 2 O  s               0.2       2.1       0.0       1.2       0.0       8.6
 2 O  px              3.1       5.1       0.4       0.9       0.0       1.4
 2 O  py              1.0       0.5       0.5       3.8       0.1       2.4
 2 O  dz2             0.0       0.1       0.0       0.1       0.0       0.2
 2 O  dyz             0.0       0.0       0.0       0.0       0.1       0.0
 2 O  dx2y2           0.3       0.7       0.1       1.4       0.0       0.0
 2 O  dxy             0.6       1.4       0.5       0.1       0.0       0.4
 2 O  f-3             0.0       0.2       0.0       0.1       0.0       0.0
 3 O  s               3.3       0.2       0.2       0.2       0.1       0.7
 3 O  pz              0.0       0.0       0.0       0.0       2.1       0.0
 3 O  px             21.0       3.3       1.6       0.5       0.1       1.0
 3 O  py              0.9       1.4       0.3       1.3       0.1       1.1
 3 O  dz2             0.5       0.3       0.0       0.0       0.0       0.2
 3 O  dx2y2           4.7       0.2       0.1       1.8       0.1       0.2
 3 O  dxy             1.2       0.6       0.0       0.2       0.0       1.1
 4 H  s               0.1       6.6      11.3       1.1      18.2       3.0
 4 H  pz              0.0       1.7       3.8       0.3       2.7       1.4
 4 H  px              0.1       0.9       0.2       0.2       1.0       0.2
 4 H  py              0.0       0.0       1.0       0.2       2.1       0.1
 5 H  s               0.1       9.9       7.7       0.5      17.4       5.5
 5 H  pz              0.0       1.9       2.0       0.2       1.3       1.9
 5 H  px              0.1       1.3       0.3       0.3       0.4       0.2
 5 H  py              0.0       0.5       1.4       0.3       3.7       0.1
 6 H  s               0.4       2.7      15.0      13.2       0.1      10.2
 6 H  pz              0.0       0.0       0.2       0.0       1.7       0.1
 6 H  px              0.0       0.0       0.0       3.2       0.0       0.1
 6 H  py              0.0       0.0       5.6       2.4       0.1       2.0
 7 H  s              38.4       1.8       0.4       1.2       0.0       0.6
 7 H  px             10.6       0.4       0.2       0.0       0.0       0.0
 7 H  py              0.6       0.1       0.0       0.1       0.0       0.4

                     24        25        26        27        28        29   
                   0.18638   0.19304   0.20133   0.22700   0.22825   0.23960
                   0.00000   0.00000   0.00000   0.00000   0.00000   0.00000
                  --------  --------  --------  --------  --------  --------
 0 C  s               0.1       0.6       0.3       1.2       0.1       2.6
 0 C  pz             32.8       2.2       0.2       1.0      23.8       0.7
 0 C  px              2.7      32.4       2.5       3.6       1.5      17.5
 0 C  py              0.0       4.3      34.6      10.3       0.3       2.5
 0 C  dz2             1.2       1.3       9.2       3.5       0.2       0.0
 0 C  dxz             0.0       0.0       0.0       0.1       1.8       0.0
 0 C  dyz             8.3       0.1       3.3       0.0       4.3       0.5
 0 C  dx2y2           0.3       1.3       3.4       0.1       0.7       3.7
 0 C  dxy             0.1       1.3       1.0       0.1       0.0       0.2
 0 C  f+1             0.0       0.1       0.0       0.0       0.0       0.2
 0 C  f-1             0.0       0.0       0.0       0.2       0.0       0.1
 0 C  f+2             0.0       0.0       0.0       0.0       0.1       0.0
 0 C  f-2             0.2       0.0       0.0       0.0       0.0       0.0
 0 C  f+3             0.0       0.0       0.0       0.0       0.0       0.3
 0 C  f-3             0.0       0.0       0.2       0.1       0.0       0.1
 1 C  s               2.2       9.6       7.8       5.9       0.8       7.3
 1 C  pz             29.2       3.8       0.4       1.7      35.0       0.2
 1 C  px              0.5       3.5       2.2      17.2       0.7       3.6
 1 C  py              1.2       8.5       5.7      13.0       0.1      16.0
 1 C  dz2             1.0       3.5       1.9       0.3       0.1       1.1
 1 C  dxz             0.4       0.1       0.0       0.0       0.5       0.0
 1 C  dyz             0.4       0.0       0.2       0.0       0.4       0.0
 1 C  dx2y2           0.2       1.5       1.2       0.4       0.1       1.1
 1 C  dxy             0.1       0.1       1.7       0.6       0.0       0.1
 1 C  f+1             0.0       0.1       0.2       0.2       0.0       0.3
 1 C  f-1             0.0       0.1       0.1       0.0       0.0       0.0
 1 C  f+2             0.0       0.0       0.0       0.0       0.2       0.0
 1 C  f+3             0.0       0.1       0.2       0.1       0.1       0.4
 1 C  f-3             0.0       0.0       0.0       0.1       0.0       0.4
 2 O  s               0.1       0.0       0.5       2.0       0.0       0.2
 2 O  pz              3.6       0.4       0.4       0.2       3.1       0.0
 2 O  px              0.0       0.0       0.8      11.3       0.7       0.6
 2 O  py              0.1       0.3       4.5       3.5       0.0       2.2
 2 O  dz2             0.1       0.4       1.2       1.0       0.1       0.0
 2 O  dxz             0.0       0.0       0.0       0.0       0.5       0.0
 2 O  dyz             0.5       0.1       0.0       0.0       0.1       0.0
 2 O  dx2y2           0.1       0.6       0.7       0.1       0.0       0.1
 2 O  dxy             0.0       0.0       1.5       1.3       0.0       0.0
 2 O  f+3             0.0       0.0       0.1       0.1       0.0       0.0
 3 O  s               0.1       2.0       0.4       0.2       0.1       0.3
 3 O  pz              1.2       0.4       0.2       0.5      17.8       0.4
 3 O  px              0.2       5.4       0.5       2.0       0.0       0.4
 3 O  py              0.4       5.8       2.9       4.7       0.3       5.8
 3 O  dz2             0.2       1.0       0.3       0.0       0.0       2.8
 3 O  dxz             0.0       0.0       0.0       0.0       0.2       0.0
 3 O  dyz             0.3       0.0       0.0       0.0       0.0       0.0
 3 O  dx2y2           0.1       0.5       0.5       0.1       0.0       1.7
 3 O  dxy             0.0       0.2       0.3       0.3       0.0       0.1
 3 O  f+3             0.0       0.0       0.0       0.0       0.0       0.1
 4 H  s               4.8       1.3       0.1       3.9       0.4       2.7
 4 H  pz              0.2       0.1       0.3       0.1       0.5       0.3
 4 H  px              0.0       0.4       0.0       0.4       0.4       0.0
 4 H  py              0.1       0.1       2.1       0.1       0.0       0.4
 5 H  s               4.8       0.1       1.1       3.3       1.9       1.4
 5 H  pz              0.3       0.2       0.5       0.2       0.3       0.4
 5 H  px              0.1       0.2       0.0       0.2       0.6       0.1
 5 H  py              0.2       0.1       1.1       0.1       0.0       0.6
 6 H  s               0.0       4.5       2.9       0.9       0.1       2.4
 6 H  pz              1.0       0.1       0.1       0.1       0.9       0.1
 6 H  px              0.0       0.0       0.0       0.0       0.0       0.7
 6 H  py              0.1       0.1       0.0       0.7       0.1       0.1
 7 H  s               0.2       0.8       0.5       1.7       0.1      16.4
 7 H  pz              0.0       0.0       0.0       0.0       0.3       0.0
 7 H  px              0.0       0.4       0.0       0.4       0.0       0.4
 7 H  py              0.0       0.0       0.0       0.9       0.0       0.0

                     30        31        32        33        34        35   
                   0.27007   0.32488   0.34135   0.35724   0.36942   0.39153
                   0.00000   0.00000   0.00000   0.00000   0.00000   0.00000
                  --------  --------  --------  --------  --------  --------
 0 C  s               1.9       3.4       0.2      23.4       0.1       3.8
 0 C  pz              0.0       0.0       8.6       0.8       0.2       1.0
 0 C  px              1.3       0.4       0.2      13.8       0.7       2.5
 0 C  py              1.0       0.7       0.2       2.7       9.3       2.1
 0 C  dz2             0.3       0.4       0.1       0.3       2.7       0.3
 0 C  dxz             0.0       0.0       3.7       0.1       0.1       0.2
 0 C  dyz             0.1       0.0       2.0       0.1       0.7       0.2
 0 C  dx2y2           0.1       0.3       0.2       0.4       1.5       0.8
 0 C  dxy             2.0       0.8       0.1       0.7       0.5       4.5
 0 C  f+1             0.0       0.4       0.0       0.0       0.7       0.0
 0 C  f-1             0.1       0.7       0.0       0.1       0.0       0.0
 0 C  f+2             0.0       0.0       0.3       0.0       0.0       0.0
 0 C  f-2             0.0       0.0       0.5       0.0       0.1       0.0
 0 C  f+3             0.0       0.9       0.0       0.1       0.0       0.0
 0 C  f-3             0.2       0.0       0.0       0.1       0.1       0.0
 1 C  s               0.3       9.0       0.2      10.6       1.1       3.2
 1 C  pz              0.0       0.1       2.9       0.0       0.0       0.0
 1 C  px              3.3       6.8       0.1       2.4       4.6       2.8
 1 C  py             17.1       0.1       0.1       0.8       2.3       2.3
 1 C  dz2             0.1       1.0       0.1       1.7       1.1       0.0
 1 C  dxz             0.0       0.0       1.4       0.0       0.0       0.1
 1 C  dyz             0.0       0.0       0.5       0.0       0.0       0.0
 1 C  dx2y2           0.6       0.3       0.0       0.1       0.4       0.2
 1 C  dxy             0.1       0.0       0.0       0.0       0.0       0.2
 1 C  f0              0.0       0.0       0.3       0.0       0.0       0.0
 1 C  f-1             0.0       0.0       0.0       0.0       0.2       0.1
 1 C  f-2             0.0       0.0       0.2       0.0       0.0       0.0
 1 C  f+3             0.2       0.0       0.0       0.0       0.0       0.0
 1 C  f-3             0.1       0.2       0.0       0.0       0.0       0.0
 2 O  s               0.2       0.0       0.2       0.4       0.2       1.4
 2 O  pz              0.0       0.2      13.5       0.2       0.8       0.0
 2 O  px              2.5      18.1       0.1       3.5       6.1       7.8
 2 O  py             15.6       0.7       1.4       1.5       2.7      27.6
 2 O  dz2             0.2       0.3       0.1       0.7       0.1       1.4
 2 O  dx2y2           0.1       0.3       0.1       0.1       0.0       1.4
 2 O  dxy             0.2       0.3       0.1       0.8       0.0       5.0
 3 O  s               0.1       3.4       0.1       1.1       1.6       0.8
 3 O  pz              0.1       0.2       9.2       0.0       1.6       0.0
 3 O  px              3.4       2.2       0.2       0.0       1.7       0.4
 3 O  py             13.1       0.4       0.9       0.1       5.9       9.1
 3 O  dz2             0.0       0.2       0.1       0.0       0.5       1.0
 3 O  dyz             0.0       0.0       0.5       0.0       0.0       0.0
 3 O  dx2y2           1.5       1.5       0.0       0.0       0.0       0.3
 3 O  dxy             3.5       0.4       0.0       0.0       0.0       0.0
 4 H  s               0.1       6.3      19.8      20.3       5.6       1.6
 4 H  pz              0.1       1.3       0.2       0.6       0.6       0.0
 4 H  px              0.0       0.1       0.2       0.1       0.1       0.1
 4 H  py              0.0       0.1       0.1       0.4       0.1       0.3
 5 H  s               0.2       3.4      28.3       8.3       8.0       0.5
 5 H  pz              0.1       1.0       0.4       0.1       0.8       0.2
 5 H  px              0.1       0.0       0.4       0.1       0.0       0.1
 5 H  py              0.0       0.2       0.5       0.4       0.0       0.1
 6 H  s               1.0       8.7       0.4       2.3      33.8      10.6
 6 H  px              1.0       0.5       0.0       0.0       0.0       0.6
 6 H  py              0.2       1.4       0.0       0.2       1.4       0.0
 7 H  s              24.9      21.8       0.6       0.1       1.8       4.4
 7 H  px              0.2       1.0       0.0       0.0       0.0       0.2
 7 H  py              2.7       0.1       0.0       0.1       0.1       0.5

                     36        37        38        39        40        41   
                   0.41263   0.43797   0.46276   0.47410   0.54827   0.57005
                   0.00000   0.00000   0.00000   0.00000   0.00000   0.00000
                  --------  --------  --------  --------  --------  --------
 0 C  s               0.2      13.7       2.1       4.4       1.5       0.5
 0 C  pz              7.8       1.7       1.3       2.5       0.3       1.4
 0 C  px              0.0       0.8       0.6       0.4       1.0       0.1
 0 C  py              2.5       4.8       1.6       0.1       2.6       0.0
 0 C  dz2             0.0       0.3       0.1       1.7       1.9       0.1
 0 C  dxz             2.6       0.4       7.4      15.7       0.2       5.9
 0 C  dyz             0.4       0.1       2.6       2.9       0.2       1.6
 0 C  dx2y2           0.0       0.3       0.0       0.5       0.1       0.0
 0 C  dxy             0.2       0.3       2.1       0.7       0.1       0.2
 0 C  f0              0.0       0.1       0.1       0.0       0.0       0.2
 0 C  f+1             0.0       0.0       0.2       0.1       0.5       0.0
 0 C  f-1             0.0       0.9       0.5       0.7       0.0       0.0
 0 C  f+3             0.0       0.1       0.7       0.5       0.0       0.0
 1 C  s               0.1       2.5       0.8       1.0       2.3       0.2
 1 C  pz              2.3       0.1       1.4       2.4       0.4      17.5
 1 C  px              0.0       0.5       7.8       4.4       6.3       0.1
 1 C  py              0.0       3.5       0.9       0.4       4.4       0.3
 1 C  dz2             0.1       4.7       0.2       0.1       7.0       0.0
 1 C  dxz             0.6       0.5       4.7      11.4       0.0      12.7
 1 C  dyz             0.3       0.1       0.8       0.9       0.2       0.1
 1 C  dx2y2           0.0       0.5       0.4       0.0       1.4       0.0
 1 C  dxy             0.0       1.1       0.5       0.1       0.3       0.0
 1 C  f0              0.0       0.0       0.0       0.1       0.0       0.2
 1 C  f+1             0.0       0.0       0.1       0.2       0.2       0.0
 1 C  f-1             0.0       0.2       0.0       0.0       0.5       0.0
 1 C  f+2             0.0       0.0       0.1       0.2       0.0       0.0
 1 C  f-2             0.1       0.0       0.2       0.3       0.0       0.0
 1 C  f+3             0.0       0.5       0.1       0.1       0.5       0.0
 1 C  f-3             0.0       0.1       0.0       0.0       0.1       0.0
 2 O  s               0.0       1.1       0.1       0.0       0.7       0.1
 2 O  pz             16.1       2.4       7.0      11.0       0.7      33.6
 2 O  px              0.0       0.0       0.1       0.5      20.4       0.0
 2 O  py              0.0      13.9       0.8       0.4      15.1       0.5
 2 O  dz2             0.0       0.0       0.4       0.2       1.2       0.1
 2 O  dxz             0.1       0.0       0.1       0.3       0.0       0.1
 2 O  dyz             0.4       0.0       0.1       0.4       0.0       5.9
 2 O  dx2y2           0.0       1.0       0.2       0.0       2.2       0.0
 2 O  dxy             0.0       2.2       0.2       0.0       3.0       0.0
 3 O  s               0.0       1.5       1.8       0.9       7.4       0.1
 3 O  pz             45.4       0.0       1.7       3.2       0.3       9.6
 3 O  px              0.1       2.4      15.8       8.4       1.5       1.0
 3 O  py              0.1      19.7      10.5       0.7       3.1       0.3
 3 O  dz2             0.0       3.3       0.1       0.3       2.4       0.2
 3 O  dxz             0.4       0.0       0.5       1.2       0.1       0.1
 3 O  dyz             0.6       0.0       0.0       0.2       0.1       3.6
 3 O  dx2y2           0.0       1.5       1.0       0.2       0.1       0.0
 3 O  dxy             0.0       0.4       1.4       0.8       1.8       0.1
 4 H  s               4.2       5.4       1.9       2.0       0.6       0.1
 4 H  pz              0.0       0.6       0.3       0.1       0.1       0.0
 4 H  px              0.1       0.6       0.3       2.6       0.6       0.2
 4 H  py              0.1       0.3       0.6       0.0       0.0       0.5
 5 H  s              11.9       1.4       1.9       3.4       0.4       0.3
 5 H  pz              0.1       0.2       0.0       0.1       0.1       0.0
 5 H  px              0.0       0.0       1.9       0.6       0.6       0.4
 5 H  py              0.0       0.2       0.0       1.5       0.0       0.5
 6 H  s               1.3       2.5       3.6       3.1       1.8       0.1
 6 H  pz              0.4       0.0       0.9       0.9       0.0       0.3
 6 H  py              0.1       0.0       0.8       1.2       0.0       0.0
 7 H  s               0.0       0.5       8.1       3.1       1.7       0.1
 7 H  pz              1.3       0.0       0.4       0.8       0.0       0.3
 7 H  px              0.0       0.0       0.0       0.0       0.2       0.0
 7 H  py              0.0       0.9       0.2       0.2       1.9       0.0

                     42        43        44        45        46        47   
                   0.62327   0.65104   0.69090   0.71648   0.76808   0.80258
                   0.00000   0.00000   0.00000   0.00000   0.00000   0.00000
                  --------  --------  --------  --------  --------  --------
 0 C  s              13.7       1.7       9.7       0.6       1.4       2.6
 0 C  pz              0.2       3.2       0.2       0.5       0.0       0.5
 0 C  px              0.6       0.2       3.5       0.4       2.0       4.9
 0 C  py              0.2       1.2       1.5       7.2       0.8       0.3
 0 C  dz2             0.8       0.0       1.5       6.2       0.3       0.2
 0 C  dxz             0.8       0.2       0.2       0.1       0.0       0.1
 0 C  dyz             0.4       3.1       0.0       0.3       0.0       0.0
 0 C  dx2y2           2.8       0.1       1.0       3.7       2.5      11.4
 0 C  dxy             4.8       0.1       0.4       9.8       0.6       4.2
 0 C  f0              0.2       0.0       0.0       0.0       0.0       0.2
 0 C  f+1             0.2       0.0       0.0       0.3       0.2       0.3
 0 C  f-1             1.5       0.1       0.3       0.1       0.1       0.2
 0 C  f+2             0.1       0.1       0.0       0.0       0.0       0.0
 0 C  f-2             0.1       2.3       0.0       0.0       0.0       0.0
 0 C  f+3             0.1       0.0       0.3       0.2       0.0       0.5
 0 C  f-3             0.1       0.0       0.0       0.4       0.2       0.2
 1 C  s               0.5       0.3       2.5       8.7       1.1       3.6
 1 C  pz              0.4       1.0       0.0       0.0       0.0       0.1
 1 C  px              1.8       0.0       9.3       2.6       1.5      15.9
 1 C  py              3.7       0.0       1.0       4.9      11.5       1.6
 1 C  dz2             0.1       0.0       0.5       3.4       1.5       1.7
 1 C  dxz             1.6       5.0       0.4       0.6       0.1       0.5
 1 C  dyz             1.8      43.2       0.4       0.9       0.0       0.1
 1 C  dx2y2           0.5       0.0       0.5       1.9       1.9       9.0
 1 C  dxy             0.6       0.0       0.6       0.8       1.0       0.0
 1 C  f+1             0.0       0.0       0.1       0.1       0.2       0.8
 1 C  f-1             0.8       0.0       0.1       0.4       0.1       0.5
 1 C  f-2             0.1       1.2       0.0       0.0       0.0       0.0
 1 C  f+3             0.0       0.0       2.2       0.0       0.0       0.2
 1 C  f-3             0.1       0.0       0.0       0.5       0.0       0.3
 2 O  s               1.4       0.1      29.8       8.5      18.5       8.1
 2 O  pz              0.4       3.3       0.0       0.0       0.0       0.1
 2 O  px              9.5       0.0       9.0       1.2       0.2       5.9
 2 O  py              0.9       0.1       1.0       0.1       3.3       0.8
 2 O  dz2             2.1       0.1       0.1       1.1       0.0       2.0
 2 O  dxz             0.2       7.1       0.1       0.2       0.0       0.0
 2 O  dyz             0.1       1.2       0.0       0.0       0.0       0.1
 2 O  dx2y2           0.3       0.0       5.1       0.2       0.0       0.4
 2 O  dxy             0.4       0.0       0.8       1.6       3.6       0.2
 2 O  f-2             0.0       0.1       0.0       0.0       0.0       0.0
 2 O  f+3             0.0       0.0       0.1       0.0       0.1       0.1
 3 O  s               3.3       0.3       9.6       7.5      31.5       2.3
 3 O  pz              0.5       2.2       0.0       0.1       0.0       0.0
[...]
 2 O  px              0.0       0.9       0.0       0.0       0.2       0.0
 2 O  py              0.0       1.9       0.0       0.0       0.2       0.0
 2 O  dz2             0.0       9.4       0.2      58.9       0.4       0.0
 2 O  dxz            46.4       0.0      23.9       0.1       0.0       0.2
 2 O  dyz             7.7       0.0      10.8       0.1       0.0       6.0
 2 O  dx2y2           0.0       0.2       0.0       3.7      30.9       0.0
 2 O  dxy             0.0       8.4       0.2      20.5       1.4       0.0
 2 O  f0              1.4       0.0       1.6       0.0       0.0       0.8
 2 O  f+1             0.0       2.8       0.0       0.3       0.1       0.0
 2 O  f-1             0.0       7.3       0.0       3.0       0.7       0.0
 2 O  f+2             5.2       0.0       0.9       0.0       0.0       0.0
 2 O  f-2             0.9       0.0       5.8       0.0       0.0       0.3
 2 O  f+3             0.0      25.0       0.0       0.1       0.7       0.0
 2 O  f-3             0.0       0.2       0.0       1.3       0.7       0.0
 3 O  s               0.0       1.0       0.0       0.7       0.8       0.0
 3 O  pz              0.1       0.0       0.0       0.0       0.0       1.1
 3 O  px              0.0       0.2       0.0       0.0       0.4       0.0
 3 O  py              0.0       0.4       0.0       0.3       0.5       0.0
 3 O  dz2             0.0      10.4       0.2       2.6      17.2       0.0
 3 O  dxz            22.2       0.1      39.7       0.3       0.0      16.3
 3 O  dyz             9.7       0.0       9.4       0.1       0.0      55.0
 3 O  dx2y2           0.0       5.4       0.0       0.4      23.7       0.0
 3 O  dxy             0.0       0.2       0.1       2.8      10.3       0.0
 3 O  f0              2.4       0.0       0.2       0.0       0.0       5.1
 3 O  f+1             0.0       0.2       0.0       0.0       0.8       0.0
 3 O  f-1             0.0       0.0       0.0       0.4       0.5       0.0
 3 O  f+2             0.3       0.0       0.0       0.0       0.0       3.9
 3 O  f-2             0.3       0.0       3.1       0.0       0.0       6.8
 3 O  f+3             0.0       8.4       0.0       0.1       0.9       0.0
 3 O  f-3             0.0       0.2       0.0       0.1       1.6       0.0
 7 H  s               0.0       0.5       0.0       0.1       0.7       0.0
 7 H  pz              0.1       0.0       0.2       0.0       0.0       0.0
 7 H  px              0.0       0.3       0.0       0.0       0.3       0.0

                    138       139       140       141       142       143   
                   6.34740   6.39456   6.42236   6.60996   6.67035   6.89281
                   0.00000   0.00000   0.00000   0.00000   0.00000   0.00000
                  --------  --------  --------  --------  --------  --------
 0 C  s               0.2       0.0       0.1       0.1       0.0       0.1
 0 C  px              0.1       0.0       0.0       0.1       0.1       0.0
 0 C  py              0.0       0.0       0.1       0.0       0.0       0.1
 0 C  dxy             0.4       0.0       0.1       0.0       0.1       0.3
 0 C  f-3             0.1       0.0       0.1       0.0       0.1       0.1
 1 C  s               0.3       0.0       0.8       4.7       0.4       0.1
 1 C  pz              0.0       1.3       0.0       0.0       0.0       0.0
 1 C  px              0.0       0.0       0.5       0.7       1.4       0.0
 1 C  py              0.1       0.0       1.6       1.2       0.1       0.0
 1 C  dz2             0.1       0.0       0.1       0.2       0.1       0.0
 1 C  dxz             0.0       0.5       0.0       0.0       0.0       0.0
 1 C  dyz             0.0       3.2       0.0       0.0       0.0       0.0
 1 C  dx2y2           1.4       0.0       0.4       0.1       4.7       0.2
 1 C  dxy             1.5       0.0       1.1       0.1       1.1       1.9
 1 C  f0              0.0       0.1       0.0       0.0       0.0       0.0
 1 C  f+1             0.0       0.0       0.0       0.1       0.2       0.0
 1 C  f-1             0.0       0.0       0.3       0.3       0.1       0.2
 1 C  f-2             0.0       0.5       0.0       0.0       0.0       0.0
 1 C  f+3             0.2       0.0       0.3       2.5       0.1       0.1
 1 C  f-3             6.9       0.0       0.5       0.2       1.9       7.7
 2 O  s               0.1       0.0       0.2       1.8       0.1       0.5
 2 O  pz              0.0       2.2       0.0       0.0       0.0       0.0
 2 O  px              0.4       0.0       0.3       0.5       2.4       0.5
 2 O  py              0.1       0.0       0.0       2.1       0.8       0.7
 2 O  dz2             4.2       0.0       1.4      14.6       0.0       1.4
 2 O  dxz             0.0      17.2       0.0       0.0       0.0       0.0
 2 O  dyz             0.0      44.4       0.0       0.0       0.0       0.0
 2 O  dx2y2           8.1       0.0       7.5      10.8      27.6       1.2
 2 O  dxy             1.3       0.0      12.9      38.0       5.4       0.2
 2 O  f0              0.0       8.4       0.0       0.0       0.0       0.0
 2 O  f+1             0.4       0.0       0.1       1.3       0.9       0.7
 2 O  f-1             0.0       0.0       0.1       4.6       0.5       0.1
 2 O  f+2             0.0       4.3       0.0       0.0       0.0       0.0
 2 O  f-2             0.0      11.1       0.0       0.0       0.0       0.0
 2 O  f+3             0.1       0.0       1.0       7.5       0.0       0.6
 2 O  f-3             9.9       0.0       0.3       0.2      22.4       7.6
 3 O  s               1.8       0.0       1.9       0.3       0.9       1.3
 3 O  px              4.5       0.0       0.2       0.0       0.2       0.5
 3 O  py              0.7       0.0       1.4       0.2       0.2       0.4
 3 O  dz2             5.3       0.0      27.1       1.9       0.2       2.9
 3 O  dxz             0.0       4.0       0.0       0.0       0.0       0.0
 3 O  dyz             0.0       0.8       0.0       0.0       0.0       0.0
 3 O  dx2y2           4.0       0.0       4.7       0.6       6.5      37.0
 3 O  dxy            28.3       0.0      25.7       3.3      15.3       0.1
 3 O  f+1             8.0       0.0       0.1       0.2       0.0       2.1
 3 O  f-1             1.5       0.0       2.9       0.4       0.1       0.0
 3 O  f+2             0.0       0.7       0.0       0.0       0.0       0.0
 3 O  f-2             0.0       0.8       0.0       0.0       0.0       0.0
 3 O  f+3             4.3       0.0       5.5       0.3       5.4       4.7
 3 O  f-3             2.2       0.0       0.3       0.7       0.1      21.0
 6 H  s               0.0       0.0       0.0       0.0       0.0       0.1
 7 H  s               3.3       0.0       0.2       0.1       0.2       5.0
 7 H  px              0.1       0.0       0.1       0.0       0.0       0.4
 7 H  py              0.0       0.0       0.1       0.0       0.1       0.0

                    144       145       146       147   
                  20.71754  21.57328  41.33446  41.43137
                   0.00000   0.00000   0.00000   0.00000
                  --------  --------  --------  --------
 0 C  s              98.0       0.4       0.0       0.0
 1 C  s               0.4      95.5       0.0       0.0
 1 C  px              0.2       0.3       0.0       0.0
 1 C  dz2             0.0       0.2       0.0       0.0
 1 C  dx2y2           0.1       0.1       0.0       0.0
 2 O  s               0.0       1.0       1.7      98.2
 2 O  px              0.0       0.2       0.0       0.0
 2 O  py              0.0       0.5       0.0       0.0
 3 O  s               0.0       0.5      98.1       1.7
 3 O  px              0.0       0.1       0.0       0.0
 3 O  py              0.0       0.4       0.0       0.0
 4 H  s               0.2       0.0       0.0       0.0
 5 H  s               0.2       0.0       0.0       0.0
 6 H  s               0.2       0.0       0.0       0.0


                      *****************************
                      * MAYER POPULATION ANALYSIS *
                      *****************************

  NA   - Mulliken gross atomic population
  ZA   - Total nuclear charge
  QA   - Mulliken gross atomic charge
  VA   - Mayer's total valence
  BVA  - Mayer's bonded valence
  FA   - Mayer's free valence

  ATOM       NA         ZA         QA         VA         BVA        FA
  0 C      6.3221     6.0000    -0.3221     3.8234     3.8234     0.0000
  1 C      5.7020     6.0000     0.2980     4.3087     4.3087     0.0000
  2 O      8.3396     8.0000    -0.3396     2.1549     2.1549     0.0000
  3 O      8.3778     8.0000    -0.3778     2.0615     2.0615     0.0000
  4 H      0.8646     1.0000     0.1354     0.9760     0.9760     0.0000
  5 H      0.8642     1.0000     0.1358     0.9757     0.9757     0.0000
  6 H      0.8597     1.0000     0.1403     0.9851     0.9851     0.0000
  7 H      0.6700     1.0000     0.3300     0.9197     0.9197    -0.0000

  Mayer bond orders larger than 0.100000
B(  0-C ,  1-C ) :   0.9864 B(  0-C ,  4-H ) :   0.9487 B(  0-C ,  5-H ) :   0.9541 
B(  0-C ,  6-H ) :   0.9789 B(  1-C ,  2-O ) :   2.0971 B(  1-C ,  3-O ) :   1.1968 
B(  3-O ,  7-H ) :   0.8642 

-------
TIMINGS
-------

Total SCF time: 0 days 0 hours 0 min 41 sec 

Total time                  ....      41.647 sec
Sum of individual times     ....      36.910 sec  ( 88.6%)

SCF preparation             ....       0.171 sec  (  0.4%)
Fock matrix formation       ....      35.254 sec  ( 84.6%)
  Startup                   ....       0.051 sec  (  0.1% of F)
  Split-RI-J                ....       1.073 sec  (  3.0% of F)
  Chain of spheres X        ....      22.925 sec  ( 65.0% of F)
  XC integration            ....      11.339 sec  ( 32.2% of F)
    XC Preparation          ....       0.000 sec  (  0.0% of XC)
    Basis function eval.    ....       1.234 sec  ( 10.9% of XC)
    Density eval.           ....       0.809 sec  (  7.1% of XC)
    XC-Functional eval.     ....       1.240 sec  ( 10.9% of XC)
    XC-Potential eval.      ....       1.306 sec  ( 11.5% of XC)
Diagonalization             ....       0.000 sec  (  0.0%)
Density matrix formation    ....       0.182 sec  (  0.4%)
Total Energy calculation    ....       0.037 sec  (  0.1%)
Population analysis         ....       0.067 sec  (  0.2%)
Orbital Transformation      ....       0.042 sec  (  0.1%)
Orbital Orthonormalization  ....       0.000 sec  (  0.0%)
DIIS solution               ....       0.905 sec  (  2.2%)
  MO trafo                  ....       0.000 sec  (  0.0 % of DIIS)
  Orb grad                  ....       0.000 sec  (  0.0 % of DIIS)
  Energy W gradient         ....       0.000 sec  (  0.0 % of DIIS)
  DIIS error                ....       0.003 sec  (  0.3 % of DIIS)
  DIIS work                 ....       0.872 sec  ( 96.3 % of DIIS)
  Form Q                    ....       0.000 sec  (  0.0 % of DIIS)
  Form QpQm                 ....       0.000 sec  (  0.0 % of DIIS)
  Exp/Cayley                ....       0.000 sec  (  0.0 % of DIIS)
  Orb update                ....       0.000 sec  (  0.0 % of DIIS)
  Wake-sleep                ....       0.010 sec  (  1.1 % of DIIS)
SOSCF solution              ....       0.179 sec  (  0.4%)
  MO trafo                  ....       0.059 sec  ( 33.1 % of SOSCF)
  Orb grad                  ....       0.003 sec  (  1.6 % of SOSCF)
  Rot update                ....       0.076 sec  ( 42.6 % of SOSCF)
  Step                      ....       0.041 sec  ( 22.7 % of SOSCF)
Grid generation             ....       0.073 sec  (  0.2%)
Finished LeanSCF after  41.8 sec

Maximum memory used throughout the entire LEANSCF-calculation: 15.0 MB
------------------   -----------------
gCP correction             0.004929463
------------------   -----------------

-------------------------   --------------------
FINAL SINGLE POINT ENERGY      -229.105314582863
-------------------------   --------------------


------------------------------------------------------------------------------
                              ORCA PROPERTY CALCULATIONS
------------------------------------------------------------------------------

GBWName                                 ... sp_gas.gbw
Number of atoms                         ...      8
Number of basis functions               ...    148
Max core memory                         ...   1024 MB

Electric properties:
Dipole moment                           ... YES
Quadrupole moment                       ...  NO
Static polarizability (Dipole/Dipole)   ...  NO
Static polarizability (Dipole/Quad.)    ...  NO
Static polarizability (Quad./Quad.)     ...  NO
Static polarizability (Velocity)        ...  NO

Atomic electric properties:
Dipole moment                           ...  NO
Quadrupole moment                       ...  NO
Static polarizability                   ...  NO

Choice of electric origin               ... Center of mass
Position of electric origin             ...     0.009758     0.017152    -0.002255

General magnetic properties:
Magnetizability                         ...  NO

EPR properties:
g-Tensor (aka g-matrix)                 ...  NO
Zero-Field splitting spin-orbit         ...  NO
Zero-field splitting spin-spin          ...  NO
Hyperfine couplings                     ...  NO (   0 nuclei)
Quadrupole couplings                    ...  NO (   0 nuclei)
Contact density                         ...  NO (   0 nuclei)

NMR properties:
Chemical shifts                         ...  NO (   0 nuclei)
Spin-rotation constants                 ...  NO (   0 nuclei)
Spin-spin couplings                     ...  NO (   0 nuclei,    0 pairs)

Choice of magnetic origin               ... GIAO
Position of magnetic origin             ...     0.000000     0.000000     0.000000

Properties with geometric perturbations:
SCF Hessian                             ...  NO
IR spectrum                             ...  NO
VCD spectrum                            ...  NO
X-ray spectroscopy properties:
SCF XES/XAS/RIXS spectra                ...  NO


-------------
DIPOLE MOMENT
-------------

Method             : SCF
Type of density    : Electron Density
Multiplicity       :   1
Irrep              :   0
Energy             :  -229.1102440454625935 Eh
Relativity type    : 
Basis              : AO
                                X                 Y                 Z
Electronic contribution:      3.243136591      -0.501531500      -0.025942710
Nuclear contribution   :     -3.578592895       1.151158699       0.040842240
                        -----------------------------------------
Total Dipole Moment    :     -0.335456304       0.649627199       0.014899531
                        -----------------------------------------
Magnitude (a.u.)       :      0.731278624
Magnitude (Debye)      :      1.858762543



--------------------
Rotational spectrum 
--------------------
 
Rotational constants in cm-1:             0.375491             0.316846             0.177512 
Rotational constants in MHz :         11256.946194          9498.816605          5321.670900 

Dipole components along the rotational axes: 
x,y,z [a.u.] :    -0.323067     0.655898     0.013935 
x,y,z [Debye]:    -0.821171     1.667160     0.035420 

 

Dipole moment calculation done in   0.0 sec 

Maximum memory used throughout the entire PROP-calculation: 8.9 MB

--------------------------------
SUGGESTED CITATIONS FOR THIS RUN
--------------------------------

Below you find a list of papers that are relevant to this ORCA run
We neither can nor want to force you to cite these papers, but we appreciate if you do
You receive ORCA, which is the product of decades of hard work by many enthusiastic individuals, for free
The only thing we kindly ask in return is that you cite our papers,
We deeply appreciate it, if you show your appreciation for ORCA by not just citing the generic ORCA reference.

Please note that relegating all ORCA citations to the supporting information does *not* help us.
SI sections are not indexed - citations you put there will not count into any citation statistics
But we need these citations in order to attract the funding resources that allow us to do what we are doing

Therefore, if you are a happy ORCA user, please consider citing a few of the papers listed below in the main body of your paper

In addition to the list printed below, the program has created the file sp_gas.bibtex that contains the list in bibtex format
You can import this file easily into all common literature databanks and citation aid programs


List of essential papers. We consider these as the minimum necessary citations

  1. Neese,F.
     Software update: the ORCA program system, version 5.0
     WIRES Comput. Molec. Sci., 2022 12(1)e1606
     doi.org/10.1002/wcms.1606

List of papers to cite with high priority. The work reported in these papers was absolutely
necessary for this run to complete.
Our perspective: the developers of density functionals and basis sets usually get cited in chemistry papers
Good! But without the algorithms to do something with them, the functionals or basis sets would not do anything.
Hence, in our opinion, the algorithm design and method developments papers are equally worthy of getting cited

  1. Neese,F.
     An improvement of the resolution of the identity approximation for the formation of the Coulomb matrix
     J. Comp. Chem., 2003 24(14)1740-1747
     doi.org/10.1002/jcc.10318
  2. Neese,F.; Wennmohs,F.; Hansen,A.; Becker,U.
     Efficient, approximate and parallel Hartree-Fock and hybrid DFT calculations. A 'chain-of-spheres' algorithm for the Hartree-Fock exchange
     Chem. Phys., 2009 356(1-3)98-109
     doi.org/10.1016/j.chemphys.2008.10.036
  3. Helmich-Paris,B.; de Souza,B.; Neese,F.; Izsák,R.
     An improved chain of spheres for exchange algorithm
     J. Chem. Phys., 2021 155 104109
     doi.org/doi: 10.1063/5.0058766.
  4. Neese,F.
     The SHARK Integral Generation and Digestion System
     J. Comp. Chem., 2022  1-16
     doi.org/10.1002/jcc.26942

List of suggested additional citations. These are papers that are important in the 'surrounding' of 
of this run, or papers that preceded the highly important papers. If you like your results we are grateful for a citation.

  1. Izsak,R.; Neese,F.
     An overlap fitted chain of spheres exchange method
     J. Chem. Phys., 2011 135 144105
     doi.org/10.1063/1.3646921
  2. Izsak,R.; Hansen,A.; Neese,F.
     The resolution of identity and chain of spheres approximations for the LPNO-CCSD singles Fock term
     Molec. Phys., 2012 110 2413-2417
     doi.org/10.1080/00268976.2012.687466
  3. Neese,F.
     The ORCA program system
     WIRES Comput. Molec. Sci., 2012 2(1)73-78
     doi.org/10.1002/wcms.81
  4. Izsak,R.; Neese,F.; Klopper,W.
     Robust fitting techniques in the chain of spheres approximation to the Fock exchange: The role of the complementary space
     J. Chem. Phys., 2013 139 
     doi.org/10.1063/1.4819264
  5. Neese,F.
     Software update: the ORCA program system, version 4.0
     WIRES Comput. Molec. Sci., 2018 8(1)1-6
     doi.org/10.1002/wcms.1327
  6. Neese,F.; Wennmohs,F.; Becker,U.; Riplinger,C.
     The ORCA quantum chemistry program package
     J. Chem. Phys., 2020 152 Art. No. L224108
     doi.org/10.1063/5.0004608

List of optional additional citations

  1. Neese,F.
     Approximate second-order SCF convergence for spin unrestricted wavefunctions
     Chem. Phys. Lett., 2000 325(1-3)93-98
     doi.org/10.1016/s0009-2614(00)00662-x

Timings for individual modules:

Sum of individual times          ...       44.007 sec (=   0.733 min)
Startup calculation              ...        1.743 sec (=   0.029 min)   4.0 %
SCF iterations                   ...       42.166 sec (=   0.703 min)  95.8 %
Property calculations            ...        0.098 sec (=   0.002 min)   0.2 %
                             ****ORCA TERMINATED NORMALLY****
TOTAL RUN TIME: 0 days 0 hours 0 minutes 44 seconds 881 msec
