41
 energy: -65.046923104284 gnorm: 0.057614776616 xtb: 6.7.1 (edcfbbe)
C            4.00087855491544       -1.28938051619878       -2.84341154399430
C            4.34053592817828       -0.11937168289890       -1.95251013886649
O            3.82334645929702       -0.29297799532032       -0.59099687731638
P            2.27152374923402       -0.07874979230862       -0.20003108206588
S            1.24591181680324        1.13617685538247       -1.31442877810892
O            2.38351449006620        0.27776516670887        1.36378985217935
C            2.27698577721273        1.66242404309915        1.84610313859057
C            3.54134547788062        2.44605872304313        1.57983361102678
S            1.67477091645034       -2.11137025824824       -0.10254098795239
C            0.06798115961858       -2.02067563504002        0.79203574688732
S           -1.44468013985284       -1.90037696705965       -0.24841653369164
P           -2.29325576592254       -0.02937630406930        0.30353688619754
S           -1.49294401345397        0.84663236950780        1.84775381240509
O           -3.86740058243144       -0.37826079509113        0.41127143300030
C           -4.39985238386629       -1.11638169975945        1.56589780275083
C           -5.10533760543673       -0.17582221198446        2.51519269175360
O           -2.28864196946501        0.73839127113628       -1.10043423821376
C           -2.63270761452898        2.16134937394457       -1.18872472539899
C           -2.29643011186049        2.60956896738266       -2.58943241371257
H            4.37103575909554       -2.22918810256391       -2.42562247530292
H            2.92190874546031       -1.36833123417014       -3.00836205572661
H            4.47905928673076       -1.13186059984375       -3.81510002704380
H            3.95196127486085        0.82184848401903       -2.35434559527788
H            5.41856684151163       -0.02644153002253       -1.80620935805987
H            1.40434443347957        2.12400039043311        1.37637168176529
H            2.08863529364139        1.54883405307151        2.91610114746737
H            3.44262426742328        3.43154372774488        2.04684613053635
H            4.41627225212540        1.94683371366759        2.00740023631216
H            3.70180482493540        2.59424746356067        0.50632847603015
H            0.07157096293767       -1.19467056226645        1.51387631859772
H           -0.00434032209024       -2.96578648566132        1.33871328719140
H           -5.09176054517581       -1.84492254690948        1.13379626859002
H           -3.58553172966386       -1.65734405907229        2.06107065538292
H           -5.53616666559614       -0.76411802830865        3.33238327711026
H           -4.40872808467216        0.55167596702992        2.94143762330182
H           -5.91712042090741        0.35537667582703        2.00909265611269
H           -3.70083675333759        2.27028554958523       -0.97072578404709
H           -2.05153299840239        2.70599007420450       -0.43759677206520
H           -1.22452232615145        2.50300062392743       -2.78382282997425
H           -2.85284539145150        2.02728202133818       -3.33047283416186
H           -2.56703844237264        3.66348592539096       -2.70137508131143
41
 energy: -65.050937405316 gnorm: 0.028871061902 xtb: 6.7.1 (edcfbbe)
C            3.99715428077377       -1.28469425591270       -2.83748792686146
C            4.32974686300007       -0.10979739353857       -1.94745764901728
O            3.81741233805749       -0.26988608965605       -0.59741545026330
P            2.27014001866433       -0.08405915935991       -0.20389144331680
S            1.23984167460067        1.16840467488629       -1.30727860510793
O            2.37342955199487        0.27472283403028        1.35267547084619
C            2.27326695002386        1.64653046413021        1.83587936164555
C            3.53378640620414        2.43779251949271        1.57546192518373
S            1.64088868085412       -2.09138716811990       -0.07887274584968
C            0.04766831187059       -2.00514850027950        0.80856847983853
S           -1.42523887126174       -1.90033750193736       -0.27827836938603
P           -2.27278132144810       -0.05316119587352        0.29207057181503
S           -1.47025104815587        0.85124648250530        1.83732015037108
O           -3.84405936599746       -0.38043520852116        0.41674449414166
C           -4.38545327935738       -1.10963096670415        1.55681132792327
C           -5.09644995692620       -0.17638289198369        2.51151136539568
O           -2.27451169068216        0.73169999346313       -1.09451250266548
C           -2.62314227717166        2.14550708006071       -1.18104686808141
C           -2.29175422061586        2.61083541770177       -2.58002151297658
H            4.36048916671687       -2.21484823760186       -2.40520426022822
H            2.92009574673686       -1.36380098279746       -2.98648429304704
H            4.47140542251789       -1.13591559186321       -3.80684753822282
H            3.92677837847983        0.82148044175684       -2.35614473032687
H            5.40664677398675       -0.01423818634439       -1.79699640549555
H            1.40487581277254        2.11321486304136        1.36255153431441
H            2.08263266579613        1.52774962863676        2.90375875015309
H            3.43713328807250        3.41843378183658        2.04006723015082
H            4.39934782549100        1.92990494781936        1.99660483385251
H            3.68876879033913        2.57368300044043        0.50457677911417
H            0.05475658578444       -1.16137724139790        1.50442684764798
H           -0.02032691441171       -2.95387699953148        1.33956045072414
H           -5.07697843163065       -1.83172887303727        1.11681265688471
H           -3.57124324253268       -1.64533871918548        2.05259956927761
H           -5.52718608806511       -0.76074895406286        3.32315842702237
H           -4.40117717236566        0.54852131705194        2.93157848091545
H           -5.89620401371868        0.35555059730528        1.99994963384235
H           -3.69001243084945        2.24662811650160       -0.96345533419169
H           -2.04518898805119        2.68951685155009       -0.42783972174981
H           -1.22548845510530        2.49759813020070       -2.77030356045165
H           -2.84319282039436        2.02547844306371       -3.31300542523176
H           -2.56272053877771        3.65965896544103       -2.68587139769169
41
 energy: -65.052489652955 gnorm: 0.012014954258 xtb: 6.7.1 (edcfbbe)
C            3.98175881323252       -1.28257390328299       -2.82085774163105
C            4.30352674417281       -0.09764127869778       -1.93489377842181
O            3.78767929756756       -0.24597747581184       -0.59901376436789
P            2.24851771918425       -0.08433726721155       -0.20121793452037
S            1.22532026925675        1.18803603434752       -1.29839122403190
O            2.34604540497445        0.27538385680735        1.34635540185792
C            2.26046922329596        1.63248150612695        1.83086164086871
C            3.52500768333253        2.42008952848604        1.56860622378105
S            1.65183177697453       -2.09993146180645       -0.06706867928513
C            0.05969413574407       -1.98759265348760        0.80144075990053
S           -1.40049663428727       -1.88996040564003       -0.29479345470427
P           -2.25478327726021       -0.06158157607176        0.27922945346328
S           -1.43399973737933        0.83977341307583        1.82232102785631
O           -3.81959484023670       -0.37478132703678        0.42325673870465
C           -4.36545683311683       -1.10433763766341        1.54496602250015
C           -5.08148882873487       -0.17322088108538        2.50248231404569
O           -2.25907092368996        0.73209025778181       -1.09126349981354
C           -2.61502528472887        2.13379126381833       -1.17408788577148
C           -2.28370433201876        2.60941714221981       -2.57240211541800
H            4.34293073471585       -2.20350513972889       -2.37346593410253
H            2.90580486945909       -1.36250249891107       -2.96120523261169
H            4.45561417111595       -1.14131876813352       -3.78693970317553
H            3.89450435213023        0.82394846858593       -2.35977844197221
H            5.37961347013504        0.00250327593177       -1.78218153674881
H            1.39749335360280        2.11081687980044        1.35692666817898
H            2.06913769980697        1.51291017318991        2.89772202566058
H            3.43360280991882        3.39781167429899        2.02991035344687
H            4.38381062768155        1.90304761279011        1.98411901083427
H            3.67227243002624        2.54612575095048        0.49810040152700
H            0.05631566112742       -1.12991265932296        1.47752765725749
H           -0.02039765968895       -2.92805900063109        1.33757484621052
H           -5.05768615489676       -1.82145495875737        1.10010436072614
H           -3.55607418898634       -1.63842040018258        2.04806640261955
H           -5.51230641759803       -0.75680603524769        3.30836544214130
H           -4.38528348629862        0.54862088239804        2.91988808066964
H           -5.87232957716255        0.36029590961755        1.98572912521223
H           -3.68162032993498        2.22670001615600       -0.95747908490284
H           -2.04122401455996        2.67828472050416       -0.41788709613710
H           -1.21993604970717        2.49242231874198       -2.75684780403473
H           -2.83233437298411        2.02224388185341       -3.30062524709334
H           -2.55523389896605        3.65448519443606       -2.66888119782139
41
 energy: -65.053002944351 gnorm: 0.007056159797 xtb: 6.7.1 (edcfbbe)
C            3.96720383561275       -1.28047505699204       -2.80344562353353
C            4.28827794932798       -0.08204407981041       -1.93112846841338
O            3.77375393467341       -0.21844419422681       -0.59990826662022
P            2.23890619203804       -0.07724646699151       -0.20084273007508
S            1.19510464455025        1.17517488456963       -1.29725442294124
O            2.32472661248692        0.27519151656000        1.34346360893381
C            2.24607455857183        1.62451875748073        1.83237187977767
C            3.51712537776502        2.40362590726997        1.56485895765329
S            1.64924848271980       -2.09420265098841       -0.06589558130645
C            0.05765101118235       -1.98981451193371        0.79567708143607
S           -1.39375309939238       -1.89673975411941       -0.31369732307587
P           -2.23185480020915       -0.05995254459764        0.27433852085056
S           -1.41126524816378        0.84235129321837        1.81776034641335
O           -3.79157395600730       -0.37053675896967        0.42550231637640
C           -4.34436970066938       -1.10209492346803        1.53658515221634
C           -5.06547535245799       -0.16930840124339        2.49228183144831
O           -2.23762343059124        0.73369408331862       -1.08881021978046
C           -2.60746833159949        2.12757497933330       -1.16958430504020
C           -2.27583750484029        2.60768723032752       -2.56750369800076
H            4.33033413963078       -2.19513515234326       -2.34379489449771
H            2.89045905683117       -1.36277559883330       -2.94014053865736
H            4.43904815668510       -1.14949640642502       -3.77121421407366
H            3.87609245637894        0.83202528854004       -2.37113142437469
H            5.36433832198029        0.02425675063899       -1.78310912632301
H            1.38642153813867        2.11486603524082        1.36230218903490
H            2.05596412680348        1.50749760524858        2.89975277608160
H            3.43372894882372        3.38228290714734        2.02439321687824
H            4.37389014807670        1.87949488043102        1.97672479337888
H            3.65882481911241        2.52569502023599        0.49270472700837
H            0.05011756185273       -1.12242281084041        1.46029823747371
H           -0.02580291948036       -2.92102075406585        1.34711969937068
H           -5.03654411801267       -1.81793921928509        1.08943273855423
H           -3.54271161213067       -1.63927488700402        2.04973611086538
H           -5.50019804071310       -0.75295188010997        3.29561048896356
H           -4.36812726531716        0.55076039977643        2.91219756932051
H           -5.85240187956056        0.36617408835753        1.97085017009115
H           -3.67546637486205        2.21351283626997       -0.95543562162306
H           -2.04050027681107        2.67840626108001       -0.41191411324463
H           -1.21103920747003        2.49272721938847       -2.74882340002154
H           -2.82278224232665        2.01968094871246       -3.29667202347284
H           -2.54959210740779        3.65204159230995       -2.65938381615412
41
 energy: -65.053243321941 gnorm: 0.005999526983 xtb: 6.7.1 (edcfbbe)
C            3.95282438346811       -1.27918581686664       -2.78752187155116
C            4.27220093452284       -0.06916239991386       -1.92912504194840
O            3.75874149862619       -0.19426182102687       -0.59680860745299
P            2.22448087607923       -0.07496382356043       -0.19882147077525
S            1.16519888235175        1.16377741048012       -1.29560995949312
O            2.30117064305337        0.27250066362726        1.34446872695479
C            2.23303119526918        1.62090432141789        1.83589568528957
C            3.50989613403059        2.39067176132030        1.56305184886826
S            1.66435078926799       -2.10465805549871       -0.06605497704998
C            0.07127681937879       -1.99767472890825        0.79121106703502
S           -1.37953415725295       -1.89724122481282       -0.31862906898140
P           -2.21916563916903       -0.05733703531698        0.26611207815749
S           -1.39120250756064        0.83509722001411        1.81088408846642
O           -3.77628608763714       -0.36467826726176        0.42348196418412
C           -4.33082174955795       -1.09893456377016        1.53084860908505
C           -5.05285158654278       -0.16456851871247        2.48546546740606
O           -2.22373879956401        0.73568943515305       -1.09314370724358
C           -2.60229580261649        2.12677616908794       -1.17010141050392
C           -2.26957175336089        2.61008313551681       -2.56658753734036
H            4.31901947209564       -2.18815862463409       -2.31718044515362
H            2.87537638060763       -1.36522978750409       -2.92273970454726
H            4.42305541776078       -1.15917857374465       -3.75849041058849
H            3.85828423679208        0.83874384956932       -2.38153968124880
H            5.34844044523293        0.04370888479911       -1.78638055140757
H            1.37507930830069        2.12091808482945        1.37178823689040
H            2.04583867613938        1.50713245690600        2.90445069192495
H            3.43748861065583        3.37177994519412        2.02172507306246
H            4.36526894958201        1.85960890700412        1.97171113236314
H            3.64747889466479        2.51059959876910        0.48912074040686
H            0.06248551045448       -1.12935873177290        1.45532060922456
H           -0.01941270501354       -2.92435589136281        1.35100200832510
H           -5.02210270078707       -1.81518155750575        1.08236565472341
H           -3.53269172455390       -1.63926249248345        2.04761110902964
H           -5.49135802074292       -0.74784199225671        3.28842294449919
H           -4.35385629977384        0.55413631551140        2.90749694847164
H           -5.83801397836726        0.37296437955598        1.96159709072994
H           -3.67171270209987        2.20694716496231       -0.95805635588088
H           -2.04129849864142        2.68199256536032       -0.41034903227642
H           -1.20327480056098        2.49672672275333       -2.74612800382387
H           -2.81479554487521        2.02264713283178       -3.29901916854852
H           -2.54409859443697        3.65519221545732       -2.65747216838532
41
 energy: -65.053352098618 gnorm: 0.004279714980 xtb: 6.7.1 (edcfbbe)
C            3.94265795881820       -1.27802267257281       -2.77555991046280
C            4.26174935838954       -0.05953961910648       -1.93017209462377
O            3.75193270220009       -0.17332059233957       -0.59320801385884
P            2.21592542432363       -0.07405166842125       -0.19703584984803
S            1.14419162171259        1.15209253413247       -1.29449202192666
O            2.28488037012327        0.27015124157275        1.34712000359722
C            2.22494868105073        1.62080390470385        1.83979126650964
C            3.50503549032149        2.38307764559146        1.56271300457345
S            1.67125672099680       -2.10874819626478       -0.06737617670008
C            0.07678581877716       -2.00554677134017        0.78826810093561
S           -1.37457308012882       -1.90080615324408       -0.32163761586380
P           -2.20767283361070       -0.05617004626749        0.26247897159367
S           -1.38199538377804        0.83330045861730        1.80917373568139
O           -3.76439732650220       -0.36234514114170        0.42025165603743
C           -4.32152453142906       -1.09650032142804        1.52826274208395
C           -5.04398153886158       -0.16073404197970        2.48041599399859
O           -2.21151189791200        0.73552568769765       -1.09672053769944
C           -2.59793955454953        2.12639810429791       -1.17268702006297
C           -2.26491500724401        2.61289041742747       -2.56736478167149
H            4.31130773730267       -2.18244623897726       -2.29772222371465
H            2.86490792400395       -1.36725269501509       -2.90973159076981
H            4.41123290241911       -1.16744402210957       -3.74933203269761
H            3.84535216953122        0.84385228611174       -2.38896699468243
H            5.33808633835135        0.05801020586682       -1.79158338193614
H            1.36688813094989        2.12411249263904        1.38014815891890
H            2.04083251038060        1.50718290758864        2.90916966531495
H            3.44078858471669        3.36527018094990        2.02205882153292
H            4.35933698271518        1.84741873489211        1.96897608521385
H            3.64043026211259        2.50355110872677        0.48812221176968
H            0.06866987390230       -1.14235316474803        1.45923871155413
H           -0.01476987914167       -2.93415974301284        1.34551011298506
H           -5.01160789128312       -1.81356029932919        1.07861430343580
H           -3.52412346342972       -1.63771220247048        2.04571607042432
H           -5.48572611875394       -0.74282546570687        3.28355400721673
H           -4.34483456784305        0.55728462018289        2.90443571410301
H           -5.82826913085030        0.37788740519390        1.95531989892346
H           -3.66841535826703        2.20061871932997       -0.96203869789928
H           -2.04162465379866        2.68389040748453       -0.41103984912414
H           -1.19773092066959        2.50200017101090       -2.74684325876822
H           -2.80832593321360        2.02696824461084       -3.30329759669769
H           -2.54035408661280        3.65861601005418       -2.65825698649874
41
 energy: -65.053406822739 gnorm: 0.002454616851 xtb: 6.7.1 (edcfbbe)
C            3.93412357998967       -1.27707549127985       -2.76549520966758
C            4.25378469785682       -0.05241268633334       -1.93151786011510
O            3.74838431901579       -0.15546981039063       -0.58991481831510
P            2.21047600954686       -0.07253851344393       -0.19582999996312
S            1.13025220639695        1.14630399546992       -1.29344841799703
O            2.27344488032479        0.26859653029554        1.34981099719009
C            2.22034134985643        1.62151480041605        1.84346199546118
C            3.50150082826085        2.37875463122841        1.56335455824947
S            1.67659550136587       -2.10919006029299       -0.06756259432716
C            0.08105815983613       -2.01526937792653        0.78768561545374
S           -1.36896464300247       -1.90205148015089       -0.32318494595859
P           -2.20067176186467       -0.05658698230970        0.25841146174488
S           -1.37428223453006        0.82824239784563        1.80727548422129
O           -3.75824868167085       -0.36069537500517        0.41603728419000
C           -4.31567830681501       -1.09387396452195        1.52640787070695
C           -5.03756979541383       -0.15730752160843        2.47663749722843
O           -2.20405721824656        0.73517176768261       -1.10144313390039
C           -2.59463829325987        2.12668888021640       -1.17646360931431
C           -2.26113024957520        2.61612670001692       -2.56923180403294
H            4.30419802455155       -2.17745939900030       -2.28157326122458
H            2.85638480831522       -1.36845211495903       -2.89826610693082
H            4.40138507682598       -1.17420878971379       -3.74088910915643
H            3.83428682713849        0.84728336007849       -2.39362821517550
H            5.33010424870349        0.06780781327819       -1.79566430485205
H            1.36153603061714        2.12538051685122        1.38697776193324
H            2.03938642456154        1.50578565474111        2.91321159160461
H            3.44245204065060        3.36041288586628        2.02463989816997
H            4.35480663691389        1.83953694026206        1.96676532505658
H            3.63487431983009        2.50105347786565        0.48885849853848
H            0.07209151675163       -1.15762140387953        1.46612155479881
H           -0.01012046708143       -2.94928354832110        1.33608126606170
H           -5.00499417451492       -1.81146583691865        1.07640670951534
H           -3.51704624362598       -1.63413279728496        2.04273970525083
H           -5.48097434582508       -0.73835560673938        3.27979162918706
H           -4.33859282517545        0.56029745041638        2.90141413569674
H           -5.82108018655836        0.38171220657688        1.95088336271945
H           -3.66554477222809        2.19557948650975       -0.96676214063973
H           -2.04100429079781        2.68350874154260       -0.41274224533719
H           -1.19370057279173        2.50676560217431       -2.74862355259215
H           -2.80324517022569        2.03217939652625       -3.30774487965591
H           -2.53701884888697        3.66211195742715       -2.65871539292600
41
 energy: -65.053423624293 gnorm: 0.001583864641 xtb: 6.7.1 (edcfbbe)
C            3.92933365965549       -1.27693213045685       -2.76019317378680
C            4.24951749098870       -0.05007752035655       -1.93107939527381
O            3.74627660881303       -0.14833184657461       -0.58763333844249
P            2.20779885663321       -0.07143627352512       -0.19434484691023
S            1.12752699710008        1.14811457249064       -1.29191733874389
O            2.26947061212609        0.26867445758721        1.35205129591357
C            2.21945133031321        1.62233315521465        1.84603548854999
C            3.50018571541090        2.37839986517111        1.56453822707559
S            1.67871241740753       -2.10922130156925       -0.06789816056044
C            0.08106028457117       -2.01906268594670        0.78469345020463
S           -1.36741536496840       -1.90361625433344       -0.32798254696432
P           -2.19636132512239       -0.05825990937797        0.25688940657054
S           -1.37273552983851        0.82756956307859        1.80687851258436
O           -3.75499059557444       -0.36112121947028        0.41316390170051
C           -4.31249140555526       -1.09274859329381        1.52526668615388
C           -5.03435364375664       -0.15575622245843        2.47443465344173
O           -2.20028848297729        0.73418816046791       -1.10363468999603
C           -2.59262600252119        2.12596170741459       -1.17850528447816
C           -2.25905617467982        2.61751824331567       -2.57029113062616
H            4.29937172712177       -2.17537119578873       -2.27326722702194
H            2.85170644434380       -1.36866170759371       -2.89201947281544
H            4.39625573741542       -1.17753232964700       -3.73579418315629
H            3.82853912351636        0.84802853597803       -2.39423146593649
H            5.32584550665918        0.07039834712952       -1.79625599141198
H            1.35989768045792        2.12580427374290        1.39099080052648
H            2.04053228770332        1.50474366884228        2.91580891404282
H            3.44269160956358        3.35891064230826        2.02780130018300
H            4.35332708359882        1.83754104746417        1.96535460547090
H            3.63179125736488        2.50245160232559        0.49030460045252
H            0.07028294788290       -1.16561631611811        1.46844388168396
H           -0.00916302408218       -2.95752817974133        1.32538924112633
H           -5.00172349453659       -1.81052954570649        1.07572534730551
H           -3.51294420420421       -1.63162126375741        2.04125869288999
H           -5.47823141512820       -0.73625949729553        3.27738761106344
H           -4.33572501512903        0.56180955210288        2.89925310786951
H           -5.81724463326705        0.38318571953066        1.94812453713641
H           -3.66355339289009        2.19243958997779       -0.96953412852553
H           -2.03992369439044        2.68199251704901       -0.41385060350626
H           -1.19177761813202        2.50892649579759       -2.74959053529843
H           -2.80065362904188        2.03469285131533       -3.30966685866332
H           -2.53541232763197        3.66336385791447       -2.65783128893049
41
 energy: -65.053406409890 gnorm: 0.003425243877 xtb: 6.7.1 (edcfbbe)
C            3.92204895699739       -1.27671813093144       -2.75212717600110
C            4.24304716463437       -0.04652774189636       -1.93040552686951
O            3.74309354498954       -0.13748605088858       -0.58416631146685
P            2.20375831275259       -0.06973660615894       -0.19208401333121
S            1.12339269339402        1.15088169057939       -1.28957368788781
O            2.26346207442561        0.26880073054120        1.35546179030047
C            2.21810697230516        1.62357030094865        1.84996633108163
C            3.49819188593507        2.37787101598951        1.56635278420319
S            1.68191717333844       -2.10922462973078       -0.06841146811664
C            0.08105659972304       -2.02486978816895        0.78015541453850
S           -1.36504640450799       -1.90596465492309       -0.33527547434950
P           -2.18985023039197       -0.06080410653164        0.25453711414531
S           -1.37034065370955        0.82645133354233        1.80623884147650
O           -3.75007939291436       -0.36176852955878        0.40877818477377
C           -4.30765740288229       -1.09104337299391        1.52351826200082
C           -5.02946617423363       -0.15339635606429        2.47107989507764
O           -2.19460050990430        0.73270518015764       -1.10699635150003
C           -2.58957796395803        2.12486635383602       -1.18161398869108
C           -2.25590295272939        2.61964178097635       -2.57190754406404
H            4.29202173921013       -2.17220529717100       -2.26063084252756
H            2.84458828270954       -1.36897210754305       -2.88251417564836
H            4.38845235614176       -1.18259607649328       -3.72804594085471
H            3.81982263195352        0.84916322321383       -2.39514733917449
H            5.31938995709824        0.07433139409516       -1.79715884699672
H            1.35741390963153        2.12645121628632        1.39711701034891
H            2.04228617547988        1.50315436596942        2.91977665760996
H            3.44305842099406        3.35663284748088        2.03263491650036
H            4.35109542414349        1.83451941582384        1.96320700361198
H            3.62709533854965        2.50460271955597        0.49251619750441
H            0.06751682705806       -1.17780106843767        1.47196980468175
H           -0.00772056322251       -2.97009742521026        1.30915240420192
H           -4.99676719572031       -1.80911817989600        1.07469501661852
H           -3.50671564466893       -1.62780523527011        2.03899440661532
H           -5.47405817544946       -0.73307283269566        3.27372981126810
H           -4.33135929371446        0.56410961873723        2.89595478588944
H           -5.81141755571675        0.38542814756550        1.94392542406234
H           -3.66053601091358        2.18769423760240       -0.97375344788616
H           -2.03828250167452        2.67968537291353       -0.41553631780808
H           -1.18885254403195        2.51221077877383       -2.75105962163321
H           -2.79671756138462        2.03852419654962       -3.31259569000538
H           -2.53296330451657        3.66527670263255       -2.65648569080124
41
 energy: -65.053428171721 gnorm: 0.001633654351 xtb: 6.7.1 (edcfbbe)
C            3.92478599501604       -1.27707786067835       -2.75519151595156
C            4.24632771139017       -0.04843457961890       -1.93008652535792
O            3.74529445849103       -0.14272572530252       -0.58547677173237
P            2.20675872338051       -0.06935864802028       -0.19261635311938
S            1.12689499849098        1.15192301375669       -1.28949645714304
O            2.26797969381661        0.26934374727898        1.35452881048613