      -----------------------------------------------------------      
     |                   =====================                   |     
     |                           x T B                           |     
     |                   =====================                   |     
     |                         S. Grimme                         |     
     |          Mulliken Center for Theoretical Chemistry        |     
     |                    University of Bonn                     |     
      -----------------------------------------------------------      

   * xtb version 6.7.1 (edcfbbe) compiled by 'albert@albert-system' on 2024-07-22

   xtb is free software: you can redistribute it and/or modify it under
   the terms of the GNU Lesser General Public License as published by
   the Free Software Foundation, either version 3 of the License, or
   (at your option) any later version.
   
   xtb is distributed in the hope that it will be useful,
   but WITHOUT ANY WARRANTY; without even the implied warranty of
   MERCHANTABILITY or FITNESS FOR A PARTICULAR PURPOSE.  See the
   GNU Lesser General Public License for more details.
   
   Cite this work as:
   * C. Bannwarth, E. Caldeweyher, S. Ehlert, A. Hansen, P. Pracht,
     J. Seibert, S. Spicher, S. Grimme, WIREs Comput. Mol. Sci., 2020, 11,
     e01493. DOI: 10.1002/wcms.1493
   
   for GFN2-xTB:
   * C. Bannwarth, S. Ehlert and S. Grimme., J. Chem. Theory Comput., 2019,
     15, 1652-1671. DOI: 10.1021/acs.jctc.8b01176
   for GFN1-xTB:
   * S. Grimme, C. Bannwarth, P. Shushkov, J. Chem. Theory Comput., 2017,
     13, 1989-2009. DOI: 10.1021/acs.jctc.7b00118
   for GFN0-xTB:
   * P. Pracht, E. Caldeweyher, S. Ehlert, S. Grimme, ChemRxiv, 2019, preprint.
     DOI: 10.26434/chemrxiv.8326202.v1
   for GFN-FF:
   * S. Spicher and S. Grimme, Angew. Chem. Int. Ed., 2020, 59, 15665-15673.
     DOI: 10.1002/anie.202004239
   
   for ALPB and GBSA implicit solvation:
   * S. Ehlert, M. Stahn, S. Spicher, S. Grimme, J. Chem. Theory Comput.,
     2021, 17, 4250-4261. DOI: 10.1021/acs.jctc.1c00471
   
   for ddCOSMO and CPCM-X implicit solvation:
   * M. Stahn, S. Ehlert, S. Grimme, J. Phys. Chem. A,
     2023, XX, XXXX-XXXX. DOI: 10.1021/acs.jpca.3c04382
   
   for DFT-D4:
   * E. Caldeweyher, C. Bannwarth and S. Grimme, J. Chem. Phys., 2017,
     147, 034112. DOI: 10.1063/1.4993215
   * E. Caldeweyher, S. Ehlert, A. Hansen, H. Neugebauer, S. Spicher,
     C. Bannwarth and S. Grimme, J. Chem. Phys., 2019, 150, 154122.
     DOI: 10.1063/1.5090222
   * E. Caldeweyher, J.-M. Mewes, S. Ehlert and S. Grimme, Phys. Chem. Chem. Phys.
     2020, 22, 8499-8512. DOI: 10.1039/D0CP00502A
   
   for sTDA-xTB:
   * S. Grimme and C. Bannwarth, J. Chem. Phys., 2016, 145, 054103.
     DOI: 10.1063/1.4959605
   
   in the mass-spec context:
   * V. Asgeirsson, C. Bauer and S. Grimme, Chem. Sci., 2017, 8, 4879.
     DOI: 10.1039/c7sc00601b
   * J. Koopman and S. Grimme, ACS Omega 2019, 4, 12, 15120-15133.
     DOI: 10.1021/acsomega.9b02011
   
   for metadynamics refer to:
   * S. Grimme, J. Chem. Theory Comput., 2019, 155, 2847-2862
     DOI: 10.1021/acs.jctc.9b00143
   
   for SPH calculations refer to:
   * S. Spicher and S. Grimme, J. Chem. Theory Comput., 2021, 17, 1701-1714
     DOI: 10.1021/acs.jctc.0c01306
   
   for ONIOM refer to:
   * C. Plett, A. Katbashev, S. Ehlert, S. Grimme, M. Bursch,
     Phys. Chem. Chem. Phys., 2023, 25, 17860-17868. DOI: 10.1039/D3CP02178E
   
   for DIPRO refer to:
   * J. Kohn, N. Gildemeister, S. Grimme, D. Fazzi, A. Hansen,
     J. Chem. Phys., 2023, just accepted.
   
   for PTB refer to:
   * S. Grimme, M. Mueller, A. Hansen, J. Chem. Phys., 2023, 158, 124111.
     DOI: 10.1063/5.0137838
   
   with help from (in alphabetical order)
   P. Atkinson, C. Bannwarth, F. Bohle, G. Brandenburg, E. Caldeweyher
   M. Checinski, S. Dohm, S. Ehlert, S. Ehrlich, I. Gerasimov, C. Hölzer
   A. Katbashev, J. Kohn, J. Koopman, C. Lavigne, S. Lehtola, F. März, M. Müller,
   F. Musil, H. Neugebauer, J. Pisarek, C. Plett, P. Pracht, F. Pultar,
   J. Seibert, P. Shushkov, S. Spicher, M. Stahn, M. Steiner, T. Strunk,
   J. Stückrath, T. Rose, and J. Unsleber
   
 * started run on 2025/04/09 at 07:31:37.432     
   ID    Z sym.   atoms
    1    6 C      1, 2, 4, 6, 7, 9, 12, 13, 18, 20
    2    8 O      3, 5, 10, 11, 17, 19
    3    1 H      8, 21-38
    4   16 S      14, 16
    5   15 P      15

           -------------------------------------------------
          |                Calculation Setup                |
           -------------------------------------------------

          program call               : /software/projects/pawsey0265/mwang1/xtb/bin/xtb gas.coord --gfn2 --sp --chrg 0 --norestart --parallel 1
          hostname                   : nid002043
          coordinate file            : gas.coord
          omp threads                :                     1


           -------------------------------------------------
          |                 G F N 2 - x T B                 |
           -------------------------------------------------

        Reference                      10.1021/acs.jctc.8b01176
      * Hamiltonian:
        H0-scaling (s, p, d)           1.850000    2.230000    2.230000
        zeta-weighting                 0.500000
      * Dispersion:
        s8                             2.700000
        a1                             0.520000
        a2                             5.000000
        s9                             5.000000
      * Repulsion:
        kExp                           1.500000    1.000000
        rExp                           1.000000
      * Coulomb:
        alpha                          2.000000
        third order                    shell-resolved
        anisotropic                    true
        a3                             3.000000
        a5                             4.000000
        cn-shift                       1.200000
        cn-exp                         4.000000
        max-rad                        5.000000


          ...................................................
          :                      SETUP                      :
          :.................................................:
          :  # basis functions                 113          :
          :  # atomic orbitals                 110          :
          :  # shells                           60          :
          :  # electrons                       112          :
          :  max. iterations                   250          :
          :  Hamiltonian                  GFN2-xTB          :
          :  restarted?                      false          :
          :  GBSA solvation                  false          :
          :  PC potential                    false          :
          :  electronic temp.          300.0000000     K    :
          :  accuracy                    1.0000000          :
          :  -> integral cutoff          0.2500000E+02      :
          :  -> integral neglect         0.1000000E-07      :
          :  -> SCF convergence          0.1000000E-05 Eh   :
          :  -> wf. convergence          0.1000000E-03 e    :
          :  Broyden damping             0.4000000          :
          :  net charge                          0          :
          :  unpaired electrons                  0          :
          ...................................................

 iter      E             dE          RMSdq      gap      omega  full diag
   1    -65.0387551 -0.650388E+02  0.591E+00    4.18       0.0  T
   2    -65.1976371 -0.158882E+00  0.347E+00    2.92       1.0  T
   3    -65.2087118 -0.110747E-01  0.146E+00    2.94       1.0  T
   4    -65.2159715 -0.725968E-02  0.491E-01    2.65       1.0  T
   5    -65.2173341 -0.136260E-02  0.218E-01    2.78       1.0  T
   6    -65.2174711 -0.137013E-03  0.937E-02    2.77       1.0  T
   7    -65.2174857 -0.146035E-04  0.328E-02    2.78       1.0  T
   8    -65.2174902 -0.453991E-05  0.174E-02    2.78       1.0  T
   9    -65.2174915 -0.128507E-05  0.371E-03    2.78       4.4  T
  10    -65.2174916 -0.920242E-07  0.189E-03    2.78       8.6  T
  11    -65.2174916 -0.450271E-08  0.438E-04    2.78      37.1  T
  12    -65.2174916 -0.530264E-09  0.168E-04    2.78      96.8  T

   *** convergence criteria satisfied after 12 iterations ***

         #    Occupation            Energy/Eh            Energy/eV
      -------------------------------------------------------------
         1        2.0000           -0.7621147             -20.7382
       ...           ...                  ...                  ...
        50        2.0000           -0.4487798             -12.2119
        51        2.0000           -0.4424694             -12.0402
        52        2.0000           -0.4305986             -11.7172
        53        2.0000           -0.4237407             -11.5306
        54        2.0000           -0.3989852             -10.8569
        55        2.0000           -0.3646009              -9.9213
        56        2.0000           -0.3611869              -9.8284 (HOMO)
        57                         -0.2590011              -7.0478 (LUMO)
        58                         -0.2440582              -6.6412
        59                         -0.2265156              -6.1638
        60                         -0.1818490              -4.9484
        61                         -0.1621811              -4.4132
       ...                                ...                  ...
       110                          1.3031811              35.4614
      -------------------------------------------------------------
                  HL-Gap            0.1021859 Eh            2.7806 eV
             Fermi-level           -0.3100940 Eh           -8.4381 eV

 SCC (total)                   0 d,  0 h,  0 min,  0.088 sec
 SCC setup                      ...        0 min,  0.000 sec (  0.534%)
 Dispersion                     ...        0 min,  0.000 sec (  0.567%)
 classical contributions        ...        0 min,  0.000 sec (  0.117%)
 integral evaluation            ...        0 min,  0.037 sec ( 42.088%)
 iterations                     ...        0 min,  0.028 sec ( 31.692%)
 molecular gradient             ...        0 min,  0.022 sec ( 24.652%)
 printout                       ...        0 min,  0.000 sec (  0.316%)

         :::::::::::::::::::::::::::::::::::::::::::::::::::::
         ::                     SUMMARY                     ::
         :::::::::::::::::::::::::::::::::::::::::::::::::::::
         :: total energy             -64.645045494252 Eh    ::
         :: gradient norm              0.056462934016 Eh/a0 ::
         :: HOMO-LUMO gap              2.780618950301 eV    ::
         ::.................................................::
         :: SCC energy               -65.216998030500 Eh    ::
         :: -> isotropic ES            0.143818281094 Eh    ::
         :: -> anisotropic ES         -0.009363595492 Eh    ::
         :: -> anisotropic XC          0.016881574694 Eh    ::
         :: -> dispersion             -0.041570698651 Eh    ::
         :: repulsion energy           0.571952536248 Eh    ::
         :: add. restraining           0.000000000000 Eh    ::
         :: total charge              -0.000000000000 e     ::
         :::::::::::::::::::::::::::::::::::::::::::::::::::::

           -------------------------------------------------
          |                Property Printout                |
           -------------------------------------------------

    * Orbital Energies and Occupations

         #    Occupation            Energy/Eh            Energy/eV
      -------------------------------------------------------------
         1        2.0000           -0.7621147             -20.7382
       ...           ...                  ...                  ...
        44        2.0000           -0.4766853             -12.9713
        45        2.0000           -0.4742255             -12.9043
        46        2.0000           -0.4633805             -12.6092
        47        2.0000           -0.4629296             -12.5970
        48        2.0000           -0.4612238             -12.5505
        49        2.0000           -0.4544059             -12.3650
        50        2.0000           -0.4487798             -12.2119
        51        2.0000           -0.4424694             -12.0402
        52        2.0000           -0.4305986             -11.7172
        53        2.0000           -0.4237407             -11.5306
        54        2.0000           -0.3989852             -10.8569
        55        2.0000           -0.3646009              -9.9213
        56        2.0000           -0.3611869              -9.8284 (HOMO)
        57                         -0.2590011              -7.0478 (LUMO)
        58                         -0.2440582              -6.6412
        59                         -0.2265156              -6.1638
        60                         -0.1818490              -4.9484
        61                         -0.1621811              -4.4132
        62                         -0.1368395              -3.7236
        63                         -0.1079325              -2.9370
        64                         -0.0408848              -1.1125
        65                         -0.0374363              -1.0187
        66                         -0.0184885              -0.5031
        67                         -0.0139721              -0.3802
       ...                                ...                  ...
       110                          1.3031811              35.4614
      -------------------------------------------------------------
                  HL-Gap            0.1021859 Eh            2.7806 eV
             Fermi-level           -0.3100940 Eh           -8.4381 eV

     #   Z          covCN         q      C6AA      α(0)
     1   6 C        3.751    -0.115    22.772     6.805
     2   6 C        3.694     0.074    19.510     6.319
     3   8 O        1.703    -0.252    18.179     5.757
     4   6 C        2.717     0.364    20.833     7.472
     5   8 O        0.856    -0.415    21.975     6.285
     6   6 C        3.842    -0.089    22.169     6.698
     7   6 C        3.867     0.018    20.230     6.396
     8   1 H        0.924     0.084     1.943     2.180
     9   6 C        2.801     0.370    20.731     7.459
    10   8 O        0.856    -0.395    21.585     6.229
    11   8 O        1.703    -0.261    18.324     5.779
    12   6 C        3.695     0.079    19.436     6.307
    13   6 C        3.751    -0.114    22.740     6.801
    14  16 S        2.015    -0.172   148.338    20.499
    15  15 P        3.896     0.383   144.317    21.580
    16  16 S        0.926    -0.355   154.520    21.025
    17   8 O        1.656    -0.253    18.201     5.759
    18   6 C        3.836     0.029    20.053     6.371
    19   8 O        1.654    -0.232    17.866     5.706
    20   6 C        3.825     0.032    20.017     6.367
    21   1 H        0.925     0.056     2.243     2.342
    22   1 H        0.925     0.057     2.237     2.339
    23   1 H        0.925     0.060     2.194     2.317
    24   1 H        0.925     0.065     2.137     2.286
    25   1 H        0.924     0.067     2.124     2.279
    26   1 H        0.924     0.094     1.845     2.124
    27   1 H        0.925     0.084     1.942     2.179
    28   1 H        0.924     0.067     2.118     2.276
    29   1 H        0.924     0.054     2.267     2.355
    30   1 H        0.925     0.072     2.060     2.245
    31   1 H        0.925     0.053     2.280     2.361
    32   1 H        0.925     0.049     2.328     2.386
    33   1 H        0.925     0.078     1.996     2.209
    34   1 H        0.925     0.066     2.130     2.282
    35   1 H        0.924     0.076     2.019     2.222
    36   1 H        0.924     0.066     2.126     2.280
    37   1 H        0.925     0.074     2.041     2.234
    38   1 H        0.925     0.081     1.973     2.197

 Mol. C6AA /au·bohr⁶  :      18369.491836
 Mol. C8AA /au·bohr⁸  :     515090.371722
 Mol. α(0) /au        :        208.707509


Wiberg/Mayer (AO) data.
largest (>0.10) Wiberg bond orders for each atom

 ---------------------------------------------------------------------------
     #   Z sym  total        # sym  WBO       # sym  WBO       # sym  WBO
 ---------------------------------------------------------------------------
     1   6 C    3.991 --     2 C    1.015    21 H    0.986    23 H    0.984
                            22 H    0.982
     2   6 C    3.915 --     1 C    1.015    24 H    0.972    25 H    0.970
                             3 O    0.920
     3   8 O    2.331 --     4 C    1.175     2 C    0.920     5 O    0.176
     4   6 C    3.923 --     5 O    1.725     3 O    1.175     6 C    0.962
     5   8 O    2.042 --     4 C    1.725     3 O    0.176
     6   6 C    3.991 --     7 C    1.001     4 C    0.962    27 H    0.960
                            26 H    0.945
     7   6 C    3.969 --     6 C    1.001     8 H    0.956     9 C    0.948
                            14 S    0.940
     8   1 H    0.993 --     7 C    0.956
     9   6 C    3.927 --    10 O    1.732    11 O    1.158     7 C    0.948
    10   8 O    2.060 --     9 C    1.732    11 O    0.171
    11   8 O    2.316 --     9 C    1.158    12 C    0.921    10 O    0.171
    12   6 C    3.917 --    13 C    1.014    29 H    0.972    28 H    0.969
                            11 O    0.921
    13   6 C    3.990 --    12 C    1.014    32 H    0.987    31 H    0.982
                            30 H    0.982
    14  16 S    2.255 --    15 P    0.953     7 C    0.940    16 S    0.144
    15  15 P    5.264 --    16 S    1.595    19 O    1.311    17 O    1.280
                            14 S    0.953
    16  16 S    1.920 --    15 P    1.595    14 S    0.144
    17   8 O    2.387 --    15 P    1.280    18 C    0.930
    18   6 C    3.909 --    34 H    0.981    33 H    0.979    35 H    0.976
                            17 O    0.930
    19   8 O    2.403 --    15 P    1.311    20 C    0.914
    20   6 C    3.912 --    37 H    0.981    38 H    0.979    36 H    0.976
                            19 O    0.914
    21   1 H    0.997 --     1 C    0.986
    22   1 H    0.996 --     1 C    0.982
    23   1 H    0.996 --     1 C    0.984
    24   1 H    0.995 --     2 C    0.972
    25   1 H    0.996 --     2 C    0.970
    26   1 H    0.991 --     6 C    0.945
    27   1 H    0.993 --     6 C    0.960
    28   1 H    0.995 --    12 C    0.969
    29   1 H    0.997 --    12 C    0.972
    30   1 H    0.995 --    13 C    0.982
    31   1 H    0.997 --    13 C    0.982
    32   1 H    0.998 --    13 C    0.987
    33   1 H    0.994 --    18 C    0.979
    34   1 H    0.996 --    18 C    0.981
    35   1 H    0.994 --    18 C    0.976
    36   1 H    0.996 --    20 C    0.976
    37   1 H    0.995 --    20 C    0.981
    38   1 H    0.993 --    20 C    0.979
 ---------------------------------------------------------------------------

Topologies differ in total number of bonds
Writing topology from bond orders to xtbtopo.mol

molecular dipole:
                 x           y           z       tot (Debye)
 q only:        0.887      -2.000       1.988
   full:        0.958      -1.869       2.257       7.836
molecular quadrupole (traceless):
                xx          xy          yy          xz          yz          zz
 q only:       21.619       2.879     -14.934      -6.728      15.939      -6.685
  q+dip:       20.964      -0.340     -14.263     -10.529      17.679      -6.701
   full:       22.475       0.221     -15.629     -10.583      18.208      -6.846


           -------------------------------------------------
          | TOTAL ENERGY              -64.645045494252 Eh   |
          | GRADIENT NORM               0.056462934016 Eh/α |
          | HOMO-LUMO GAP               2.780618950301 eV   |
           -------------------------------------------------

------------------------------------------------------------------------
 * finished run on 2025/04/09 at 07:31:37.586     
------------------------------------------------------------------------
 total:
 * wall-time:     0 d,  0 h,  0 min,  0.153 sec
 *  cpu-time:     0 d,  0 h,  0 min,  0.087 sec
 * ratio c/w:     0.567 speedup
 SCF:
 * wall-time:     0 d,  0 h,  0 min,  0.088 sec
 *  cpu-time:     0 d,  0 h,  0 min,  0.068 sec
 * ratio c/w:     0.773 speedup

