
                                 *****************
                                 * O   R   C   A *
                                 *****************

                                            #,                                       
                                            ###                                      
                                            ####                                     
                                            #####                                    
                                            ######                                   
                                           ########,                                 
                                     ,,################,,,,,                         
                               ,,#################################,,                 
                          ,,##########################################,,             
                       ,#########################################, ''#####,          
                    ,#############################################,,   '####,        
                  ,##################################################,,,,####,       
                ,###########''''           ''''###############################       
              ,#####''   ,,,,##########,,,,          '''####'''          '####       
            ,##' ,,,,###########################,,,                        '##       
           ' ,,###''''                  '''############,,,                           
         ,,##''                                '''############,,,,        ,,,,,,###''
      ,#''                                            '''#######################'''  
     '                                                          ''''####''''         
             ,#######,   #######,   ,#######,      ##                                
            ,#'     '#,  ##    ##  ,#'     '#,    #''#        ,####,   ,####,        
            ##       ##  ##   ,#'  ##            #'  '#       #'       #'  '#        
            ##       ##  #######   ##           ,######,      #####,   #    #        
            '#,     ,#'  ##    ##  '#,     ,#' ,#      #,     #,   #   #,  ,#        
             '#######'   ##     ##  '#######'  #'      '#     '####' # '####'        



                #########################################################
                #                        -***-                          #
                #          Department of theory and spectroscopy        #
                #                                                       #
                #                      Frank Neese                      #
                #                                                       #
                #     Directorship, Architecture, Infrastructure        #
                #                    SHARK, DRIVERS                     #
                #        Core code/Algorithms in most modules           #
                #                                                       #
                #        Max Planck Institute fuer Kohlenforschung      #
                #                Kaiser Wilhelm Platz 1                 #
                #                 D-45470 Muelheim/Ruhr                 #
                #                      Germany                          #
                #                                                       #
                #                  All rights reserved                  #
                #                        -***-                          #
                #########################################################


                         Program Version 6.0.0  -   RELEASE  -


 With contributions from (in alphabetic order):
   Daniel Aravena         : Magnetic Suceptibility
   Michael Atanasov       : Ab Initio Ligand Field Theory (pilot matlab implementation)
   Alexander A. Auer      : GIAO ZORA, VPT2 properties, NMR spectrum
   Ute Becker             : All parallelization in ORCA, NUMFREQ, NUMCALC
   Giovanni Bistoni       : ED, misc. LED, open-shell LED, HFLD
   Martin Brehm           : Molecular dynamics
   Dmytro Bykov           : pre 5.0 version of the SCF Hessian
   Marcos Casanova-Páez   : Triplet and SCS-CIS(D). UHF-(DLPNO)-IP/EA/STEOM-CCSD. UHF-CVS-IP/STEOM-CCSD
   Vijay G. Chilkuri      : MRCI spin determinant printing, contributions to CSF-ICE
   Pauline Colinet        : FMM embedding
   Dipayan Datta          : RHF DLPNO-CCSD density
   Achintya Kumar Dutta   : EOM-CC, STEOM-CC
   Nicolas Foglia         : Exact transition moments, OPA infrastructure, MCD improvements
   Dmitry Ganyushin       : Spin-Orbit,Spin-Spin,Magnetic field MRCI
   Miquel Garcia          : C-PCM and meta-GGA Hessian, CCSD/C-PCM, Gaussian charge scheme
   Tiago L. C. Gouveia    : GS-ROHF, GS-ROCIS
   Yang Guo               : DLPNO-NEVPT2, F12-NEVPT2, CIM, IAO-localization
   Andreas Hansen         : Spin unrestricted coupled pair/coupled cluster methods
   Ingolf Harden          : AUTO-CI MPn and infrastructure 
   Benjamin Helmich-Paris : MC-RPA, TRAH-(SCF,CASSCF), AVAS, COSX integrals, SCF dyn. polar.
   Lee Huntington         : MR-EOM, pCC
   Robert Izsak           : Overlap fitted RIJCOSX, COSX-SCS-MP3, EOM
   Riya Kayal             : Wick's Theorem for AUTO-CI, AUTO-CI UHF-CCSDT
   Emily Kempfer          : AUTO-CI, RHF CISDT and CCSDT
   Christian Kollmar      : KDIIS, OOCD, Brueckner-CCSD(T), CCSD density, CASPT2, CASPT2-K, improved NEVPT2
   Axel Koslowski         : Symmetry handling
   Simone Kossmann        : Meta GGA functionals, TD-DFT gradient, OOMP2, (MP2 Hessian; deprecated post 5.0)
   Lucas Lang             : DCDCAS
   Marvin Lechner         : AUTO-CI (C++ implementation), FIC-MRCC
   Spencer Leger          : CASSCF response
   Dagmar Lenk            : GEPOL surface, SMD, ORCA-2-JSON
   Dimitrios Liakos       : Extrapolation schemes; Compound Job, initial MDCI parallelization
   Dimitrios Manganas     : Further ROCIS development; embedding schemes. LFT, Crystal Embedding
   Dimitrios Pantazis     : SARC Basis sets
   Anastasios Papadopoulos: AUTO-CI, single reference methods and gradients
   Taras Petrenko         : pre 6.0 DFT Hessian and TD-DFT gradient, (ASA, deprecated), ECA, 1-Electron XAS/XES, NRVS
   Peter Pinski           : DLPNO-MP2, DLPNO-MP2 Gradient
   Christoph Reimann      : Effective Core Potentials
   Marius Retegan         : Local ZFS, SOC
   Christoph Riplinger    : Optimizer, TS searches, QM/MM, DLPNO-CCSD(T), (RO)-DLPNO pert. Triples
   Michael Roemelt        : Original ROCIS implementation
   Masaaki Saitow         : Open-shell DLPNO-CCSD energy and density
   Barbara Sandhoefer     : DKH picture change effects
   Kantharuban Sivalingam : CASSCF convergence/infrastructure, NEVPT2 and variants, FIC-MRCI
   Bernardo de Souza      : ESD, SOC TD-DFT
   Georgi Stoychev        : AutoAux, RI-MP2 NMR, DLPNO-MP2 response, X2C
   Van Anh Tran           : RI-MP2 g-tensors
   Willem Van den Heuvel  : Paramagnetic NMR
   Zikuan Wang            : NOTCH, Electric field optimization 
   Frank Wennmohs         : Technical directorship and infrastructure
   Hang Xu                : AUTO-CI-Response properties 


 We gratefully acknowledge several colleagues who have allowed us to
 interface, adapt or use parts of their codes:
   Stefan Grimme, W. Hujo, H. Kruse, P. Pracht,  : VdW corrections, initial TS optimization,
                  C. Bannwarth, S. Ehlert,         DFT functionals, gCP, sTDA/sTD-DF
                  L. Wittmann, M. Mueller
   Ed Valeev, F. Pavosevic, A. Kumar             : LibInt (2-el integral package), F12 methods
   Garnet Chan, S. Sharma, J. Yang, R. Olivares  : DMRG
   Ulf Ekstrom                                   : XCFun DFT Library
   Mihaly Kallay                                 : mrcc  (arbitrary order and MRCC methods)
   Frank Weinhold                                : gennbo (NPA and NBO analysis)
   Simon Mueller                                 : openCOSMO-RS
   Christopher J. Cramer and Donald G. Truhlar   : smd solvation model
   Lars Goerigk                                  : TD-DFT with DH, B97 family of functionals
   V. Asgeirsson, H. Jonsson                     : NEB implementation
   FAccTs GmbH                                   : IRC, NEB, NEB-TS, DLPNO-Multilevel, CI-OPT
                                                   MM, QMMM, 2- and 3-layer-ONIOM, Crystal-QMMM,
                                                   LR-CPCM, SF, NACMEs, symmetry and pop. for TD-DFT,
                                                   nearIR, NL-DFT gradient (VV10), updates on ESD,
                                                   ML-optimized integration grids, MBIS, APM,
                                                   GOAT, DOCKER, SOLVATOR, interface openCOSMO-RS
   S Lehtola, MJT Oliveira, MAL Marques          : LibXC Library
   Liviu Ungur et al                             : ANISO software


 Your calculation uses the libint2 library for the computation of 2-el integrals
 For citations please refer to: http://libint.valeyev.net

 Your ORCA version has been built with support for libXC version: 6.2.2
 For citations please refer to: https://libxc.gitlab.io

 This ORCA versions uses:
   CBLAS   interface :  Fast vector & matrix operations
   LAPACKE interface :  Fast linear algebra routines
   SCALAPACK package :  Parallel linear algebra routines
   Shared memory     :  Shared parallel matrices
   BLAS/LAPACK       :  OpenBLAS 0.3.27  USE64BITINT DYNAMIC_ARCH NO_AFFINITY SkylakeX SINGLE_THREADED
        Core in use  :  SkylakeX
   Copyright (c) 2011-2014, The OpenBLAS Project


Your calculation utilizes the geometrical counterpoise correction gCP
Please cite in your paper:
H.Kruse, S. Grimme J.Chem.Phys., 136, (2012), 154101 
   

Your calculation utilizes the DFT-NL dispersion correction.
Cite in your paper:
Vydrov, O. A.; Van Voorhis, T. J. Chem. Phys. 2010, 133, 244103
Hujo, W.; Grimme, S. J. Chem. Theory Comput. 2011, 7, 3866 
   

Your calculation utilizes the SMD solvation module
Please cite in your paper:
A.V. Marenich, C.J. Cramer, D.G. Truhlar J. Phys. Chem. B, 113, (2009), 6378 

================================================================================

----- Orbital basis set information -----
Your calculation utilizes the basis: def2-TZVP
   F. Weigend and R. Ahlrichs, Phys. Chem. Chem. Phys. 7, 3297 (2005).

----- AuxJ basis set information -----
Your calculation utilizes the auxiliary basis: def2/J
   F. Weigend, Phys. Chem. Chem. Phys. 8, 1057 (2006).

================================================================================
                                        WARNINGS
                       Please study these warnings very carefully!
================================================================================


================================================================================
                                       INPUT FILE
================================================================================
NAME = sp_solv.inp
|  1> ! wb97x-v def2-tzvp def2/J RIJCOSX DEFGRID2 scfconv7 GCP(DFT/TZ) printgap
|  2> %output
|  3>     printlevel normal
|  4> end
|  5> %cpcm
|  6>     smd true
|  7>     smdsolvent "water"
|  8> end
|  9> * xyz 0 1
| 10> C -1.47065417502438 -6.218287316186145e-05 0.10682142050833114
| 11> C -0.05940348140715545 2.0342472976440778e-05 -0.3804557319340477
| 12> F 0.6212226263646573 -1.1059555648043033 0.11272783643304399
| 13> F 0.6210867160995083 1.10609383678193 0.11269462651396918
| 14> H -1.984126667403056 -0.8883853778562236 -0.2692621074826725
| 15> H -1.4891972709619832 3.8234403058006737e-05 1.1999805614930392
| 16> H -1.984294824312938 0.8880933296318247 -0.2694339716270661
| 17> H 0.06142608993318935 1.4714650681597165e-05 -1.467872237296453
| 18> *
| 19> 
| 20>                          ****END OF INPUT****
================================================================================

                       ****************************
                       * Single Point Calculation *
                       ****************************

---------------------------------
CARTESIAN COORDINATES (ANGSTROEM)
---------------------------------
  C     -1.470654   -0.000062    0.106821
  C     -0.059403    0.000020   -0.380456
  F      0.621223   -1.105956    0.112728
  F      0.621087    1.106094    0.112695
  H     -1.984127   -0.888385   -0.269262
  H     -1.489197    0.000038    1.199981
  H     -1.984295    0.888093   -0.269434
  H      0.061426    0.000015   -1.467872

----------------------------
CARTESIAN COORDINATES (A.U.)
----------------------------
  NO LB      ZA    FRAG     MASS         X           Y           Z
   0 C     6.0000    0    12.011   -2.779134   -0.000118    0.201863
   1 C     6.0000    0    12.011   -0.112256    0.000038   -0.718957
   2 F     9.0000    0    18.998    1.173941   -2.089953    0.213025
   3 F     9.0000    0    18.998    1.173684    2.090214    0.212962
   4 H     1.0000    0     1.008   -3.749456   -1.678805   -0.508832
   5 H     1.0000    0     1.008   -2.814175    0.000072    2.267635
   6 H     1.0000    0     1.008   -3.749774    1.678253   -0.509156
   7 H     1.0000    0     1.008    0.116078    0.000028   -2.773877

--------------------------------
INTERNAL COORDINATES (ANGSTROEM)
--------------------------------
 C      0   0   0     0.000000000000     0.00000000     0.00000000
 C      1   0   0     1.493006212424     0.00000000     0.00000000
 F      2   1   0     1.389123694336   110.31742316     0.00000000
 F      2   1   3     1.389123018222   110.31763761   243.78788741
 H      1   2   3     1.092799578697   109.38194896   297.61261999
 H      1   2   3     1.093316406174   110.02059431    58.11088252
 H      1   2   3     1.092801469209   109.38217325   178.60964258
 H      2   1   3     1.094108971482   115.38926689   121.89404304

---------------------------
INTERNAL COORDINATES (A.U.)
---------------------------
 C      0   0   0     0.000000000000     0.00000000     0.00000000
 C      1   0   0     2.821372857725     0.00000000     0.00000000
 F      2   1   0     2.625063348436   110.31742316     0.00000000
 F      2   1   3     2.625062070765   110.31763761   243.78788741
 H      1   2   3     2.065091923002   109.38194896   297.61261999
 H      1   2   3     2.066068585392   110.02059431    58.11088252
 H      1   2   3     2.065095495552   109.38217325   178.60964258
 H      2   1   3     2.067566316767   115.38926689   121.89404304

---------------------
BASIS SET INFORMATION
---------------------
There are 3 groups of distinct atoms

 Group   1 Type C   : 11s6p2d1f contracted to 5s3p2d1f pattern {62111/411/11/1}
 Group   2 Type F   : 11s6p2d1f contracted to 5s3p2d1f pattern {62111/411/11/1}
 Group   3 Type H   : 5s1p contracted to 3s1p pattern {311/1}

Atom   0C    basis set group =>   1
Atom   1C    basis set group =>   1
Atom   2F    basis set group =>   2
Atom   3F    basis set group =>   2
Atom   4H    basis set group =>   3
Atom   5H    basis set group =>   3
Atom   6H    basis set group =>   3
Atom   7H    basis set group =>   3
---------------------------------
AUXILIARY/J BASIS SET INFORMATION
---------------------------------
There are 3 groups of distinct atoms

 Group   1 Type C   : 12s5p4d2f1g contracted to 6s4p3d1f1g pattern {711111/2111/211/2/1}
 Group   2 Type F   : 12s5p4d2f1g contracted to 6s4p3d1f1g pattern {711111/2111/211/2/1}
 Group   3 Type H   : 5s2p1d contracted to 3s1p1d pattern {311/2/1}

Atom   0C    basis set group =>   1
Atom   1C    basis set group =>   1
Atom   2F    basis set group =>   2
Atom   3F    basis set group =>   2
Atom   4H    basis set group =>   3
Atom   5H    basis set group =>   3
Atom   6H    basis set group =>   3
Atom   7H    basis set group =>   3

Checking for AutoStart:
The File: sp_solv.gbw exists
Trying to determine its content:
     ... Fine, the file contains calculation information
     ... Fine, the calculation information was read
     ... Fine, the file contains a basis set
     ... Fine, the basis set was read
     ... Fine, the file contains a geometry
     ... Fine, the geometry was read
     ... Fine, the file contains a set of orbitals
     ... Fine, the orbitals can be read
     => possible old guess file was deleted
     => GBW file was renamed to GES file
     => GES file is set as startup file
     => Guess is set to MORead
     ... now leaving AutoStart

------------------------------------------------------------------------------
                             ORCA STARTUP CALCULATIONS
                           -- RI-GTO INTEGRALS CHOSEN --
------------------------------------------------------------------------------
------------------------------------------------------------------------------
                   ___                                                        
                  /   \      - P O W E R E D   B Y -                         
                 /     \                                                     
                 |  |  |   _    _      __       _____    __    __             
                 |  |  |  | |  | |    /  \     |  _  \  |  |  /  |          
                  \  \/   | |  | |   /    \    | | | |  |  | /  /          
                 / \  \   | |__| |  /  /\  \   | |_| |  |  |/  /          
                |  |  |   |  __  | /  /__\  \  |    /   |      \           
                |  |  |   | |  | | |   __   |  |    \   |  |\   \          
                \     /   | |  | | |  |  |  |  | |\  \  |  | \   \       
                 \___/    |_|  |_| |__|  |__|  |_| \__\ |__|  \__/        
                                                                              
                      - O R C A' S   B I G   F R I E N D -                    
                                      &                                       
                       - I N T E G R A L  F E E D E R -                       
                                                                              
 v1 FN, 2020, v2 2021, v3 2022-2024                                           
------------------------------------------------------------------------------


----------------------
SHARK INTEGRAL PACKAGE
----------------------

Number of atoms                             ...      8
Number of basis functions                   ...    148
Number of shells                            ...     60
Maximum angular momentum                    ...      3
Integral batch strategy                     ... SHARK/LIBINT Hybrid
RI-J (if used) integral strategy            ... SPLIT-RIJ (Revised 2003 algorithm where possible)
Printlevel                                  ...      1
Contraction scheme used                     ... SEGMENTED contraction
Prescreening option                         ... SCHWARTZ
   Thresh                                   ... 3.000e-11
   Tcut                                     ... 1.000e-12
   Tpresel                                  ... 1.000e-12 
Coulomb Range Separation                    ... NOT USED
Exchange Range Separation                   ... Long Range
   Mu parameter                             ... 3.000e-01
   Scaling (regular/separated)              ... 1.670e-01 8.330e-01
Multipole approximations                    ... NOT USED
Finite Nucleus Model                        ... NOT USED
CABS basis                                  ... NOT available
Auxiliary Coulomb fitting basis             ... AVAILABLE
   # of basis functions in Aux-J            ...    240
   # of shells in Aux-J                     ...     80
   Maximum angular momentum in Aux-J        ...      4
Auxiliary J/K fitting basis                 ... NOT available
Auxiliary Correlation fitting basis         ... NOT available
Auxiliary 'external' fitting basis          ... NOT available

Checking pre-screening integrals            ... done (  0.0 sec) Dimension = 60
Check shell pair data                       ... done (  0.0 sec)
Shell pair information
Shell pair cut-off parameter TPreSel        ...   1.0e-12
Total number of shell pairs                 ...      1830
Shell pairs after pre-screening             ...      1787
Total number of primitive shell pairs       ...      5560
Primitive shell pairs kept                  ...      4414
          la=0 lb=0:    501 shell pairs
          la=1 lb=0:    506 shell pairs
          la=1 lb=1:    136 shell pairs
          la=2 lb=0:    248 shell pairs
          la=2 lb=1:    128 shell pairs
          la=2 lb=2:     36 shell pairs
          la=3 lb=0:    126 shell pairs
          la=3 lb=1:     64 shell pairs
          la=3 lb=2:     32 shell pairs
          la=3 lb=3:     10 shell pairs

Calculating one electron integrals          ... done (  0.0 sec)
Calculating RI/J V-Matrix + Cholesky decomp.... done (  0.0 sec)
Calculating Nuclear repulsion               ... done (  0.0 sec) ENN=    131.322359047167 Eh

Diagonalization of the overlap matrix:
Smallest eigenvalue                        ... 5.115e-04
Time for diagonalization                   ...    0.002 sec
Threshold for overlap eigenvalues          ... 1.000e-07
Number of eigenvalues below threshold      ... 0
Time for construction of square roots      ...    0.016 sec
Total time needed                          ...    0.025 sec

-------------------
DFT GRID GENERATION
-------------------

General Integration Accuracy     IntAcc      ... 4.388
Radial Grid Type                 RadialGrid  ... OptM3 with GC (2021)
Angular Grid (max. ang.)         AngularGrid ... 4 (Lebedev-302)
Angular grid pruning method      GridPruning ... 4 (adaptive)
Weight generation scheme         WeightScheme... mBecke (2022)
Basis function cutoff            BFCut       ... 1.0000e-11
Integration weight cutoff        WCut        ... 1.0000e-14
Partially contracted basis set               ... off
Rotationally invariant grid construction     ... off
Angular grids for H and He will be reduced by one unit

Total number of grid points                  ...    37372
Total number of batches                      ...      589
Average number of points per batch           ...       63
Average number of grid points per atom       ...     4672

--------------------
COSX GRID GENERATION
--------------------

GRIDX 1
-------
General Integration Accuracy     IntAcc      ... 3.816
Radial Grid Type                 RadialGrid  ... OptM3 with GC (2021)
Angular Grid (max. ang.)         AngularGrid ... 1 (Lebedev-50)
Angular grid pruning method      GridPruning ... 4 (adaptive)
Weight generation scheme         WeightScheme... mBecke (2022)
Basis function cutoff            BFCut       ... 1.0000e-11
Integration weight cutoff        WCut        ... 1.0000e-14
Partially contracted basis set               ... on
Rotationally invariant grid construction     ... off
Angular grids for H and He will be reduced by one unit

Total number of grid points                  ...     4784
Total number of batches                      ...       42
Average number of points per batch           ...      113
Average number of grid points per atom       ...      598
UseSFitting                                  ... on

GRIDX 2
-------
General Integration Accuracy     IntAcc      ... 4.020
Radial Grid Type                 RadialGrid  ... OptM3 with GC (2021)
Angular Grid (max. ang.)         AngularGrid ... 2 (Lebedev-110)
Angular grid pruning method      GridPruning ... 4 (adaptive)
Weight generation scheme         WeightScheme... mBecke (2022)
Basis function cutoff            BFCut       ... 1.0000e-11
Integration weight cutoff        WCut        ... 1.0000e-14
Partially contracted basis set               ... on
Rotationally invariant grid construction     ... off
Angular grids for H and He will be reduced by one unit

Total number of grid points                  ...    10550
Total number of batches                      ...       86
Average number of points per batch           ...      122
Average number of grid points per atom       ...     1319
UseSFitting                                  ... on

GRIDX 3
-------
General Integration Accuracy     IntAcc      ... 4.338
Radial Grid Type                 RadialGrid  ... OptM3 with GC (2021)
Angular Grid (max. ang.)         AngularGrid ... 3 (Lebedev-194)
Angular grid pruning method      GridPruning ... 4 (adaptive)
Weight generation scheme         WeightScheme... mBecke (2022)
Basis function cutoff            BFCut       ... 1.0000e-11
Integration weight cutoff        WCut        ... 1.0000e-14
Partially contracted basis set               ... on
Rotationally invariant grid construction     ... off
Angular grids for H and He will be reduced by one unit

Total number of grid points                  ...    23260
Total number of batches                      ...      186
Average number of points per batch           ...      125
Average number of grid points per atom       ...     2908
UseSFitting                                  ... on
Initializing property integral containers    ... done (  0.0 sec)

SHARK setup successfully completed in   0.8 seconds

Maximum memory used throughout the entire STARTUP-calculation: 19.7 MB
-------------------------------------------------------------------------------
                                 ORCA GUESS
                   Start orbitals & Density for SCF / CASSCF
-------------------------------------------------------------------------------

------------
SCF SETTINGS
------------
Hamiltonian:
 Density Functional     Method          .... DFT(GTOs)
 Exchange Functional    Exchange        .... WB97X-V
 Correlation Functional Correlation     .... WB97X-V
 Gradients option       PostSCFGGA      .... off
 Hybrid DFT is turned on
   Fraction HF Exchange ScalHFX         ....  0.167000
   Scaling of DF-GGA-X  ScalDFX         ....  0.000000
   Scaling of DF-GGA-C  ScalDFC         ....  1.000000
   Scaling of DF-LDA-C  ScalLDAC        ....  1.000000
   Perturbative correction              ....  0.000000
 Long-range corrected/Screened/Range-Separated Hybrid DFT is turned on
   Amount of maximum screened exact exchange              ....  0.833000
   Range separation parameter mu (erf(mu*r12)/r12)        ....  0.300000
   NL short-range parameter             ....  6.000000
   NL long-range parameter              ....  0.010000
 RI-approximation to the Coulomb term is turned on
   Number of AuxJ basis functions       .... 240
   RIJ-COSX (HFX calculated with COS-X)).... on


General Settings:
 Integral files         IntName         .... sp_solv
 Hartree-Fock type      HFTyp           .... RHF
 Total Charge           Charge          ....    0
 Multiplicity           Mult            ....    1
 Number of Electrons    NEL             ....   34
 Basis Dimension        Dim             ....  148
 Nuclear Repulsion      ENuc            ....    131.3223590472 Eh

Convergence Acceleration:
 AO-DIIS                CNVDIIS         .... on
   Start iteration      DIISMaxIt       ....    12
   Startup error        DIISStart       ....  0.200000
   # of expansion vecs  DIISMaxEq       ....     5
   Bias factor          DIISBfac        ....   1.050
   Max. coefficient     DIISMaxC        ....  10.000
 MO-DIIS                CNVKDIIS        .... off
 Trust-Rad. Augm. Hess. CNVTRAH         .... auto
   Auto Start mean grad. ratio tolernc. ....  1.125000
   Auto Start start iteration           ....     1
   Auto Start num. interpolation iter.  ....    10
   Max. Number of Micro iterations      ....    24
   Max. Number of Macro iterations      .... Maxiter - #DIIS iter
   Number of Davidson start vectors     ....     2
   Converg. threshold    (grad. norm)   ....   1.000e-04
   Grad. Scal. Fac. for Micro threshold ....   0.100
   Minimum threshold for Micro iter.    ....   1.000e-02
   NR start threshold (gradient norm)   ....   1.000e-04
   Initial trust radius                 ....   0.400
   Minimum AH scaling param. (alpha)    ....   1.000
   Maximum AH scaling param. (alpha)    .... 1000.000
   Quad. conv. algorithm                .... NR
   White noise on init. David. guess    .... on
   Maximum white noise                  ....   0.010
   Pseudo random numbers                .... off
   Inactive MOs                         .... canonical
   Orbital update algorithm             .... Taylor
   Preconditioner                       .... Diag
   Full preconditioner red. dimension   ....   250
 SOSCF                  CNVSOSCF        .... on
   Start iteration      SOSCFMaxIt      ....   150
   Startup grad/error   SOSCFStart      ....  0.003300
   Hessian update       SOSCFHessUp     .... L-BFGS
 Level Shifting         CNVShift        .... on
   Level shift para.    LevelShift      ....    0.2500
   Turn off err/grad.   ShiftErr        ....    0.0010
 Zerner damping         CNVZerner       .... off
 Static damping         CNVDamp         .... on
   Fraction old density DampFac         ....    0.7000
   Max. Damping (<1)    DampMax         ....    0.9800
   Min. Damping (>=0)   DampMin         ....    0.0000
   Turn off err/grad.   DampErr         ....    0.1000

SCF Procedure:
 Maximum # iterations   MaxIter         ....   125
 SCF integral mode      SCFMode         .... Direct
   Integral package                     .... SHARK and LIBINT hybrid scheme
 Reset frequency        DirectResetFreq ....    20
 Integral Threshold     Thresh          ....  3.000e-11 Eh
 Primitive CutOff       TCut            ....  1.000e-12 Eh

Convergence Tolerance:
 Convergence Check Mode ConvCheckMode   .... Total+1el-Energy
 Convergence forced     ConvForced      .... 0
 Energy Change          TolE            ....  1.000e-07 Eh
 1-El. energy change                    ....  1.000e-04 Eh
 Orbital Gradient       TolG            ....  1.000e-04
 Orbital Rotation angle TolX            ....  1.000e-04
 DIIS Error             TolErr          ....  1.000e-07

---------------------
INITIAL GUESS: MOREAD
---------------------
Guess MOs are being read from file: sp_solv.ges
Input Geometry matches current geometry (good)
Atom 0: N(Shells)= 11 and 9 - projection required
Input basis set needs projection
NBasis(read)= 106
NBasis(calc)= 148
Basis set overlap was calculated
Using GuessMode=FMatrix for the initial guess
C*T matrix was formed
Effective Fockian was calculated
Effective Fockian was diagonalized
Initial density was built
                      ------------------
                      INITIAL GUESS DONE (   0.0 sec)
                      ------------------
             **** ENERGY FILE WAS UPDATED (sp_solv.en.tmp) ****
Finished Guess after   0.3 sec
Maximum memory used throughout the entire GUESS-calculation: 11.8 MB

-------------------------------------------------------------------------------------------
                                      ORCA LEAN-SCF
                              memory conserving SCF solver
-------------------------------------------------------------------------------------------

--------------------
CPCM SOLVATION MODEL
--------------------
CPCM parameters:
  Epsilon                                         ...      78.3550
  Refrac                                          ...       1.3328
  Rsolv                                           ...       1.3000
  Surface type                                    ... GAUSSIAN VDW
  Discretization scheme                           ... Constant charge density
    Threshold for H atoms                         ...       5.0000 (charges/Ang^2)
    Threshold for non-H atoms                     ...       5.0000 (charges/Ang^2)
  Epsilon function type                           ...         CPCM
Solvent:                                          ... WATER
SMD-CDS solvent descriptors:
  Soln                                            ...       1.3328
  Soln25                                          ...       1.3323
  Sola                                            ...       0.0000
  Solb                                            ...       0.0000
  Solg                                            ...       0.0000
  Solc                                            ...       0.0000
  Solh                                            ...       0.0000
Radii:
  Scheme                                          ... Element-dependent radii
  Radius for C  used is    3.4960 Bohr (=   1.8500 Ang.)
  Radius for F  used is    3.2692 Bohr (=   1.7300 Ang.)
  Radius for H  used is    2.2677 Bohr (=   1.2000 Ang.)
Calculating surface                               ...        done! (  0.0s)
Cavity surface points                             ...          730
Cavity Volume                                     ...     453.6967
Cavity Surface-area                               ...     321.8304
Calculating surface distance matrix               ...        done! (  0.0s)
Performing Cholesky decomposition & store         ...        done! (  0.0s)
Overall time for CPCM initialization              ...                 0.0s

----------------------------------------D-I-I-S--------------------------------------------
Iteration    Energy (Eh)           Delta-E    RMSDP     MaxDP     DIISErr   Damp  Time(sec)
-------------------------------------------------------------------------------------------
               ***  Starting incremental Fock matrix formation  ***
    1    -278.4782234407810506     0.00e+00  7.21e-04  1.14e-02  5.66e-02  0.700   3.0
    2    -278.4806846843125072    -2.46e-03  6.31e-04  1.10e-02  3.96e-02  0.700   1.8
                               ***Turning on AO-DIIS***
    3    -278.4825046586908002    -1.82e-03  5.27e-04  9.64e-03  2.76e-02  0.700   1.8
    4    -278.4838275907509342    -1.32e-03  1.33e-03  2.50e-02  1.91e-02  0.000   1.7
                              *** Initializing SOSCF ***
---------------------------------------S-O-S-C-F--------------------------------------
Iteration    Energy (Eh)           Delta-E    RMSDP     MaxDP     MaxGrad    Time(sec)
--------------------------------------------------------------------------------------
    5    -278.4871345319814395    -3.31e-03  6.90e-05  1.63e-03  6.21e-04     1.7
               *** Restarting incremental Fock matrix formation ***
    6    -278.4871327189847534     1.81e-06  3.11e-05  7.26e-04  2.65e-04     3.0
    7    -278.4871339164248525    -1.20e-06  1.81e-05  4.05e-04  8.69e-05     2.5
    8    -278.4871340919593194    -1.76e-07  7.32e-06  1.69e-04  5.13e-05     2.5
    9    -278.4871341612051765    -6.92e-08  7.29e-07  1.33e-05  3.34e-06     2.4
                 **** Energy Check signals convergence ****

               *****************************************************
               *                     SUCCESS                       *
               *           SCF CONVERGED AFTER   9 CYCLES          *
               *****************************************************


------------------
NL GRID GENERATION
------------------

General Integration Accuracy     IntAcc      ... 4.004
Radial Grid Type                 RadialGrid  ... OptM3 with GC (2021)
Angular Grid (max. ang.)         AngularGrid ... 2 (Lebedev-110)
Angular grid pruning method      GridPruning ... 4 (adaptive)
Weight generation scheme         WeightScheme... mBecke (2022)
Basis function cutoff            BFCut       ... 1.0000e-10
Integration weight cutoff        WCut        ... 1.0000e-14
Partially contracted basis set               ... off
Rotationally invariant grid construction     ... off
Angular grids for H and He will be reduced by one unit

Total number of grid points                  ...    11864
Total number of batches                      ...      189
Average number of points per batch           ...       62
Average number of grid points per atom       ...     1483
Final grid set up in    0.1 sec

-------------------------------------------------------------------------------
                    post-SCF DFT-NL dispersion correction                      
-------------------------------------------------------------------------------

SCF Energy:     -278.487134161 
NL    Energy:      0.137780198 
SC+NL Energy:   -278.349353963 
NL done in  :              0.5 sec
-------------------------------------------------------------------------------
Recomputing exchange energy using gridx3       ... done (    4.603 sec)
Old exchange energy                            :     -9.836856398 Eh
New exchange energy                            :     -9.836851117 Eh
Exchange energy change after final integration :      0.000005281 Eh
Total energy after final integration           :   -278.349348682 Eh

SMD CDS free energy correction energy :                 3.29454     Kcal/mol
Total Energy after SMD CDS correction =              -278.344098504 Eh
             **** ENERGY FILE WAS UPDATED (sp_solv.en.tmp) ****

----------------
TOTAL SCF ENERGY
----------------

Total Energy       :       -278.34409850368223 Eh           -7574.12798 eV

Components:
Nuclear Repulsion  :        131.32235904716651 Eh            3573.46306 eV
Electronic Energy  :       -409.79985633063131 Eh          -11151.22101 eV
One Electron Energy:       -644.57784733528842 Eh          -17539.85493 eV
Two Electron Energy:        234.77799100465714 Eh            6388.63393 eV
CPCM Dielectric    :         -0.00963687774039 Eh              -0.26223 eV
SMD CDS (Gcds)     :          0.00525017823815 Eh               0.14286 eV

Virial components:
Potential Energy   :       -555.76307819956787 Eh          -15123.08220 eV
Kinetic Energy     :        277.41897969588558 Eh            7548.95422 eV
Virial Ratio       :          2.00333473509567

DFT components:
N(Alpha)           :       17.000000810629 electrons
N(Beta)            :       17.000000810629 electrons
N(Total)           :       34.000001621258 electrons
E(X)               :      -22.034800247291 Eh       
E(C)               :       -1.470398610119 Eh       
NL Energy, E(C,NL) :        0.137780198279 Eh       
E(XC)              :      -23.367418659132 Eh       

CPCM Solvation Model Properties:
Surface-charge          :         -0.02017230425419
Corrected charge        :         -0.00000000000000
Outlying charge corr.   :          0.00004045875840 Eh               0.00110 eV
Free-energy (cav+disp)  :          0.00525017823815 Eh               0.14286 eV

---------------
SCF CONVERGENCE
---------------

  Last Energy change         ...    6.9246e-08  Tolerance :   1.0000e-07
  Last MAX-Density change    ...    1.3333e-05  Tolerance :   1.0000e-05
  Last RMS-Density change    ...    7.2908e-07  Tolerance :   1.0000e-06
  Last DIIS Error            ...    6.2143e-04  Tolerance :   1.0000e-07
  Last Orbital Gradient      ...    3.3385e-06  Tolerance :   1.0000e-04
  Last Orbital Rotation      ...    3.4425e-06  Tolerance :   1.0000e-04


----------------
ORBITAL ENERGIES
----------------

  NO   OCC          E(Eh)            E(eV) 
   0   2.0000     -27.566501      -750.1226 
   1   2.0000     -27.566403      -750.1200 
   2   2.0000     -12.200974      -332.0054 
   3   2.0000     -12.042032      -327.6803 
   4   2.0000      -1.997579       -54.3569 
   5   2.0000      -1.969502       -53.5929 
   6   2.0000      -1.342198       -36.5231 
   7   2.0000      -1.213562       -33.0227 
   8   2.0000      -1.198673       -32.6175 
   9   2.0000      -1.149813       -31.2880 
  10   2.0000      -1.128284       -30.7022 
  11   2.0000      -1.123942       -30.5840 
  12   2.0000      -1.114278       -30.3210 
  13   2.0000      -0.979162       -26.6443 
  14   2.0000      -0.869885       -23.6708 
  15   2.0000      -0.831603       -22.6291 
  16   2.0000      -0.816620       -22.2213 
  17   0.0000      -0.236300        -6.4300 
  18   0.0000      -0.205578        -5.5941 
  19   0.0000      -0.002630        -0.0716 
  20   0.0000       0.008172         0.2224 
  21   0.0000       0.045123         1.2279 
  22   0.0000       0.061740         1.6800 
  23   0.0000       0.071227         1.9382 
  24   0.0000       0.164990         4.4896 
  25   0.0000       0.186818         5.0836 
  26   0.0000       0.204309         5.5595 
  27   0.0000       0.219644         5.9768 
*Only the first 10 virtual orbitals were printed.

                    ********************************
                    * MULLIKEN POPULATION ANALYSIS *
                    ********************************

-----------------------
MULLIKEN ATOMIC CHARGES
-----------------------
   0 C :   -0.348224
   1 C :    0.270811
   2 F :   -0.241797
   3 F :   -0.241795
   4 H :    0.147489
   5 H :    0.143190
   6 H :    0.147489
   7 H :    0.122836
Sum of atomic charges:   -0.0000000

--------------------------------
MULLIKEN REDUCED ORBITAL CHARGES
--------------------------------
  0 C s       :     3.210471  s :     3.210471
      pz      :     1.066529  p :     3.087259
      px      :     0.934535
      py      :     1.086194
      dz2     :     0.014634  d :     0.047229
      dxz     :     0.009266
      dyz     :     0.004012
      dx2y2   :     0.008604
      dxy     :     0.010714
      f0      :     0.001028  f :     0.003265
      f+1     :     0.000508
      f-1     :     0.000006
      f+2     :     0.000291
      f-2     :     0.000006
      f+3     :     0.000951
      f-3     :     0.000472

  1 C s       :     3.178892  s :     3.178892
      pz      :     0.944016  p :     2.308380
      px      :     0.824021
      py      :     0.540343
      dz2     :     0.047136  d :     0.218821
      dxz     :     0.030805
      dyz     :     0.036194
      dx2y2   :     0.048851
      dxy     :     0.055836
      f0      :     0.001807  f :     0.023096
      f+1     :     0.002205
      f-1     :     0.003403
      f+2     :     0.002711
      f-2     :     0.003524
      f+3     :     0.002861
      f-3     :     0.006585

  2 F s       :     3.901233  s :     3.901233
      pz      :     1.866780  p :     5.326608
      px      :     1.815909
      py      :     1.643920
      dz2     :     0.001897  d :     0.013373
      dxz     :     0.001311
      dyz     :     0.003081
      dx2y2   :     0.002778
      dxy     :     0.004305
      f0      :     0.000064  f :     0.000583
      f+1     :     0.000031
      f-1     :     0.000077
      f+2     :     0.000055
      f-2     :     0.000115
      f+3     :     0.000149
      f-3     :     0.000091

  3 F s       :     3.901232  s :     3.901232
      pz      :     1.866787  p :     5.326607
      px      :     1.815948
      py      :     1.643872
      dz2     :     0.001897  d :     0.013373
      dxz     :     0.001311
      dyz     :     0.003081
      dx2y2   :     0.002779
      dxy     :     0.004304
      f0      :     0.000064  f :     0.000583
      f+1     :     0.000031
      f-1     :     0.000077
      f+2     :     0.000055
      f-2     :     0.000115
      f+3     :     0.000149
      f-3     :     0.000091

  4 H s       :     0.831333  s :     0.831333
      pz      :     0.005013  p :     0.021178
      px      :     0.006248
      py      :     0.009917

  5 H s       :     0.835782  s :     0.835782
      pz      :     0.013124  p :     0.021027
      px      :     0.003824
      py      :     0.004080

  6 H s       :     0.831333  s :     0.831333
      pz      :     0.005013  p :     0.021178
      px      :     0.006249
      py      :     0.009915

  7 H s       :     0.857500  s :     0.857500
      pz      :     0.015296  p :     0.019664
      px      :     0.002847
      py      :     0.001520


------------------------
MULLIKEN OVERLAP CHARGES
------------------------
B(  0-C ,  1-C ) :   0.6816 B(  0-C ,  2-F ) :  -0.1135 B(  0-C ,  3-F ) :  -0.1135 
B(  0-C ,  4-H ) :   0.7821 B(  0-C ,  5-H ) :   0.7716 B(  0-C ,  6-H ) :   0.7821 
B(  0-C ,  7-H ) :  -0.1626 B(  1-C ,  2-F ) :   0.6023 B(  1-C ,  3-F ) :   0.6023 
B(  1-C ,  7-H ) :   0.8892 B(  2-F ,  3-F ) :  -0.1019 B(  2-F ,  7-H ) :  -0.0918 
B(  3-F ,  7-H ) :  -0.0918 


                     *******************************
                     * LOEWDIN POPULATION ANALYSIS *
                     *******************************

----------------------
LOEWDIN ATOMIC CHARGES
----------------------
   0 C :   -0.281789
   1 C :   -0.427243
   2 F :    0.081537
   3 F :    0.081538
   4 H :    0.139605
   5 H :    0.134198
   6 H :    0.139606
   7 H :    0.132548

-------------------------------
LOEWDIN REDUCED ORBITAL CHARGES
-------------------------------
  0 C s       :     2.834544  s :     2.834544
      pz      :     1.072029  p :     3.193093
      px      :     1.044892
      py      :     1.076172
      dz2     :     0.062692  d :     0.229980
      dxz     :     0.046979
      dyz     :     0.015483
      dx2y2   :     0.045617
      dxy     :     0.059209
      f0      :     0.004002  f :     0.024171
      f+1     :     0.003723
      f-1     :     0.000373
      f+2     :     0.005133
      f-2     :     0.003050
      f+3     :     0.005110
      f-3     :     0.002779

  1 C s       :     2.813520  s :     2.813520
      pz      :     0.990740  p :     2.634596
      px      :     0.952721
      py      :     0.691134
      dz2     :     0.181709  d :     0.825588
      dxz     :     0.103977
      dyz     :     0.132084
      dx2y2   :     0.193901
      dxy     :     0.213918
      f0      :     0.010772  f :     0.153540
      f+1     :     0.012132
      f-1     :     0.017621
      f+2     :     0.021299
      f-2     :     0.030371
      f+3     :     0.027085
      f-3     :     0.034260

  2 F s       :     3.628429  s :     3.628429
      pz      :     1.824301  p :     5.262280
      px      :     1.777870
      py      :     1.660109
      dz2     :     0.003864  d :     0.026511
      dxz     :     0.002513
      dyz     :     0.006633
      dx2y2   :     0.005180
      dxy     :     0.008320
      f0      :     0.000111  f :     0.001243
      f+1     :     0.000084
      f-1     :     0.000206
      f+2     :     0.000119
      f-2     :     0.000228
      f+3     :     0.000257
      f-3     :     0.000239

  3 F s       :     3.628429  s :     3.628429
      pz      :     1.824306  p :     5.262279
      px      :     1.777897
      py      :     1.660076
      dz2     :     0.003864  d :     0.026511
      dxz     :     0.002512
      dyz     :     0.006634
      dx2y2   :     0.005181
      dxy     :     0.008320
      f0      :     0.000111  f :     0.001243
      f+1     :     0.000084
      f-1     :     0.000206
      f+2     :     0.000119
      f-2     :     0.000228
      f+3     :     0.000257
      f-3     :     0.000239

  4 H s       :     0.798626  s :     0.798626
      pz      :     0.015739  p :     0.061769
      px      :     0.017127
      py      :     0.028903

  5 H s       :     0.804006  s :     0.804006
      pz      :     0.036892  p :     0.061796
      px      :     0.011976
      py      :     0.012928

  6 H s       :     0.798626  s :     0.798626
      pz      :     0.015741  p :     0.061769
      px      :     0.017131
      py      :     0.028897

  7 H s       :     0.809967  s :     0.809967
      pz      :     0.042683  p :     0.057486
      px      :     0.009132
      py      :     0.005671


---------------------------------
LOEWDIN BOND ORDERS (THRESH 0.050000)
---------------------------------
B(  0-C ,  1-C ) :   1.3284 B(  0-C ,  2-F ) :   0.1108 B(  0-C ,  3-F ) :   0.1108 
B(  0-C ,  4-H ) :   0.8867 B(  0-C ,  5-H ) :   0.8916 B(  0-C ,  6-H ) :   0.8867 
B(  0-C ,  7-H ) :   0.0748 B(  1-C ,  2-F ) :   1.6384 B(  1-C ,  3-F ) :   1.6384 
B(  1-C ,  4-H ) :   0.0948 B(  1-C ,  5-H ) :   0.0920 B(  1-C ,  6-H ) :   0.0948 
B(  1-C ,  7-H ) :   0.8754 B(  2-F ,  3-F ) :   0.0765 

------------------------------------------
LOEWDIN REDUCED ORBITAL POPULATIONS PER MO
-------------------------------------------
THRESHOLD FOR PRINTING IS 0.1%%
                      0         1         2         3         4         5   
                 -27.56650 -27.56640 -12.20097 -12.04203  -1.99758  -1.96950
                   2.00000   2.00000   2.00000   2.00000   2.00000   2.00000
                  --------  --------  --------  --------  --------  --------
 0 C  s               0.0       0.0       0.0      99.5       0.4       0.0
 0 C  px              0.0       0.0       0.1       0.0       1.6       0.0
 0 C  py              0.0       0.0       0.0       0.0       0.0       0.3
 0 C  dz2             0.0       0.0       0.0       0.0       0.1       0.0
 0 C  dx2y2           0.0       0.0       0.1       0.0       0.2       0.0
 0 C  dxy             0.0       0.0       0.0       0.0       0.0       0.2
 1 C  s               0.0       0.0      99.4       0.0       8.7       0.0
 1 C  pz              0.0       0.0       0.0       0.0       2.7       0.0
 1 C  px              0.0       0.0       0.0       0.1       5.0       0.0
 1 C  py              0.0       0.0       0.0       0.0       0.0      13.7
 1 C  dz2             0.0       0.0       0.0       0.0       1.1       0.0
 1 C  dxz             0.0       0.0       0.0       0.1       0.9       0.0
 1 C  dyz             0.0       0.0       0.0       0.0       0.0       2.7
 1 C  dx2y2           0.0       0.0       0.0       0.1       1.2       0.0
 1 C  dxy             0.0       0.0       0.0       0.0       0.0       5.3
 1 C  f0              0.0       0.0       0.0       0.0       0.3       0.0
 1 C  f+2             0.0       0.0       0.0       0.0       0.2       0.0
 1 C  f-2             0.0       0.0       0.0       0.0       0.0       0.7
 1 C  f+3             0.0       0.0       0.0       0.0       0.8       0.0
 2 F  s              49.8      50.1       0.0       0.0      37.3      38.3
 2 F  py              0.0       0.0       0.1       0.0       0.4       0.2
 3 F  s              50.1      49.8       0.0       0.0      37.3      38.3
 3 F  py              0.0       0.0       0.1       0.0       0.4       0.2
 7 H  s               0.0       0.0       0.0       0.0       0.8       0.0

                      6         7         8         9        10        11   
                  -1.34220  -1.21356  -1.19867  -1.14981  -1.12828  -1.12394
                   2.00000   2.00000   2.00000   2.00000   2.00000   2.00000
                  --------  --------  --------  --------  --------  --------
 0 C  s               9.4      24.0       0.0       0.1       5.5       0.0
 0 C  pz              0.4       0.1       0.0       0.4       0.0       0.0
 0 C  px              3.2       0.1       0.0       0.0       1.0       0.0
 0 C  py              0.0       0.0       0.4       0.0       0.0       0.3
 0 C  dz2             0.2       0.0       0.0       0.1       0.1       0.0
 0 C  dxz             0.2       0.0       0.0       0.3       0.0       0.0
 0 C  dx2y2           0.7       0.0       0.0       0.1       0.1       0.0
 0 C  dxy             0.0       0.0       0.7       0.0       0.0       0.2
 0 C  f-3             0.0       0.0       0.1       0.0       0.0       0.0
 1 C  s              21.9       1.0       0.0       0.5       0.2       0.0
 1 C  pz              0.5       0.7       0.0      10.0       0.1       0.0
 1 C  px              2.1      21.1       0.0       0.0       0.3       0.0
 1 C  py              0.0       0.0      18.0       0.0       0.0       0.0
 1 C  dz2             0.0       0.1       0.0       1.8       0.1       0.0
 1 C  dxz             0.3       0.6       0.0       1.2       0.1       0.0
 1 C  dyz             0.0       0.0       0.2       0.0       0.0       2.8
 1 C  dx2y2           0.5       0.1       0.0       0.2       6.7       0.0
 1 C  dxy             0.0       0.0       0.3       0.0       0.0       1.9
 1 C  f+1             0.0       0.0       0.0       0.2       0.0       0.0
 1 C  f-1             0.0       0.0       0.0       0.0       0.0       0.5
 1 C  f+2             0.0       0.0       0.0       0.1       0.5       0.0
 1 C  f+3             0.1       0.0       0.0       0.1       0.0       0.0
 1 C  f-3             0.0       0.0       0.0       0.0       0.0       0.5
 2 F  s               3.2       0.6       1.8       0.0       0.0       0.0
 2 F  pz              2.4       2.8       6.9      33.5       0.0      27.5
 2 F  px              5.9       0.3      15.1       1.0      34.1      18.7
 2 F  py             13.7      11.9      15.9       6.5       5.5       0.6
 2 F  dx2y2           0.0       0.1       0.0       0.0       0.0       0.0
 2 F  dxy             0.2       0.0       0.1       0.0       0.0       0.0
 3 F  s               3.2       0.6       1.8       0.0       0.0       0.0
 3 F  pz              2.4       2.8       6.9      33.5       0.0      27.5
 3 F  px              5.9       0.3      15.1       1.0      34.1      18.7
 3 F  py             13.7      11.9      15.9       6.5       5.5       0.6
 3 F  dx2y2           0.0       0.1       0.0       0.0       0.0       0.0
 3 F  dxy             0.2       0.0       0.1       0.0       0.0       0.0
 4 H  s               1.5       6.2       0.0       0.1       1.8       0.0
 4 H  px              0.1       0.2       0.0       0.0       0.0       0.0
 4 H  py              0.1       0.4       0.0       0.0       0.2       0.0
 5 H  s               1.5       6.0       0.0       0.0       1.8       0.0
 5 H  pz              0.2       0.6       0.0       0.0       0.2       0.0
 6 H  s               1.5       6.2       0.0       0.1       1.8       0.0
 6 H  px              0.1       0.2       0.0       0.0       0.0       0.0
 6 H  py              0.1       0.4       0.0       0.0       0.2       0.0
 7 H  s               3.2       0.1       0.0       2.2       0.0       0.0
 7 H  pz              0.5       0.1       0.0       0.3       0.0       0.0
 7 H  px              0.0       0.1       0.0       0.0       0.0       0.0
 7 H  py              0.0       0.0       0.2       0.0       0.0       0.0

                     12        13        14        15        16        17   
                  -1.11428  -0.97916  -0.86988  -0.83160  -0.81662  -0.23630
                   2.00000   2.00000   2.00000   2.00000   2.00000   0.00000
                  --------  --------  --------  --------  --------  --------
 0 C  s               0.0       2.0       0.6       0.0       0.1       0.2
 0 C  pz              0.0       8.1       2.2       0.0      42.4       0.0
 0 C  px              0.0      10.9      34.9       0.0       0.4       0.5
 0 C  py              0.1       0.0       0.0      52.7       0.0       0.0
 0 C  dz2             0.0       0.0       0.0       0.0       2.6       2.2
 0 C  dxz             0.0       1.3       0.1       0.0       0.4       0.6
 0 C  dyz             0.0       0.0       0.0       0.7       0.0       0.0
 0 C  dx2y2           0.0       0.3       0.8       0.0       0.0       0.9
 0 C  dxy             0.0       0.0       0.0       1.8       0.0       0.0
 0 C  f+1             0.0       0.0       0.1       0.0       0.0       0.2
 0 C  f+2             0.0       0.1       0.1       0.0       0.0       0.0
 0 C  f-2             0.0       0.0       0.0       0.1       0.0       0.0
 0 C  f+3             0.0       0.0       0.0       0.0       0.1       0.2
 1 C  s               0.0       8.0       0.4       0.0       0.4      14.4
 1 C  pz              0.0      15.3      15.7       0.0       4.5      11.8
 1 C  px              0.0       5.2      11.3       0.0       2.6      18.0
 1 C  py              1.2       0.0       0.0       1.7       0.0       0.0
 1 C  dz2             0.0       2.2       0.7       0.0       3.2       0.8
 1 C  dxz             0.0       0.1       0.6       0.0       1.3       1.5
 1 C  dyz             0.9       0.0       0.0       0.0       0.0       0.0
 1 C  dx2y2           0.0       0.4       0.3       0.0       0.2       0.7
 1 C  dxy             0.6       0.0       0.0       2.6       0.0       0.0
 1 C  f0              0.0       0.0       0.0       0.0       0.1       1.1
 1 C  f+1             0.0       0.1       0.1       0.0       0.1       0.0
 1 C  f-1             0.3       0.0       0.0       0.0       0.0       0.0
 1 C  f+2             0.0       0.0       0.2       0.0       0.0       0.1
 1 C  f-2             0.6       0.0       0.0       0.1       0.0       0.0
 1 C  f+3             0.0       0.2       0.0       0.0       0.1       1.8
 1 C  f-3             0.8       0.0       0.0       0.3       0.0       0.0
 2 F  s               0.1       0.1       0.0       0.0       0.0       3.6
 2 F  pz             10.8       5.3       1.6       0.0       0.4       0.5
 2 F  px              9.6       1.9       1.6       0.5       0.0       1.2
 2 F  py             27.2       0.7       0.1       0.0       0.2      13.2
 2 F  dz2             0.0       0.0       0.1       0.0       0.0       0.4
 2 F  dyz             0.0       0.0       0.1       0.0       0.0       0.4
 2 F  dx2y2           0.0       0.0       0.0       0.0       0.0       0.9
 2 F  dxy             0.0       0.0       0.1       0.0       0.0       0.8
 3 F  s               0.1       0.1       0.0       0.0       0.0       3.6
 3 F  pz             10.8       5.3       1.6       0.0       0.4       0.5
 3 F  px              9.6       1.9       1.6       0.5       0.0       1.2
 3 F  py             27.2       0.7       0.1       0.0       0.2      13.2
 3 F  dz2             0.0       0.0       0.1       0.0       0.0       0.4
 3 F  dyz             0.0       0.0       0.1       0.0       0.0       0.4
 3 F  dx2y2           0.0       0.0       0.0       0.0       0.0       0.9
 3 F  dxy             0.0       0.0       0.1       0.0       0.0       0.8
 4 H  s               0.0       1.7       7.0      18.4       3.1       0.3
 4 H  pz              0.0       0.2       0.0       0.2       0.3       0.0
 4 H  px              0.0       0.0       0.1       0.4       0.1       0.1
 4 H  py              0.0       0.1       0.4       0.1       0.2       0.0
 5 H  s               0.0       5.4       0.3       0.0      25.1       0.8
 5 H  pz              0.0       0.4       0.0       0.0       0.5       0.0
 5 H  px              0.0       0.1       0.5       0.0       0.0       0.0
 5 H  py              0.0       0.0       0.0       0.6       0.0       0.0
 6 H  s               0.0       1.7       7.0      18.4       3.1       0.3
 6 H  pz              0.0       0.2       0.0       0.2       0.3       0.0
 6 H  px              0.0       0.0       0.1       0.4       0.1       0.1
 6 H  py              0.0       0.1       0.4       0.1       0.2       0.0
 7 H  s               0.0      18.5       8.7       0.0       7.0       0.1
 7 H  pz              0.0       0.8       0.2       0.0       0.1       0.3
 7 H  px              0.0       0.2       0.1       0.0       0.0       0.6

                     18        19        20        21        22        23   
                  -0.20558  -0.00263   0.00817   0.04512   0.06174   0.07123
                   0.00000   0.00000   0.00000   0.00000   0.00000   0.00000
                  --------  --------  --------  --------  --------  --------
 0 C  s               0.0       4.4      15.3       4.1       0.0       0.7
 0 C  pz              0.0       1.4       0.2      11.8       0.0      12.4
 0 C  px              0.0      18.6       1.1       4.5       0.0       6.8
 0 C  py              0.0       0.0       0.0       0.0      25.6       0.0
 0 C  dz2             0.0       0.2       0.3       7.3       0.0       7.2
 0 C  dxz             0.0       7.8       1.2       0.2       0.0       0.1
 0 C  dyz             0.1       0.0       0.0       0.0       9.9       0.0
 0 C  dx2y2           0.0       9.0       0.0       2.2       0.0       6.0
 0 C  dxy             6.3       0.0       0.0       0.0       5.9       0.0
 0 C  f0              0.0       0.3       0.1       0.4       0.0       0.0
 0 C  f+1             0.0       0.0       0.0       0.0       0.0       0.1
 0 C  f+2             0.0       0.6       0.0       0.0       0.0       0.0
 0 C  f-2             0.4       0.0       0.0       0.0       0.1       0.0
 0 C  f+3             0.0       0.3       0.4       0.0       0.0       0.1
 0 C  f-3             0.4       0.0       0.0       0.0       0.0       0.0
 1 C  s               0.0      12.5       3.4       0.6       0.0       0.5
 1 C  pz              0.0       0.9       7.9      10.8       0.0       5.7
 1 C  px              0.0      13.7       2.7       4.5       0.0       1.2
 1 C  py             49.2       0.0       0.0       0.0       3.6       0.0
 1 C  dz2             0.0       0.0       4.6       4.1       0.0       1.2
 1 C  dxz             0.0       5.1       0.6       0.4       0.0       1.0
 1 C  dyz             3.6       0.0       0.0       0.0       3.0       0.0
 1 C  dx2y2           0.0       4.2       2.2       0.6       0.0       0.4
 1 C  dxy             4.3       0.0       0.0       0.0       0.7       0.0
 1 C  f0              0.0       0.5       0.0       0.4       0.0       0.0
 1 C  f+1             0.0       0.1       0.0       0.0       0.0       0.1
 1 C  f-1             0.2       0.0       0.0       0.0       0.0       0.0
 1 C  f+2             0.0       0.1       0.0       0.0       0.0       0.1
 1 C  f-2             0.6       0.0       0.0       0.0       0.2       0.0
 1 C  f+3             0.0       0.3       0.1       0.0       0.0       0.1
 1 C  f-3             0.0       0.0       0.0       0.0       0.3       0.0
 2 F  s               2.4       0.0       0.2       0.3       0.1       0.1
 2 F  pz              3.1       0.0       1.4       0.1       1.0       1.1
 2 F  px              5.5       1.1       0.5       0.1       0.2       0.7
 2 F  py              2.5       0.0       0.2       0.1       0.1       0.4
 2 F  dxz             0.4       0.2       0.0       0.0       0.1       0.0
 2 F  dyz             0.4       0.0       0.3       0.2       0.0       0.1
 2 F  dxy             0.7       0.3       0.0       0.1       0.0       0.0
 3 F  s               2.4       0.0       0.2       0.3       0.1       0.1
 3 F  pz              3.1       0.0       1.4       0.1       1.0       1.1
 3 F  px              5.5       1.1       0.5       0.1       0.2       0.7
 3 F  py              2.5       0.0       0.2       0.1       0.1       0.4
 3 F  dxz             0.4       0.2       0.0       0.0       0.1       0.0
 3 F  dyz             0.4       0.0       0.3       0.2       0.0       0.1
 3 F  dxy             0.7       0.3       0.0       0.1       0.0       0.0
 4 H  s               1.4       0.2      11.0       1.2      17.4       9.2
 4 H  pz              0.0       0.1       0.4       1.0       1.5       0.0
 4 H  px              0.1       0.8       0.7       0.1       2.0       0.1
 4 H  py              0.0       0.0       2.5       0.3       1.9       4.0
 5 H  s               0.0       1.0       6.5      20.8       0.0      11.0
 5 H  pz              0.0       0.4       2.0       6.9       0.0       2.4
 5 H  px              0.0       1.4       0.1       0.1       0.0       0.2
 5 H  py              0.0       0.0       0.0       0.0       1.8       0.0
 6 H  s               1.4       0.2      11.0       1.2      17.3       9.2
 6 H  pz              0.0       0.1       0.4       1.0       1.5       0.0
 6 H  px              0.1       0.8       0.7       0.1       2.0       0.1
 6 H  py              0.0       0.0       2.5       0.3       1.9       4.0
 7 H  s               0.0       7.8      12.8       9.5       0.0       8.5
 7 H  pz              0.0       2.5       3.8       3.7       0.0       2.5
 7 H  px              0.0       1.4       0.0       0.0       0.0       0.0
 7 H  py              1.6       0.0       0.0       0.0       0.4       0.0

                     24        25        26        27        28        29   
                   0.16499   0.18682   0.20431   0.21964   0.22685   0.24845
                   0.00000   0.00000   0.00000   0.00000   0.00000   0.00000
                  --------  --------  --------  --------  --------  --------
 0 C  s               0.9       0.0       0.2       0.1       0.0       1.5
 0 C  pz              4.5       0.0       4.5      48.5       0.0       0.2
 0 C  px              3.5       0.0      37.8       1.3       0.0      20.3
 0 C  py              0.0      23.1       0.0       0.0      35.2       0.0
 0 C  dz2             4.2       0.0       0.1       6.7       0.0       0.8
 0 C  dxz             0.6       0.0       1.9       0.9       0.0       3.5
 0 C  dyz             0.0       6.0       0.0       0.0       7.4       0.0
 0 C  dx2y2           0.0       0.0       1.7       3.3       0.0       3.5
 0 C  dxy             0.0       2.6       0.0       0.0       0.1       0.0
 0 C  f0              0.0       0.0       0.0       0.1       0.0       0.1
 0 C  f-3             0.0       0.2       0.0       0.0       0.0       0.0
 1 C  s              13.2       0.0       1.3       1.2       0.0       1.4
 1 C  pz              9.0       0.0      10.7       0.9       0.0      23.9
 1 C  px             37.5       0.0      10.4       2.0       0.0       0.3
 1 C  py              0.0      40.2       0.0       0.0      29.5       0.0
 1 C  dz2             0.3       0.0       1.9       0.7       0.0       3.6
 1 C  dxz             0.4       0.0       3.0       1.0       0.0       0.9
 1 C  dyz             0.0       0.1       0.0       0.0       2.8       0.0
 1 C  dx2y2           0.3       0.0       2.5       0.1       0.0       0.5
 1 C  f0              0.1       0.0       0.1       0.3       0.0       0.6
 1 C  f+1             0.0       0.0       0.1       0.1       0.0       0.0
 1 C  f+3             0.1       0.0       0.2       0.1       0.0       0.6
 2 F  s               3.8       1.8       0.4       0.4       0.1       0.4
 2 F  pz              0.6       0.3       4.9       0.2       3.2       8.3
 2 F  px              4.0       0.1       1.8       4.2       2.3       0.2
 2 F  py              1.1       6.2       0.2       0.2       1.5       2.5
 2 F  dz2             0.1       0.0       0.0       0.0       0.1       0.1
 2 F  dxz             0.0       0.1       0.0       0.1       0.0       0.0
 2 F  dyz             0.1       0.1       0.1       0.0       0.2       0.1
 2 F  dx2y2           0.2       0.0       0.0       0.0       0.0       0.0
 2 F  dxy             0.2       0.2       0.0       0.0       0.0       0.0
 3 F  s               3.8       1.8       0.4       0.4       0.1       0.4
 3 F  pz              0.6       0.3       4.9       0.2       3.2       8.3
 3 F  px              4.0       0.1       1.8       4.2       2.3       0.2
 3 F  py              1.1       6.2       0.2       0.2       1.5       2.5
 3 F  dz2             0.1       0.0       0.0       0.0       0.1       0.1
 3 F  dxz             0.0       0.1       0.0       0.1       0.0       0.0
 3 F  dyz             0.1       0.1       0.1       0.0       0.2       0.1
 3 F  dx2y2           0.2       0.0       0.0       0.0       0.0       0.0
 3 F  dxy             0.2       0.2       0.0       0.0       0.0       0.0
 4 H  s               0.1       3.9       2.0       2.2       2.6       0.1
 4 H  pz              0.4       0.1       0.0       1.0       0.1       0.0
 4 H  px              0.0       0.2       0.3       0.2       0.4       0.6
 4 H  py              0.0       0.1       0.0       0.1       0.7       0.1
 5 H  s               2.8       0.0       0.9       8.3       0.0       3.7
 5 H  pz              0.2       0.0       0.3       0.6       0.0       0.5
 5 H  px              0.0       0.0       0.9       0.0       0.0       0.6
 5 H  py              0.0       1.0       0.0       0.0       1.1       0.0
 6 H  s               0.1       3.9       2.0       2.2       2.6       0.1
 6 H  pz              0.4       0.1       0.0       1.0       0.1       0.0
 6 H  px              0.0       0.2       0.3       0.2       0.4       0.6
 6 H  py              0.0       0.1       0.0       0.1       0.7       0.1
 7 H  s               0.4       0.0       0.8       5.7       0.0       8.3
 7 H  pz              0.3       0.0       0.1       0.8       0.0       0.0
 7 H  px              0.2       0.0       1.2       0.3       0.0       0.0
 7 H  py              0.0       0.1       0.0       0.0       1.1       0.0

                     30        31        32        33        34        35   
                   0.31312   0.35370   0.36277   0.38243   0.39762   0.43306
                   0.00000   0.00000   0.00000   0.00000   0.00000   0.00000
                  --------  --------  --------  --------  --------  --------
 0 C  s              11.5       4.8       0.0      21.0       2.6       0.0
 0 C  pz              1.1       0.6       0.0       8.6      13.1       0.0
 0 C  px              2.9       3.6       0.0       9.6       4.9       0.0
 0 C  py              0.0       0.0      10.3       0.0       0.0       8.3
 0 C  dz2             0.1       1.1       0.0       0.3       3.3       0.0
 0 C  dxz             3.8       0.3       0.0       0.1       0.1       0.0
 0 C  dyz             0.0       0.0       0.6       0.0       0.0       0.7
 0 C  dx2y2           0.9       0.0       0.0       0.3       1.0       0.0
 0 C  dxy             0.0       0.0       6.9       0.0       0.0       0.1
 0 C  f0              0.9       0.0       0.0       0.1       0.3       0.0
 0 C  f+2             0.0       0.3       0.0       0.0       0.2       0.0
 0 C  f-2             0.0       0.0       0.4       0.0       0.0       0.0
 0 C  f+3             1.3       0.0       0.0       0.1       0.0       0.0
 0 C  f-3             0.0       0.0       0.0       0.0       0.0       0.2
 1 C  s              12.5      19.9       0.0       0.9       2.9       0.0
 1 C  pz              0.1       6.9       0.0       3.4       2.1       0.0
 1 C  px             14.2       0.7       0.0       2.3       2.7       0.0
 1 C  py              0.0       0.0       2.6       0.0       0.0       4.0
 1 C  dz2             0.8       3.3       0.0       0.7       1.4       0.0
 1 C  dxz             1.3       0.9       0.0       0.5       0.3       0.0
 1 C  dyz             0.0       0.0       0.1       0.0       0.0       4.9
 1 C  dx2y2           0.4       0.1       0.0       0.0       0.7       0.0
 1 C  dxy             0.0       0.0       1.7       0.0       0.0       0.2
 1 C  f0              0.0       0.3       0.0       0.4       0.1       0.0
 1 C  f+1             0.1       0.0       0.0       0.0       0.2       0.0
 1 C  f+2             0.4       0.0       0.0       0.0       0.1       0.0
 1 C  f-2             0.0       0.0       0.0       0.0       0.0       0.1
 1 C  f+3             0.1       0.1       0.0       0.0       0.2       0.0
 1 C  f-3             0.0       0.0       0.2       0.0       0.0       0.0
 2 F  s               1.8       1.4       2.2       0.4       0.2       2.6
 2 F  pz              0.5       1.6       3.1       1.6       0.3       6.7
 2 F  px              0.6       0.5       1.8       0.6       0.2      13.3
 2 F  py              4.4       0.4       3.1       0.1       0.1       8.0
 2 F  dz2             0.0       0.2       0.0       0.0       0.0       0.3
 2 F  dxz             0.2       0.0       0.0       0.0       0.0       0.1
 2 F  dyz             0.0       0.2       0.3       0.0       0.0       0.3
 2 F  dx2y2           0.4       0.0       0.0       0.0       0.0       0.1
 2 F  dxy             0.0       0.0       0.2       0.0       0.0       1.1
 3 F  s               1.8       1.4       2.2       0.4       0.2       2.6
 3 F  pz              0.5       1.6       3.1       1.6       0.3       6.7
 3 F  px              0.6       0.5       1.8       0.6       0.2      13.3
 3 F  py              4.4       0.4       3.1       0.1       0.1       8.0
 3 F  dz2             0.0       0.2       0.0       0.0       0.0       0.3
 3 F  dxz             0.2       0.0       0.0       0.0       0.0       0.1
 3 F  dyz             0.0       0.2       0.3       0.0       0.0       0.3
 3 F  dx2y2           0.4       0.0       0.0       0.0       0.0       0.1
 3 F  dxy             0.0       0.0       0.2       0.0       0.0       1.1
 4 H  s               9.7       0.7      26.9       3.4      12.9       7.3
 4 H  pz              0.5       0.2       0.0       0.0       0.0       0.1
 4 H  px              0.6       0.0       0.5       0.1       0.0       0.1
 4 H  py              1.3       0.0       0.3       0.3       0.5       0.3
 5 H  s               2.9       3.5       0.0      23.5      29.2       0.0
 5 H  pz              1.5       0.2       0.0       0.9       1.2       0.0
 5 H  px              0.2       0.2       0.0       0.0       0.2       0.0
 6 H  s               9.7       0.7      26.9       3.4      12.9       7.3
 6 H  pz              0.5       0.2       0.0       0.0       0.0       0.1
 6 H  px              0.6       0.0       0.5       0.1       0.0       0.1
 6 H  py              1.3       0.0       0.3       0.3       0.5       0.3
 7 H  s               2.8      40.7       0.0      14.1       4.1       0.0
 7 H  pz              0.0       1.9       0.0       0.2       0.2       0.0
 7 H  px              0.2       0.1       0.0       0.1       0.3       0.0
 7 H  py              0.0       0.0       0.0       0.0       0.0       1.0

                     36        37        38        39        40        41   
                   0.45304   0.47292   0.47457   0.50957   0.61059   0.63408
                   0.00000   0.00000   0.00000   0.00000   0.00000   0.00000
                  --------  --------  --------  --------  --------  --------
 0 C  s               5.7      19.8       0.0      16.5       0.0       0.0
 0 C  pz              2.0       0.3       0.0       0.5       0.0       0.0
 0 C  px              0.2       2.1       0.0       0.6       0.0       0.0
 0 C  py              0.0       0.0       1.9       0.0       0.1       7.1
 0 C  dz2             0.0       0.1       0.0       0.4       0.0       0.0
 0 C  dxz            11.3       0.4       0.0       4.2       0.0       0.0
 0 C  dyz             0.0       0.0      18.2       0.0       0.4       3.6
 0 C  dx2y2           4.1       0.3       0.0       3.7       0.0       0.0
 0 C  dxy             0.0       0.0      10.2       0.0       0.1       9.3
 0 C  f0              0.1       2.0       0.0       1.2       0.0       0.0
 0 C  f+1             0.1       0.0       0.0       0.1       0.0       0.0
 0 C  f-1             0.0       0.0       0.0       0.0       0.2       0.0
 0 C  f+2             0.2       0.1       0.0       0.4       0.0       0.0
 0 C  f-2             0.0       0.0       0.4       0.0       0.0       0.0
 0 C  f+3             0.3       1.6       0.0       0.1       0.0       0.0
 1 C  s               2.1       4.8       0.0      12.3       0.0       0.0
 1 C  pz              1.0       0.5       0.0       1.6       0.0       0.0
 1 C  px              1.3       0.2       0.0       0.6       0.0       0.0
 1 C  py              0.0       0.0       0.9       0.0       5.3       0.5
 1 C  dz2             0.1       0.1       0.0       0.3       0.0       0.0
 1 C  dxz             7.7       0.0       0.0       1.6       0.0       0.0
 1 C  dyz             0.0       0.0       4.2       0.0       7.3       7.9
 1 C  dx2y2           0.4       0.7       0.0       4.3       0.0       0.0
 1 C  dxy             0.0       0.0       6.0       0.0       0.6       7.9
 1 C  f0              0.0       0.2       0.0       0.7       0.0       0.0
 1 C  f-1             0.0       0.0       0.2       0.0       0.1       0.1
 1 C  f+2             0.1       0.1       0.0       0.4       0.0       0.0
 1 C  f+3             0.0       0.5       0.0       0.0       0.0       0.0
 1 C  f-3             0.0       0.0       0.1       0.0       0.0       0.0
 2 F  s               0.0       0.0       0.0       0.2       0.0       0.4
 2 F  pz              1.2       0.6      14.4       7.3      16.1       3.4
 2 F  px              6.1       6.1       8.2       4.1       3.3      15.3
 2 F  py             19.0      12.1       0.6       2.8      18.5       4.1
 2 F  dz2             0.0       0.1       0.0       1.0       1.9       0.7
 2 F  dxz             0.2       0.7       0.0       0.0       0.1       0.3
 2 F  dyz             0.3       0.2       0.0       1.5       0.2       0.9
 2 F  dx2y2           0.0       0.6       0.0       0.0       0.7       2.4
 2 F  dxy             0.2       1.8       0.1       0.4       0.1       0.2
 3 F  s               0.0       0.0       0.0       0.2       0.0       0.4
 3 F  pz              1.2       0.6      14.3       7.3      16.1       3.4
 3 F  px              6.1       6.1       8.3       4.1       3.3      15.3
 3 F  py             19.0      12.1       0.6       2.8      18.5       4.1
 3 F  dz2             0.0       0.1       0.0       1.0       1.9       0.7
 3 F  dxz             0.2       0.7       0.0       0.0       0.1       0.3
 3 F  dyz             0.3       0.2       0.0       1.5       0.2       0.9
 3 F  dx2y2           0.0       0.6       0.0       0.0       0.7       2.4
 3 F  dxy             0.2       1.8       0.1       0.4       0.1       0.2
 4 H  s               0.8       6.8       0.6       2.8       0.1       0.8
 4 H  pz              0.2       0.1       2.3       0.2       0.0       1.0
 4 H  px              0.5       0.1       0.3       0.3       0.0       0.5
 4 H  py              1.3       0.8       0.1       0.0       0.0       0.8
 5 H  s               0.9       4.6       0.0       3.3       0.0       0.0
 5 H  pz              0.0       0.6       0.0       0.9       0.0       0.0
 5 H  px              0.7       0.0       0.0       1.2       0.0       0.0
 5 H  py              0.0       0.0       2.9       0.0       0.3       0.1
 6 H  s               0.8       6.8       0.6       2.8       0.1       0.8
 6 H  pz              0.2       0.1       2.3       0.2       0.0       1.0
 6 H  px              0.5       0.1       0.3       0.3       0.0       0.5
 6 H  py              1.3       0.8       0.1       0.0       0.0       0.8
 7 H  s               0.4       1.1       0.0       2.8       0.0       0.0
 7 H  pz              0.3       0.1       0.0       0.6       0.0       0.0
 7 H  px              0.9       0.0       0.0       0.5       0.0       0.0
 7 H  py              0.0       0.0       1.4       0.0       3.3       2.1

                     42        43        44        45        46        47   
                   0.68255   0.71862   0.71905   0.75692   0.79225   0.81987
                   0.00000   0.00000   0.00000   0.00000   0.00000   0.00000
                  --------  --------  --------  --------  --------  --------
 0 C  s               0.8       1.0       0.0       0.0       2.5       0.0
 0 C  pz              6.7       2.2       0.0       5.8       1.1       0.0
 0 C  px              0.5       1.4       0.0       1.3       8.6       0.0
 0 C  py              0.0       0.0      13.7       0.0       0.0       0.4
 0 C  dz2             0.9       2.5       0.0       2.7       2.9       0.0
 0 C  dxz             6.2       2.4       0.0       5.4       0.4       0.0
 0 C  dyz             0.0       0.0      16.8       0.0       0.0       0.8
 0 C  dx2y2           1.2       1.1       0.0       8.5      10.1       0.0
 0 C  dxy             0.0       0.0       0.4       0.0       0.0       2.2
 0 C  f0              1.2       0.0       0.0       0.1       0.4       0.0
 0 C  f+1             0.8       0.5       0.0       0.0       0.0       0.0
 0 C  f-1             0.0       0.0       0.6       0.0       0.0       0.0
 0 C  f+2             0.0       0.0       0.0       0.2       0.0       0.0
 0 C  f-2             0.0       0.0       1.9       0.0       0.0       0.0
 0 C  f+3             0.2       1.0       0.0       0.2       0.2       0.0
 0 C  f-3             0.0       0.0       0.5       0.0       0.0       0.1
 1 C  s               0.7       0.3       0.0       4.0       0.8       0.0
 1 C  pz              3.7       0.2       0.0      23.2       0.3       0.0
[...]
 1 C  f-2             0.0       1.4       0.0       0.0       0.0       0.0
 1 C  f+3             1.6       0.0       0.0       0.0       0.0       0.0
 1 C  f-3             0.0       2.5       0.1       0.1       0.0       0.0
 2 F  s               0.5       0.6       0.0       0.1       0.1       0.1
 2 F  pz              0.2       0.0       0.0       0.0       0.0       0.0
 2 F  px              0.3       0.0       0.0       0.0       0.0       0.0
 2 F  py              0.2       0.8       0.0       0.1       0.0       0.0
 2 F  dz2             0.0       0.5      15.3      10.2       1.8      28.6
 2 F  dxz             0.8       1.0       3.2      24.4      32.7       4.6
 2 F  dyz             1.1       0.7      17.2       3.3      11.7       0.7
 2 F  dx2y2           0.6       3.9       5.9       3.0       2.5       4.7
 2 F  dxy             1.7       0.7       7.9       8.1       0.2       9.8
 2 F  f0              3.6       1.8       0.1       0.1       0.0       0.2
 2 F  f+1             0.0       1.3       0.0       0.1       0.1       0.0
 2 F  f-1             2.6       2.5       0.1       0.0       0.0       0.2
 2 F  f+2             1.3      10.6       0.1       0.1       0.2       0.0
 2 F  f-2            15.0       0.0       0.0       0.2       0.1       0.0
 2 F  f+3             7.2      12.5       0.1       0.1       0.0       0.3
 2 F  f-3            11.8       9.4       0.0       0.0       0.0       0.0
 3 F  s               0.5       0.6       0.0       0.1       0.1       0.1
 3 F  pz              0.2       0.0       0.0       0.0       0.0       0.0
 3 F  px              0.3       0.0       0.0       0.0       0.0       0.0
 3 F  py              0.2       0.8       0.0       0.1       0.0       0.0
 3 F  dz2             0.0       0.5      15.3      10.2       1.8      28.6
 3 F  dxz             0.8       1.0       3.2      24.4      32.7       4.6
 3 F  dyz             1.1       0.7      17.2       3.3      11.7       0.7
 3 F  dx2y2           0.6       3.9       5.9       3.0       2.5       4.8
 3 F  dxy             1.7       0.7       7.9       8.1       0.2       9.8
 3 F  f0              3.6       1.8       0.1       0.1       0.0       0.2
 3 F  f+1             0.0       1.3       0.0       0.1       0.1       0.0
 3 F  f-1             2.6       2.5       0.1       0.0       0.0       0.2
 3 F  f+2             1.3      10.6       0.1       0.1       0.2       0.0
 3 F  f-2            15.0       0.0       0.0       0.2       0.1       0.0
 3 F  f+3             7.2      12.5       0.1       0.1       0.0       0.3
 3 F  f-3            11.8       9.4       0.0       0.0       0.0       0.0
 7 H  s               0.0       0.0       0.0       0.0       0.0       0.3

                    138       139       140       141       142       143   
                   8.08451   8.18937   8.22647   8.34366   8.37632   8.44934
                   0.00000   0.00000   0.00000   0.00000   0.00000   0.00000
                  --------  --------  --------  --------  --------  --------
 0 C  s               0.0       0.0       0.0       0.1       0.2       0.0
 0 C  px              0.0       0.0       0.0       0.0       0.2       0.0
 0 C  py              0.0       0.0       0.1       0.0       0.0       0.0
 1 C  s               0.0       0.0       0.0       1.0       1.2       0.0
 1 C  pz              0.0       0.4       0.0       0.1       0.3       0.0
 1 C  px              0.0       0.2       0.0       0.1       1.4       0.0
 1 C  py              0.1       0.0       0.0       0.0       0.0       2.3
 1 C  dz2             0.0       0.7       0.0       0.2       0.1       0.0
 1 C  dxz             0.0       0.1       0.0       0.5       0.4       0.0
 1 C  dyz             0.2       0.0       0.9       0.0       0.0       0.5
 1 C  dx2y2           0.0       0.1       0.0       1.1       0.3       0.0
 1 C  dxy             0.1       0.0       0.5       0.0       0.0       0.9
 1 C  f0              0.0       0.1       0.0       0.1       0.0       0.0
 1 C  f+1             0.0       0.2       0.0       0.0       0.0       0.0
 1 C  f-1             0.3       0.0       0.2       0.0       0.0       0.0
 1 C  f+2             0.0       0.2       0.0       0.2       0.1       0.0
 1 C  f-2             0.4       0.0       0.0       0.0       0.0       0.0
 1 C  f+3             0.0       0.1       0.0       0.0       0.2       0.0
 1 C  f-3             0.6       0.0       0.4       0.0       0.0       0.0
 2 F  s               0.0       0.0       0.0       0.2       0.5       1.2
 2 F  pz              0.0       0.2       0.2       0.1       0.0       0.1
 2 F  px              0.0       0.1       0.1       0.4       0.0       0.3
 2 F  py              0.1       0.0       0.0       0.0       0.6       0.7
 2 F  dz2             4.9       8.0      12.5       0.1       8.7       5.1
 2 F  dxz            14.8       2.5       1.1       7.9       0.3       3.1
 2 F  dyz             2.6      23.2      14.6       7.1       3.9       9.0
 2 F  dx2y2          21.9       1.5      10.9      11.2      25.7       4.1
 2 F  dxy             0.7      11.1       6.5      18.3       6.4      22.0
 2 F  f0              0.0       0.1       0.0       0.2       0.2       0.4
 2 F  f+1             0.3       0.4       0.4       0.0       0.0       0.1
 2 F  f-1             0.6       0.7       0.8       0.2       0.4       0.2
 2 F  f+2             0.7       0.4       0.6       0.0       0.1       0.2
 2 F  f-2             0.6       0.2       0.1       0.7       0.1       0.5
 2 F  f+3             0.7       0.2       0.0       0.3       0.3       1.2
 2 F  f-3             1.1       0.3       1.0       1.5       0.5       0.0
 3 F  s               0.0       0.0       0.0       0.2       0.5       1.2
 3 F  pz              0.0       0.2       0.2       0.1       0.0       0.1
 3 F  px              0.0       0.1       0.1       0.4       0.0       0.3
 3 F  py              0.1       0.0       0.0       0.0       0.6       0.7
 3 F  dz2             4.9       8.0      12.5       0.1       8.7       5.1
 3 F  dxz            14.8       2.5       1.1       7.9       0.3       3.1
 3 F  dyz             2.6      23.2      14.6       7.1       3.9       9.0
 3 F  dx2y2          21.9       1.5      10.9      11.1      25.7       4.1
 3 F  dxy             0.7      11.1       6.5      18.3       6.4      22.0
 3 F  f0              0.0       0.1       0.0       0.2       0.2       0.4
 3 F  f+1             0.3       0.4       0.4       0.0       0.0       0.1
 3 F  f-1             0.6       0.7       0.8       0.2       0.4       0.2
 3 F  f+2             0.7       0.4       0.6       0.0       0.1       0.2
 3 F  f-2             0.6       0.2       0.1       0.7       0.1       0.5
 3 F  f+3             0.7       0.2       0.0       0.3       0.3       1.2
 3 F  f-3             1.1       0.3       1.0       1.5       0.5       0.0

                    144       145       146       147   
                  20.65349  20.83194  54.24025  54.37988
                   0.00000   0.00000   0.00000   0.00000
                  --------  --------  --------  --------
 0 C  s              55.3      43.2       0.0       0.0
 1 C  s              42.7      55.1       0.0       0.1
 1 C  px              0.1       0.0       0.0       0.0
 2 F  s               0.1       0.1      50.0      49.9
 3 F  s               0.1       0.1      50.0      49.9
 4 H  s               0.1       0.1       0.0       0.0
 5 H  s               0.1       0.1       0.0       0.0
 6 H  s               0.1       0.1       0.0       0.0
 7 H  s               0.1       0.1       0.0       0.0


                      *****************************
                      * MAYER POPULATION ANALYSIS *
                      *****************************

  NA   - Mulliken gross atomic population
  ZA   - Total nuclear charge
  QA   - Mulliken gross atomic charge
  VA   - Mayer's total valence
  BVA  - Mayer's bonded valence
  FA   - Mayer's free valence

  ATOM       NA         ZA         QA         VA         BVA        FA
  0 C      6.3482     6.0000    -0.3482     3.8292     3.8292    -0.0000
  1 C      5.7292     6.0000     0.2708     4.0997     4.0997    -0.0000
  2 F      9.2418     9.0000    -0.2418     1.0125     1.0125    -0.0000
  3 F      9.2418     9.0000    -0.2418     1.0125     1.0125    -0.0000
  4 H      0.8525     1.0000     0.1475     0.9737     0.9737     0.0000
  5 H      0.8568     1.0000     0.1432     0.9827     0.9827    -0.0000
  6 H      0.8525     1.0000     0.1475     0.9737     0.9737     0.0000
  7 H      0.8772     1.0000     0.1228     0.9534     0.9534     0.0000

  Mayer bond orders larger than 0.100000
B(  0-C ,  1-C ) :   1.0179 B(  0-C ,  4-H ) :   0.9551 B(  0-C ,  5-H ) :   0.9558 
B(  0-C ,  6-H ) :   0.9551 B(  1-C ,  2-F ) :   1.0330 B(  1-C ,  3-F ) :   1.0330 
B(  1-C ,  7-H ) :   0.9797 

-------
TIMINGS
-------

Total SCF time: 0 days 0 hours 0 min 25 sec 

Total time                  ....      25.986 sec
Sum of individual times     ....      25.041 sec  ( 96.4%)

SCF preparation             ....       0.219 sec  (  0.8%)
Fock matrix formation       ....      24.042 sec  ( 92.5%)
  Startup                   ....       0.050 sec  (  0.2% of F)
  Split-RI-J                ....       0.827 sec  (  3.4% of F)
  Chain of spheres X        ....      17.962 sec  ( 74.7% of F)
  XC integration            ....       4.155 sec  ( 17.3% of F)
    XC Preparation          ....       0.000 sec  (  0.0% of XC)
    Basis function eval.    ....       0.917 sec  ( 22.1% of XC)
    Density eval.           ....       0.598 sec  ( 14.4% of XC)
    XC-Functional eval.     ....       1.016 sec  ( 24.4% of XC)
    XC-Potential eval.      ....       0.944 sec  ( 22.7% of XC)
  CPCM terms                ....       1.128 sec  (  4.7% of F)
Diagonalization             ....       0.000 sec  (  0.0%)
Density matrix formation    ....       0.168 sec  (  0.6%)
Total Energy calculation    ....       0.043 sec  (  0.2%)
Population analysis         ....       0.056 sec  (  0.2%)
Orbital Transformation      ....       0.042 sec  (  0.2%)
Orbital Orthonormalization  ....       0.000 sec  (  0.0%)
DIIS solution               ....       0.265 sec  (  1.0%)
  MO trafo                  ....       0.000 sec  (  0.0 % of DIIS)
  Orb grad                  ....       0.000 sec  (  0.0 % of DIIS)
  Energy W gradient         ....       0.000 sec  (  0.0 % of DIIS)
  DIIS error                ....       0.002 sec  (  0.9 % of DIIS)
  DIIS work                 ....       0.229 sec  ( 86.5 % of DIIS)
  Form Q                    ....       0.000 sec  (  0.0 % of DIIS)
  Form QpQm                 ....       0.000 sec  (  0.0 % of DIIS)
  Exp/Cayley                ....       0.000 sec  (  0.0 % of DIIS)
  Orb update                ....       0.000 sec  (  0.0 % of DIIS)
  Wake-sleep                ....       0.013 sec  (  5.0 % of DIIS)
SOSCF solution              ....       0.143 sec  (  0.5%)
  MO trafo                  ....       0.054 sec  ( 38.2 % of SOSCF)
  Orb grad                  ....       0.002 sec  (  1.4 % of SOSCF)
  Rot update                ....       0.058 sec  ( 40.7 % of SOSCF)
  Step                      ....       0.028 sec  ( 19.7 % of SOSCF)
Grid generation             ....       0.063 sec  (  0.2%)
Finished LeanSCF after  26.1 sec

Maximum memory used throughout the entire LEANSCF-calculation: 15.0 MB
------------------   -----------------
gCP correction             0.006803469
------------------   -----------------

-------------------------   --------------------
FINAL SINGLE POINT ENERGY      -278.337295034582
-------------------------   --------------------


------------------------------------------------------------------------------
                              ORCA PROPERTY CALCULATIONS
------------------------------------------------------------------------------

GBWName                                 ... sp_solv.gbw
Number of atoms                         ...      8
Number of basis functions               ...    148
Max core memory                         ...   1024 MB

Electric properties:
Dipole moment                           ... YES
Quadrupole moment                       ...  NO
Static polarizability (Dipole/Dipole)   ...  NO
Static polarizability (Dipole/Quad.)    ...  NO
Static polarizability (Quad./Quad.)     ...  NO
Static polarizability (Velocity)        ...  NO

Atomic electric properties:
Dipole moment                           ...  NO
Quadrupole moment                       ...  NO
Static polarizability                   ...  NO

Choice of electric origin               ... Center of mass
Position of electric origin             ...    -0.006165     0.000054     0.005233

General magnetic properties:
Magnetizability                         ...  NO

EPR properties:
g-Tensor (aka g-matrix)                 ...  NO
Zero-Field splitting spin-orbit         ...  NO
Zero-field splitting spin-spin          ...  NO
Hyperfine couplings                     ...  NO (   0 nuclei)
Quadrupole couplings                    ...  NO (   0 nuclei)
Contact density                         ...  NO (   0 nuclei)

NMR properties:
Chemical shifts                         ...  NO (   0 nuclei)
Spin-rotation constants                 ...  NO (   0 nuclei)
Spin-spin couplings                     ...  NO (   0 nuclei,    0 pairs)

Choice of magnetic origin               ... GIAO
Position of magnetic origin             ...     0.000000     0.000000     0.000000

Properties with geometric perturbations:
SCF Hessian                             ...  NO
IR spectrum                             ...  NO
VCD spectrum                            ...  NO
X-ray spectroscopy properties:
SCF XES/XAS/RIXS spectra                ...  NO


-------------
DIPOLE MOMENT
-------------

Method             : SCF
Type of density    : Electron Density
Multiplicity       :   1
Irrep              :   0
Energy             :  -278.3440985036822326 Eh
Relativity type    : 
Basis              : AO
                                X                 Y                 Z
Electronic contribution:      5.172756787       0.000334592       0.390807963
Nuclear contribution   :     -6.207424595      -0.000406597      -0.970843847
                        -----------------------------------------
Total Dipole Moment    :     -1.034667809      -0.000072005      -0.580035884
                        -----------------------------------------
Magnitude (a.u.)       :      1.186161501
Magnitude (Debye)      :      3.014982930



--------------------
Rotational spectrum 
--------------------
 
Rotational constants in cm-1:             0.311044             0.295835             0.170404 
Rotational constants in MHz :          9324.871856          8868.902837          5108.568607 

Dipole components along the rotational axes: 
x,y,z [a.u.] :     1.037644     0.000026    -0.574695 
x,y,z [Debye]:     2.637480     0.000066    -1.460760 

 

Dipole moment calculation done in   0.0 sec 

Maximum memory used throughout the entire PROP-calculation: 8.9 MB

--------------------------------
SUGGESTED CITATIONS FOR THIS RUN
--------------------------------

Below you find a list of papers that are relevant to this ORCA run
We neither can nor want to force you to cite these papers, but we appreciate if you do
You receive ORCA, which is the product of decades of hard work by many enthusiastic individuals, for free
The only thing we kindly ask in return is that you cite our papers,
We deeply appreciate it, if you show your appreciation for ORCA by not just citing the generic ORCA reference.

Please note that relegating all ORCA citations to the supporting information does *not* help us.
SI sections are not indexed - citations you put there will not count into any citation statistics
But we need these citations in order to attract the funding resources that allow us to do what we are doing

Therefore, if you are a happy ORCA user, please consider citing a few of the papers listed below in the main body of your paper

In addition to the list printed below, the program has created the file sp_solv.bibtex that contains the list in bibtex format
You can import this file easily into all common literature databanks and citation aid programs


List of essential papers. We consider these as the minimum necessary citations

  1. Neese,F.
     Software update: the ORCA program system, version 5.0
     WIRES Comput. Molec. Sci., 2022 12(1)e1606
     doi.org/10.1002/wcms.1606

List of papers to cite with high priority. The work reported in these papers was absolutely
necessary for this run to complete.
Our perspective: the developers of density functionals and basis sets usually get cited in chemistry papers
Good! But without the algorithms to do something with them, the functionals or basis sets would not do anything.
Hence, in our opinion, the algorithm design and method developments papers are equally worthy of getting cited

  1. Neese,F.
     An improvement of the resolution of the identity approximation for the formation of the Coulomb matrix
     J. Comp. Chem., 2003 24(14)1740-1747
     doi.org/10.1002/jcc.10318
  2. Neese,F.; Wennmohs,F.; Hansen,A.; Becker,U.
     Efficient, approximate and parallel Hartree-Fock and hybrid DFT calculations. A 'chain-of-spheres' algorithm for the Hartree-Fock exchange
     Chem. Phys., 2009 356(1-3)98-109
     doi.org/10.1016/j.chemphys.2008.10.036
  3. Garcia-Rates,M.; Neese,F.
     Effect of the Solute Cavity on the Solvation Energy and its Derivatives within the Framework of the Gaussian Charge Scheme
     J. Comput. Chem., 2020 41 922-939
     doi.org/10.1002/jcc.26139
  4. Helmich-Paris,B.; de Souza,B.; Neese,F.; Izsák,R.
     An improved chain of spheres for exchange algorithm
     J. Chem. Phys., 2021 155 104109
     doi.org/doi: 10.1063/5.0058766.
  5. Neese,F.
     The SHARK Integral Generation and Digestion System
     J. Comp. Chem., 2022  1-16
     doi.org/10.1002/jcc.26942

List of suggested additional citations. These are papers that are important in the 'surrounding' of 
of this run, or papers that preceded the highly important papers. If you like your results we are grateful for a citation.

  1. Izsak,R.; Neese,F.
     An overlap fitted chain of spheres exchange method
     J. Chem. Phys., 2011 135 144105
     doi.org/10.1063/1.3646921
  2. Izsak,R.; Hansen,A.; Neese,F.
     The resolution of identity and chain of spheres approximations for the LPNO-CCSD singles Fock term
     Molec. Phys., 2012 110 2413-2417
     doi.org/10.1080/00268976.2012.687466
  3. Neese,F.
     The ORCA program system
     WIRES Comput. Molec. Sci., 2012 2(1)73-78
     doi.org/10.1002/wcms.81
  4. Izsak,R.; Neese,F.; Klopper,W.
     Robust fitting techniques in the chain of spheres approximation to the Fock exchange: The role of the complementary space
     J. Chem. Phys., 2013 139 
     doi.org/10.1063/1.4819264
  5. Neese,F.
     Software update: the ORCA program system, version 4.0
     WIRES Comput. Molec. Sci., 2018 8(1)1-6
     doi.org/10.1002/wcms.1327
  6. Neese,F.; Wennmohs,F.; Becker,U.; Riplinger,C.
     The ORCA quantum chemistry program package
     J. Chem. Phys., 2020 152 Art. No. L224108
     doi.org/10.1063/5.0004608

List of optional additional citations

  1. Neese,F.
     Approximate second-order SCF convergence for spin unrestricted wavefunctions
     Chem. Phys. Lett., 2000 325(1-3)93-98
     doi.org/10.1016/s0009-2614(00)00662-x

Timings for individual modules:

Sum of individual times          ...       27.341 sec (=   0.456 min)
Startup calculation              ...        0.838 sec (=   0.014 min)   3.1 %
SCF iterations                   ...       26.415 sec (=   0.440 min)  96.6 %
Property calculations            ...        0.088 sec (=   0.001 min)   0.3 %
                             ****ORCA TERMINATED NORMALLY****
TOTAL RUN TIME: 0 days 0 hours 0 minutes 27 seconds 990 msec
