      -----------------------------------------------------------      
     |                   =====================                   |     
     |                           x T B                           |     
     |                   =====================                   |     
     |                         S. Grimme                         |     
     |          Mulliken Center for Theoretical Chemistry        |     
     |                    University of Bonn                     |     
      -----------------------------------------------------------      

   * xtb version 6.7.1 (edcfbbe) compiled by 'albert@albert-system' on 2024-07-22

   xtb is free software: you can redistribute it and/or modify it under
   the terms of the GNU Lesser General Public License as published by
   the Free Software Foundation, either version 3 of the License, or
   (at your option) any later version.
   
   xtb is distributed in the hope that it will be useful,
   but WITHOUT ANY WARRANTY; without even the implied warranty of
   MERCHANTABILITY or FITNESS FOR A PARTICULAR PURPOSE.  See the
   GNU Lesser General Public License for more details.
   
   Cite this work as:
   * C. Bannwarth, E. Caldeweyher, S. Ehlert, A. Hansen, P. Pracht,
     J. Seibert, S. Spicher, S. Grimme, WIREs Comput. Mol. Sci., 2020, 11,
     e01493. DOI: 10.1002/wcms.1493
   
   for GFN2-xTB:
   * C. Bannwarth, S. Ehlert and S. Grimme., J. Chem. Theory Comput., 2019,
     15, 1652-1671. DOI: 10.1021/acs.jctc.8b01176
   for GFN1-xTB:
   * S. Grimme, C. Bannwarth, P. Shushkov, J. Chem. Theory Comput., 2017,
     13, 1989-2009. DOI: 10.1021/acs.jctc.7b00118
   for GFN0-xTB:
   * P. Pracht, E. Caldeweyher, S. Ehlert, S. Grimme, ChemRxiv, 2019, preprint.
     DOI: 10.26434/chemrxiv.8326202.v1
   for GFN-FF:
   * S. Spicher and S. Grimme, Angew. Chem. Int. Ed., 2020, 59, 15665-15673.
     DOI: 10.1002/anie.202004239
   
   for ALPB and GBSA implicit solvation:
   * S. Ehlert, M. Stahn, S. Spicher, S. Grimme, J. Chem. Theory Comput.,
     2021, 17, 4250-4261. DOI: 10.1021/acs.jctc.1c00471
   
   for ddCOSMO and CPCM-X implicit solvation:
   * M. Stahn, S. Ehlert, S. Grimme, J. Phys. Chem. A,
     2023, XX, XXXX-XXXX. DOI: 10.1021/acs.jpca.3c04382
   
   for DFT-D4:
   * E. Caldeweyher, C. Bannwarth and S. Grimme, J. Chem. Phys., 2017,
     147, 034112. DOI: 10.1063/1.4993215
   * E. Caldeweyher, S. Ehlert, A. Hansen, H. Neugebauer, S. Spicher,
     C. Bannwarth and S. Grimme, J. Chem. Phys., 2019, 150, 154122.
     DOI: 10.1063/1.5090222
   * E. Caldeweyher, J.-M. Mewes, S. Ehlert and S. Grimme, Phys. Chem. Chem. Phys.
     2020, 22, 8499-8512. DOI: 10.1039/D0CP00502A
   
   for sTDA-xTB:
   * S. Grimme and C. Bannwarth, J. Chem. Phys., 2016, 145, 054103.
     DOI: 10.1063/1.4959605
   
   in the mass-spec context:
   * V. Asgeirsson, C. Bauer and S. Grimme, Chem. Sci., 2017, 8, 4879.
     DOI: 10.1039/c7sc00601b
   * J. Koopman and S. Grimme, ACS Omega 2019, 4, 12, 15120-15133.
     DOI: 10.1021/acsomega.9b02011
   
   for metadynamics refer to:
   * S. Grimme, J. Chem. Theory Comput., 2019, 155, 2847-2862
     DOI: 10.1021/acs.jctc.9b00143
   
   for SPH calculations refer to:
   * S. Spicher and S. Grimme, J. Chem. Theory Comput., 2021, 17, 1701-1714
     DOI: 10.1021/acs.jctc.0c01306
   
   for ONIOM refer to:
   * C. Plett, A. Katbashev, S. Ehlert, S. Grimme, M. Bursch,
     Phys. Chem. Chem. Phys., 2023, 25, 17860-17868. DOI: 10.1039/D3CP02178E
   
   for DIPRO refer to:
   * J. Kohn, N. Gildemeister, S. Grimme, D. Fazzi, A. Hansen,
     J. Chem. Phys., 2023, just accepted.
   
   for PTB refer to:
   * S. Grimme, M. Mueller, A. Hansen, J. Chem. Phys., 2023, 158, 124111.
     DOI: 10.1063/5.0137838
   
   with help from (in alphabetical order)
   P. Atkinson, C. Bannwarth, F. Bohle, G. Brandenburg, E. Caldeweyher
   M. Checinski, S. Dohm, S. Ehlert, S. Ehrlich, I. Gerasimov, C. Hölzer
   A. Katbashev, J. Kohn, J. Koopman, C. Lavigne, S. Lehtola, F. März, M. Müller,
   F. Musil, H. Neugebauer, J. Pisarek, C. Plett, P. Pracht, F. Pultar,
   J. Seibert, P. Shushkov, S. Spicher, M. Stahn, M. Steiner, T. Strunk,
   J. Stückrath, T. Rose, and J. Unsleber
   
 * started run on 2025/04/03 at 20:32:25.583     
   ID    Z sym.   atoms
    1    6 C      1-12
    2    1 H      13-24

           -------------------------------------------------
          |                Calculation Setup                |
           -------------------------------------------------

          program call               : /srv/scratch/z5358697/.xtb/bin/xtb xtb_rrho.coord --gfn2 --ohess vtight --chrg 0 --enso --norestart -I rrho-xcontrol-inp --parallel 1 --alpb water
          hostname                   : k146
          coordinate file            : xtb_rrho.coord
          omp threads                :                     1


           -------------------------------------------------
          |                 G F N 2 - x T B                 |
           -------------------------------------------------

        Reference                      10.1021/acs.jctc.8b01176
      * Hamiltonian:
        H0-scaling (s, p, d)           1.850000    2.230000    2.230000
        zeta-weighting                 0.500000
      * Dispersion:
        s8                             2.700000
        a1                             0.520000
        a2                             5.000000
        s9                             5.000000
      * Repulsion:
        kExp                           1.500000    1.000000
        rExp                           1.000000
      * Coulomb:
        alpha                          2.000000
        third order                    shell-resolved
        anisotropic                    true
        a3                             3.000000
        a5                             4.000000
        cn-shift                       1.200000
        cn-exp                         4.000000
        max-rad                        5.000000

      * Solvation model:               ALPB
        Solvent                        water
        Parameter file                 internal GFN2-xTB/ALPB
        Dielectric constant                8.0200E+01
        Reference state                gsolv [1 M gas/solution]
        Free energy shift                  1.0808E-03 Eh       6.7819E-01 kcal/mol
        Temperature                        2.9815E+02 K
        Density                            1.0000E+00 kg/L
        Solvent mass                       1.8000E+01 g/mol
        Interaction kernel             P16
        Born radius scaling (c1)           1.4744E+00
        Born radii integrator          GBOBC
        Born offset                        0.0000E+00 a0       0.0000E+00 AA
        H-bond correction              true
        Ion screening                  false
        Surface tension                    1.0000E-05 Eh       1.5569E+01 dyn/cm
        Grid points                               974 per atom

          ...................................................
          :                      SETUP                      :
          :.................................................:
          :  # basis functions                  60          :
          :  # atomic orbitals                  60          :
          :  # shells                           36          :
          :  # electrons                        60          :
          :  max. iterations                   250          :
          :  Hamiltonian                  GFN2-xTB          :
          :  restarted?                      false          :
          :  GBSA solvation                   true          :
          :  PC potential                    false          :
          :  electronic temp.          300.0000000     K    :
          :  accuracy                    1.0000000          :
          :  -> integral cutoff          0.2500000E+02      :
          :  -> integral neglect         0.1000000E-07      :
          :  -> SCF convergence          0.1000000E-05 Eh   :
          :  -> wf. convergence          0.1000000E-03 e    :
          :  Broyden damping             0.4000000          :
          :  net charge                          0          :
          :  unpaired electrons                  0          :
          ...................................................

 iter      E             dE          RMSdq      gap      omega  full diag
   1    -32.3733713 -0.323734E+02  0.422E+00    3.08       0.0  T
   2    -32.3852935 -0.119221E-01  0.250E+00    3.07       1.0  T
   3    -32.3809647  0.432881E-02  0.638E-01    3.07       1.0  T
   4    -32.3874172 -0.645249E-02  0.155E-01    3.06       1.0  T
   5    -32.3876203 -0.203118E-03  0.562E-02    3.06       1.0  T
   6    -32.3876391 -0.187991E-04  0.260E-02    3.06       1.0  T
   7    -32.3876431 -0.401787E-05  0.115E-02    3.06       1.8  T
   8    -32.3876433 -0.232545E-06  0.171E-03    3.06      12.0  T
   9    -32.3876434 -0.511481E-07  0.670E-04    3.06      30.5  T
  10    -32.3876434 -0.177318E-08  0.367E-04    3.06      55.7  T

   *** convergence criteria satisfied after 10 iterations ***

         #    Occupation            Energy/Eh            Energy/eV
      -------------------------------------------------------------
         1        2.0000           -0.6406190             -17.4321
       ...           ...                  ...                  ...
        24        2.0000           -0.4374320             -11.9031
        25        2.0000           -0.4349545             -11.8357
        26        2.0000           -0.4076249             -11.0920
        27        2.0000           -0.4073312             -11.0840
        28        2.0000           -0.4070185             -11.0755
        29        2.0000           -0.3911264             -10.6431
        30        2.0000           -0.3638842              -9.9018 (HOMO)
        31                         -0.2514231              -6.8416 (LUMO)
        32                         -0.2228969              -6.0653
        33                         -0.1825360              -4.9671
        34                         -0.1404886              -3.8229
        35                         -0.0574255              -1.5626
       ...                                ...                  ...
        60                          0.6712427              18.2654
      -------------------------------------------------------------
                  HL-Gap            0.1124611 Eh            3.0602 eV
             Fermi-level           -0.3076536 Eh           -8.3717 eV

 SCC (total)                   0 d,  0 h,  0 min,  0.028 sec
 SCC setup                      ...        0 min,  0.001 sec (  4.396%)
 Dispersion                     ...        0 min,  0.000 sec (  0.503%)
 classical contributions        ...        0 min,  0.000 sec (  0.093%)
 integral evaluation            ...        0 min,  0.002 sec (  7.945%)
 iterations                     ...        0 min,  0.018 sec ( 64.247%)
 molecular gradient             ...        0 min,  0.006 sec ( 22.366%)
 printout                       ...        0 min,  0.000 sec (  0.413%)

         :::::::::::::::::::::::::::::::::::::::::::::::::::::
         ::                     SUMMARY                     ::
         :::::::::::::::::::::::::::::::::::::::::::::::::::::
         :: total energy             -31.813989956147 Eh    ::
         :: total w/o Gsasa/hb       -31.812346909117 Eh    ::
         :: gradient norm              0.021705692712 Eh/a0 ::
         :: HOMO-LUMO gap              3.060221958702 eV    ::
         ::.................................................::
         :: SCC energy               -32.387531871790 Eh    ::
         :: -> isotropic ES            0.004092561151 Eh    ::
         :: -> anisotropic ES          0.006018072283 Eh    ::
         :: -> anisotropic XC          0.020396371562 Eh    ::
         :: -> dispersion             -0.022761626269 Eh    ::
         :: -> Gsolv                  -0.002291907573 Eh    ::
         ::    -> Gelec               -0.000648860543 Eh    ::
         ::    -> Gsasa               -0.002081588805 Eh    ::
         ::    -> Ghb                 -0.000642217923 Eh    ::
         ::    -> Gshift               0.001080759698 Eh    ::
         :: repulsion energy           0.573541915643 Eh    ::
         :: add. restraining           0.000000000000 Eh    ::
         :: total charge               0.000000000000 e     ::
         :::::::::::::::::::::::::::::::::::::::::::::::::::::

      ----------------------------------------------------------- 
     |                   =====================                   |
     |                        A N C O P T                        |
     |                   =====================                   |
     |               Approximate Normal Coordinate               |
     |                Rational Function Optimizer                |
      ----------------------------------------------------------- 
      ----------------------------------------------------------- 
     |                   =====================                   |
     |                        A N C O P T                        |
     |                   =====================                   |
     |               Approximate Normal Coordinate               |
     |                Rational Function Optimizer                |
      ----------------------------------------------------------- 

          ...................................................
          :                      SETUP                      :
          :.................................................:
          :   optimization level         verytight          :
          :   max. optcycles                   480          :
          :   ANC micro-cycles                  20          :
          :   degrees of freedom                66          :
          :.................................................:
          :   RF solver                   davidson          :
          :   write xtbopt.log                true          :
          :   linear?                        false          :
          :   energy convergence         0.1000000E-06 Eh   :
          :   grad. convergence          0.2000000E-03 Eh/α :
          :   maxmium RF displ.          1.0000000          :
          :   Hlow (freq-cutoff)         0.1000000E-01      :
          :   Hmax (freq-cutoff)         5.0000000          :
          :   S6 in model hess.         20.0000000          :
          ...................................................

generating ANC from exact Hessian ...
Using Lindh-Hessian (1995)
 Shifting diagonal of input Hessian by   7.817117246775647E-003
 Lowest  eigenvalues of input Hessian
    0.000000    0.000000    0.000000    0.000000    0.000000    0.000000
    0.010000    0.010658    0.013224    0.016059    0.017166    0.017867
    0.018464    0.020945    0.023444    0.027875    0.038776    0.039800
 Highest eigenvalues
    1.713134    1.766005    1.820811    1.920205    1.973381    2.022456
 

........................................................................
.............................. CYCLE    1 ..............................
........................................................................

 iter      E             dE          RMSdq      gap      omega  full diag
   1    -32.3876434 -0.323876E+02  0.510E-05    3.06       0.0  T
   2    -32.3876434 -0.283507E-11  0.332E-05    3.06     614.8  T
   3    -32.3876434  0.419220E-12  0.156E-05    3.06    1307.5  T
     SCC iter.                  ...        0 min,  0.002 sec
     gradient                   ...        0 min,  0.006 sec
 * total energy  :   -31.8139900 Eh     change       -0.4433218E-09 Eh
   gradient norm :     0.0217062 Eh/α   predicted     0.0000000E+00 (-100.00%)
   displ. norm   :     0.1375160 α      lambda       -0.1961297E-02
   maximum displ.:     0.0990722 α      in ANC's #12, #34, #39, ...

........................................................................
.............................. CYCLE    2 ..............................
........................................................................

 iter      E             dE          RMSdq      gap      omega  full diag
   1    -32.4118869 -0.324119E+02  0.117E-01    3.10       0.0  T
   2    -32.4118910 -0.405129E-05  0.688E-02    3.10       1.0  T
   3    -32.4118906  0.393562E-06  0.788E-03    3.10       2.6  T
   4    -32.4118913 -0.737246E-06  0.240E-03    3.10       8.5  T
   5    -32.4118914 -0.556684E-07  0.125E-03    3.10      16.4  T
   6    -32.4118914 -0.210630E-08  0.430E-04    3.10      47.5  T
   7    -32.4118914 -0.124681E-08  0.183E-04    3.10     111.4  T
     SCC iter.                  ...        0 min,  0.003 sec
     gradient                   ...        0 min,  0.006 sec
 * total energy  :   -31.8151724 Eh     change       -0.1182435E-02 Eh
   gradient norm :     0.0062854 Eh/α   predicted    -0.9991949E-03 ( -15.50%)
   displ. norm   :     0.0414167 α      lambda       -0.1208000E-03
   maximum displ.:     0.0350034 α      in ANC's #12, #34, #39, ...

........................................................................
.............................. CYCLE    3 ..............................
........................................................................

 iter      E             dE          RMSdq      gap      omega  full diag
   1    -32.4177885 -0.324178E+02  0.354E-02    3.11       0.0  T
   2    -32.4177890 -0.488828E-06  0.207E-02    3.11       1.0  T
   3    -32.4177889  0.629841E-07  0.277E-03    3.11       7.4  T
   4    -32.4177890 -0.992027E-07  0.772E-04    3.11      26.4  T
   5    -32.4177890 -0.718566E-08  0.387E-04    3.11      52.7  T
     SCC iter.                  ...        0 min,  0.002 sec
     gradient                   ...        0 min,  0.006 sec
 * total energy  :   -31.8152360 Eh     change       -0.6365215E-04 Eh
   gradient norm :     0.0019533 Eh/α   predicted    -0.6055685E-04 (  -4.86%)
   displ. norm   :     0.0067893 α      lambda       -0.3412254E-05
   maximum displ.:     0.0049416 α      in ANC's #12, #7, #34, ...

........................................................................
.............................. CYCLE    4 ..............................
........................................................................

 iter      E             dE          RMSdq      gap      omega  full diag
   1    -32.4177702 -0.324178E+02  0.713E-03    3.11       0.0  T
   2    -32.4177703 -0.290316E-07  0.412E-03    3.11       5.0  T
   3    -32.4177703  0.890135E-08  0.933E-04    3.11      21.9  T
   4    -32.4177703 -0.122717E-07  0.206E-04    3.11      99.1  T
     SCC iter.                  ...        0 min,  0.002 sec
     gradient                   ...        0 min,  0.006 sec
 * total energy  :   -31.8152391 Eh     change       -0.3035207E-05 Eh
   gradient norm :     0.0003618 Eh/α   predicted    -0.1896904E-05 ( -37.50%)
   displ. norm   :     0.0023466 α      lambda       -0.2479319E-06
   maximum displ.:     0.0015661 α      in ANC's #12, #34, #16, ...

........................................................................
.............................. CYCLE    5 ..............................
........................................................................

 iter      E             dE          RMSdq      gap      omega  full diag
   1    -32.4174874 -0.324175E+02  0.171E-03    3.11       0.0  T
   2    -32.4174874 -0.889010E-09  0.104E-03    3.11      19.5  T
   3    -32.4174874  0.123485E-08  0.254E-04    3.11      80.4  T
   4    -32.4174874 -0.152063E-08  0.394E-05    3.11     517.5  T
     SCC iter.                  ...        0 min,  0.002 sec
     gradient                   ...        0 min,  0.006 sec
 * total energy  :   -31.8152392 Eh     change       -0.1693114E-06 Eh
   gradient norm :     0.0000842 Eh/α   predicted    -0.1292249E-06 ( -23.68%)
   displ. norm   :     0.0006336 α      lambda       -0.5544280E-08
   maximum displ.:     0.0004324 α      in ANC's #12, #22, #25, ...

........................................................................
.............................. CYCLE    6 ..............................
........................................................................

 iter      E             dE          RMSdq      gap      omega  full diag
   1    -32.4175638 -0.324176E+02  0.494E-04    3.11       0.0  T
   2    -32.4175638 -0.507399E-10  0.291E-04    3.11      70.0  T
   3    -32.4175638  0.348876E-11  0.267E-05    3.11     765.1  T
     SCC iter.                  ...        0 min,  0.002 sec
     gradient                   ...        0 min,  0.006 sec
 * total energy  :   -31.8152393 Eh     change       -0.1522202E-07 Eh
   gradient norm :     0.0000343 Eh/α   predicted    -0.9124060E-08 ( -40.06%)
   displ. norm   :     0.0005808 α      lambda        0.1184643E-07
   maximum displ.:     0.0004183 α      in ANC's #12, #25, #16, ...

   *** GEOMETRY OPTIMIZATION CONVERGED AFTER 6 ITERATIONS ***

------------------------------------------------------------------------
 total energy gain   :        -0.0012493 Eh       -0.7840 kcal/mol
 total RMSD          :         0.0365762 a0        0.0194 Å
 total power (kW/mol):        -0.5466759 (step)  -44.1889 (real)
------------------------------------------------------------------------

 ANCopt (total)                0 d,  0 h,  0 min,  0.074 sec
 optimizer setup                ...        0 min,  0.000 sec (  0.396%)
 model hessian                  ...        0 min,  0.003 sec (  4.498%)
 ANC generation                 ...        0 min,  0.000 sec (  0.517%)
 coordinate transformation      ...        0 min,  0.000 sec (  0.041%)
 single point calculation       ...        0 min,  0.069 sec ( 93.095%)
 optimization log               ...        0 min,  0.001 sec (  0.793%)
 hessian update                 ...        0 min,  0.000 sec (  0.038%)
 rational function              ...        0 min,  0.000 sec (  0.314%)

================
 final structure:
================
$coord
       -1.97056539926179       -5.51100548255903       -0.00014749399555      C
       -1.90938423508834       -2.67810203457015       -0.00007572077898      C
       -4.11566396264343       -1.32469243414637       -0.00003999610670      C
       -4.11655409808307        1.32191716721627       -0.00002799919560      C
       -1.91118525863560        2.67681060984899       -0.00005307581251      C
        0.42225405457660        1.34485082932865       -0.00001170412218      C
        0.42315851165002       -1.34457284311525       -0.00002385145095      C
        2.76841429524559       -2.61713510718689        0.00003928819166      C
        5.00292137837324       -1.32170769154770        0.00009838967051      C
        5.00203128327798        1.32506588610963        0.00010940041335      C
        2.76665345330689        2.61899018904639        0.00006335280931      C
       -1.97427228876511        5.50967228174246       -0.00008853306028      C
       -3.91357299623352       -6.17712685810819       -0.00052464268216      H
       -1.02526482751447       -6.25990917606834       -1.66765964396861      H
       -1.02589638334929       -6.25996665185339        1.66770113558787      H
       -5.90729872749784       -2.30578510873266       -0.00004235581247      H
       -5.90884841007620        2.30180442460044       -0.00002223231233      H
        2.79386270624827       -4.65490919831770        0.00005774270719      H
        6.77763314554375       -2.33012791277578        0.00014653835972      H
        6.77606455922915        2.33467923595553        0.00016513866393      H
        2.79073142773216        4.65678097546626        0.00010455678902      H
       -1.03023496678402        6.25923693929845        1.66784761917244      H
       -1.02934834219275        6.25924372929005       -1.66751309574798      H
       -3.91772752459058        6.17448630256910       -0.00060091737260      H
$end
 
 Bond Distances (Angstroems)
 ---------------------------
C1-C2=1.4995         C1-H13=1.0869        C1-H14=1.0890        C1-H15=1.0890        C2-C1=1.4995         C2-C3=1.3697         
C2-C7=1.4218         C3-C2=1.3697         C3-C4=1.4005         C3-H16=1.0809        C4-C3=1.4005         C4-C5=1.3697         
C4-H17=1.0809        C5-C4=1.3697         C5-C6=1.4218         C5-C12=1.4995        C6-C5=1.4218         C6-C7=1.4232         
C6-C11=1.4120        C7-C2=1.4218         C7-C6=1.4232         C7-C8=1.4120         C8-C7=1.4120         C8-C9=1.3668         
C8-H18=1.0784        C9-C8=1.3668         C9-C10=1.4006        C9-H19=1.0802        C10-C9=1.4006        C10-C11=1.3668       
C10-H20=1.0802       C11-C6=1.4120        C11-C10=1.3668       C11-H21=1.0784       C12-C5=1.4995        C12-H22=1.0890       
C12-H23=1.0890       C12-H24=1.0869       H13-C1=1.0869        H14-C1=1.0890        H15-C1=1.0890        H16-C3=1.0809        
H17-C4=1.0809        H18-C8=1.0784        H19-C9=1.0802        H20-C10=1.0802       H21-C11=1.0784       H22-C12=1.0890       
H23-C12=1.0890       H24-C12=1.0869       
 C  H  Rav=1.0841 sigma=0.0044  Rmin=1.0784  Rmax=1.0890    12
 C  C  Rav=1.4126 sigma=0.0426  Rmin=1.3668  Rmax=1.4995    13
 
 selected bond angles (degree)
 --------------------
H13-C1-C2=110.16               H14-C1-C2=110.73               H14-C1-H13=108.44              H15-C1-C2=110.73               
H15-C1-H13=108.44              H15-C1-H14=108.26              C3-C2-C1=120.29                C7-C2-C1=120.99                
C7-C2-C3=118.72                C4-C3-C2=121.55                H16-C3-C2=119.77               H16-C3-C4=118.69               
C5-C4-C3=121.55                H17-C4-C3=118.69               H17-C4-C5=119.77               C6-C5-C4=118.72                
C12-C5-C4=120.29               C12-C5-C6=120.99               C7-C6-C5=119.74                C11-C6-C5=121.76               
C11-C6-C7=118.50               C6-C7-C2=119.74                C8-C7-C2=121.76                C8-C7-C6=118.50                
C9-C8-C7=121.41                H18-C8-C7=119.20               H18-C8-C9=119.39               C10-C9-C8=120.08               
H19-C9-C8=120.29               H19-C9-C10=119.63              C11-C10-C9=120.08              H20-C10-C9=119.63              
H20-C10-C11=120.29             
 
 selected dihedral angles (degree)
 ---------------------------------
C3-C2-C1-H13=  0.00           C3-C2-C1-H14=119.96           C3-C2-C1-H15=240.06           C7-C2-C1-H13=180.01           
C7-C2-C1-H14=299.96           C7-C2-C1-H15= 60.06           C4-C3-C2-C1=180.00            C4-C3-C2-C7=  0.00            
H16-C3-C2-C1=  0.00           H16-C3-C2-C7=180.00           C5-C4-C3-C2=  0.00            C5-C4-C3-H16=180.00           
H17-C4-C3-C2=180.00           H17-C4-C3-H16=  0.00          C6-C5-C4-C3=  0.00            C6-C5-C4-H17=180.00           
C12-C5-C4-C3=180.00           C12-C5-C4-H17=  0.00          C7-C6-C5-C4=  0.00            C7-C6-C5-C12=180.00           
C11-C6-C5-C4=180.00           C11-C6-C5-C12=  0.00          C6-C7-C2-C1=180.00            C6-C7-C2-C3=  0.00            
C8-C7-C2-C1=  0.00            C8-C7-C2-C3=180.00            C2-C7-C6-C5=  0.00            C2-C7-C6-C11=180.00           
C8-C7-C6-C5=180.00            C8-C7-C6-C11=  0.00           C9-C8-C7-C2=180.00            C9-C8-C7-C6=  0.00            
H18-C8-C7-C2=  0.00           H18-C8-C7-C6=180.00           C10-C9-C8-C7=  0.00           C10-C9-C8-H18=180.00          
H19-C9-C8-C7=180.00           H19-C9-C8-H18=  0.00          C11-C10-C9-C8=  0.00          C11-C10-C9-H19=180.00         
H20-C10-C9-C8=180.00          H20-C10-C9-H19=  0.00         
           -------------------------------------------------
          |                Final Singlepoint                |
           -------------------------------------------------

          ...................................................
          :                      SETUP                      :
          :.................................................:
          :  # basis functions                  60          :
          :  # atomic orbitals                  60          :
          :  # shells                           36          :
          :  # electrons                        60          :
          :  max. iterations                   250          :
          :  Hamiltonian                  GFN2-xTB          :
          :  restarted?                      false          :
          :  GBSA solvation                   true          :
          :  PC potential                    false          :
          :  electronic temp.          300.0000000     K    :
          :  accuracy                    1.0000000          :
          :  -> integral cutoff          0.2500000E+02      :
          :  -> integral neglect         0.1000000E-07      :
          :  -> SCF convergence          0.1000000E-05 Eh   :
          :  -> wf. convergence          0.1000000E-03 e    :
          :  Broyden damping             0.4000000          :
          :  net charge                          0          :
          :  unpaired electrons                  0          :
          ...................................................

 iter      E             dE          RMSdq      gap      omega  full diag
   1    -32.4175638 -0.324176E+02  0.819E-06    3.11       0.0  T
   2    -32.4175638 -0.227374E-12  0.485E-06    3.11    4209.9  T
   3    -32.4175638 -0.355271E-13  0.293E-06    3.11    6965.5  T

   *** convergence criteria satisfied after 3 iterations ***

         #    Occupation            Energy/Eh            Energy/eV
      -------------------------------------------------------------
         1        2.0000           -0.6431107             -17.4999
       ...           ...                  ...                  ...
        24        2.0000           -0.4367155             -11.8836
        25        2.0000           -0.4364073             -11.8752
        26        2.0000           -0.4085925             -11.1184
        27        2.0000           -0.4073894             -11.0856
        28        2.0000           -0.4058025             -11.0424
        29        2.0000           -0.3927407             -10.6870
        30        2.0000           -0.3644103              -9.9161 (HOMO)
        31                         -0.2500923              -6.8054 (LUMO)
        32                         -0.2207561              -6.0071
        33                         -0.1800717              -4.9000
        34                         -0.1365439              -3.7155
        35                         -0.0512251              -1.3939
       ...                                ...                  ...
        60                          0.6984204              19.0050
      -------------------------------------------------------------
                  HL-Gap            0.1143180 Eh            3.1108 eV
             Fermi-level           -0.3072513 Eh           -8.3607 eV

 SCC (total)                   0 d,  0 h,  0 min,  0.011 sec
 SCC setup                      ...        0 min,  0.001 sec ( 10.015%)
 Dispersion                     ...        0 min,  0.000 sec (  0.623%)
 classical contributions        ...        0 min,  0.000 sec (  0.170%)
 integral evaluation            ...        0 min,  0.002 sec ( 18.514%)
 iterations                     ...        0 min,  0.002 sec ( 14.876%)
 molecular gradient             ...        0 min,  0.006 sec ( 54.856%)
 printout                       ...        0 min,  0.000 sec (  0.838%)

         :::::::::::::::::::::::::::::::::::::::::::::::::::::
         ::                     SUMMARY                     ::
         :::::::::::::::::::::::::::::::::::::::::::::::::::::
         :: total energy             -31.815239263340 Eh    ::
         :: total w/o Gsasa/hb       -31.813587031595 Eh    ::
         :: gradient norm              0.000034273825 Eh/a0 ::
         :: HOMO-LUMO gap              3.110751968419 eV    ::
         ::.................................................::
         :: SCC energy               -32.417450734524 Eh    ::
         :: -> isotropic ES            0.004288367426 Eh    ::
         :: -> anisotropic ES          0.005596584521 Eh    ::
         :: -> anisotropic XC          0.019652298531 Eh    ::
         :: -> dispersion             -0.022894174223 Eh    ::
         :: -> Gsolv                  -0.002297539287 Eh    ::
         ::    -> Gelec               -0.000645307542 Eh    ::
         ::    -> Gsasa               -0.002068483300 Eh    ::
         ::    -> Ghb                 -0.000664508143 Eh    ::
         ::    -> Gshift               0.001080759698 Eh    ::
         :: repulsion energy           0.602211471184 Eh    ::
         :: add. restraining           0.000000000000 Eh    ::
         :: total charge               0.000000000000 e     ::
         :::::::::::::::::::::::::::::::::::::::::::::::::::::

           ------------------------------------------------- 
          |                Numerical Hessian                |
           ------------------------------------------------- 
step length          :   0.00500
SCC accuracy         :   0.30000
Hessian scale factor :   1.00000
frozen atoms in %    :   0.00000    0
RMS gradient         :   0.00003
estimated CPU  time      0.03 min
estimated wall time      0.03 min

writing file <hessian>.

 projected vibrational frequencies (cm⁻¹)
eigval :       -0.00    -0.00    -0.00     0.00     0.00     0.00
eigval :      107.45   110.64   172.03   185.03   189.66   273.84
eigval :      303.39   323.06   380.77   433.48   435.92   465.72
eigval :      491.11   531.90   540.58   587.79   712.10   723.28
eigval :      730.57   763.75   786.29   832.84   869.28   910.18
eigval :      912.50   926.03   976.89  1001.90  1024.67  1025.21
eigval :     1050.19  1072.70  1099.28  1179.69  1184.69  1198.16
eigval :     1247.42  1250.05  1252.65  1350.74  1367.38  1388.17
eigval :     1398.79  1399.69  1413.08  1459.74  1480.98  1480.98
eigval :     1487.67  1490.70  1517.08  1579.45  1604.88  1611.93
eigval :     3003.57  3003.59  3014.46  3015.12  3042.37  3042.96
eigval :     3058.80  3066.53  3071.90  3077.23  3100.84  3104.08
           -------------------------------------------------
          |                Property Printout                |
           -------------------------------------------------

    * Orbital Energies and Occupations

         #    Occupation            Energy/Eh            Energy/eV
      -------------------------------------------------------------
         1        2.0000           -0.6431106             -17.4999
       ...           ...                  ...                  ...
        18        2.0000           -0.4714730             -12.8294
        19        2.0000           -0.4674257             -12.7193
        20        2.0000           -0.4649060             -12.6507
        21        2.0000           -0.4584700             -12.4756
        22        2.0000           -0.4496362             -12.2352
        23        2.0000           -0.4466762             -12.1547
        24        2.0000           -0.4367155             -11.8836
        25        2.0000           -0.4364073             -11.8752
        26        2.0000           -0.4085925             -11.1184
        27        2.0000           -0.4073894             -11.0856
        28        2.0000           -0.4058025             -11.0424
        29        2.0000           -0.3927407             -10.6870
        30        2.0000           -0.3644103              -9.9161 (HOMO)
        31                         -0.2500923              -6.8054 (LUMO)
        32                         -0.2207561              -6.0071
        33                         -0.1800717              -4.9000
        34                         -0.1365439              -3.7155
        35                         -0.0512251              -1.3939
        36                          0.0986184               2.6835
        37                          0.1153656               3.1393
        38                          0.1189578               3.2370
        39                          0.1354313               3.6853
        40                          0.1461665               3.9774
        41                          0.1546049               4.2070
       ...                                ...                  ...
        60                          0.6984204              19.0050
      -------------------------------------------------------------
                  HL-Gap            0.1143180 Eh            3.1108 eV
             Fermi-level           -0.3072513 Eh           -8.3607 eV

     #   Z          covCN         q      C6AA      α(0)
     1   6 C        3.758    -0.118    22.802     6.808
     2   6 C        2.963     0.003    27.958     8.673
     3   6 C        2.920    -0.049    29.220     8.864
     4   6 C        2.920    -0.049    29.220     8.864
     5   6 C        2.963     0.003    27.958     8.673
     6   6 C        2.987    -0.001    28.034     8.685
     7   6 C        2.987    -0.001    28.034     8.685
     8   6 C        2.919    -0.042    29.038     8.837
     9   6 C        2.915    -0.039    28.962     8.825
    10   6 C        2.915    -0.039    28.962     8.825
    11   6 C        2.919    -0.042    29.038     8.837
    12   6 C        3.758    -0.118    22.802     6.808
    13   1 H        0.925     0.045     2.384     2.415
    14   1 H        0.925     0.052     2.293     2.368
    15   1 H        0.925     0.052     2.293     2.368
    16   1 H        0.926     0.028     2.610     2.526
    17   1 H        0.926     0.028     2.610     2.526
    18   1 H        0.926     0.038     2.472     2.459
    19   1 H        0.926     0.029     2.602     2.522
    20   1 H        0.926     0.029     2.602     2.522
    21   1 H        0.926     0.038     2.472     2.459
    22   1 H        0.925     0.052     2.293     2.368
    23   1 H        0.925     0.052     2.293     2.368
    24   1 H        0.925     0.045     2.384     2.415

 Mol. C6AA /au·bohr⁶  :       6683.100849
 Mol. C8AA /au·bohr⁸  :     163246.466707
 Mol. α(0) /au        :        130.700476


Wiberg/Mayer (AO) data.
largest (>0.10) Wiberg bond orders for each atom

 ---------------------------------------------------------------------------
     #   Z sym  total        # sym  WBO       # sym  WBO       # sym  WBO
 ---------------------------------------------------------------------------
     1   6 C    3.995 --     2 C    1.027    13 H    0.984    14 H    0.970
                            15 H    0.970
     2   6 C    3.988 --     3 C    1.528     7 C    1.245     1 C    1.027
                             5 C    0.111
     3   6 C    3.991 --     2 C    1.528     4 C    1.324    16 H    0.968
     4   6 C    3.991 --     5 C    1.528     3 C    1.324    17 H    0.968
     5   6 C    3.988 --     4 C    1.528     6 C    1.245    12 C    1.027
                             2 C    0.111
     6   6 C    3.990 --    11 C    1.288     7 C    1.259     5 C    1.245
     7   6 C    3.990 --     8 C    1.288     6 C    1.259     2 C    1.245
     8   6 C    3.992 --     9 C    1.551     7 C    1.288    18 H    0.966
                            11 C    0.118
     9   6 C    3.992 --     8 C    1.551    10 C    1.327    19 H    0.971
    10   6 C    3.992 --    11 C    1.551     9 C    1.327    20 H    0.971
    11   6 C    3.992 --    10 C    1.551     6 C    1.288    21 H    0.966
                             8 C    0.118
    12   6 C    3.995 --     5 C    1.027    24 H    0.984    23 H    0.970
                            22 H    0.970
    13   1 H    0.998 --     1 C    0.984
    14   1 H    0.997 --     1 C    0.970
    15   1 H    0.997 --     1 C    0.970
    16   1 H    0.999 --     3 C    0.968
    17   1 H    0.999 --     4 C    0.968
    18   1 H    0.998 --     8 C    0.966
    19   1 H    0.998 --     9 C    0.971
    20   1 H    0.998 --    10 C    0.971
    21   1 H    0.998 --    11 C    0.966
    22   1 H    0.997 --    12 C    0.970
    23   1 H    0.997 --    12 C    0.970
    24   1 H    0.998 --    12 C    0.984
 ---------------------------------------------------------------------------

Topologies differ in total number of bonds
Writing topology from bond orders to xtbtopo.mol

molecular dipole:
                 x           y           z       tot (Debye)
 q only:       -0.058      -0.000       0.000
   full:       -0.035      -0.000       0.000       0.089
molecular quadrupole (traceless):
                xx          xy          yy          xz          yz          zz
 q only:       -1.549      -0.002       4.766       0.000       0.000      -3.217
  q+dip:        2.247      -0.001       6.445       0.000       0.000      -8.692
   full:       -0.180      -0.002       4.971       0.000       0.000      -4.791

           -------------------------------------------------
          |                Geometry Summary                 |
           -------------------------------------------------

      molecular mass/u    :      156.2241198
   center of mass at/Å    :        0.0000043      -0.0000017      -0.0000076
  moments of inertia/u·Å² :        0.4215124E+03   0.4487587E+03   0.8639912E+03
rotational constants/cm⁻¹ :        0.3999321E-01   0.3756502E-01   0.1951135E-01

 * 23 selected distances

     #   Z          #   Z                                           value/Å
     2   6 C        3   6 C                                       1.3696788
     3   6 C        4   6 C                                       1.4005257
     4   6 C        5   6 C                                       1.3696788
     5   6 C        6   6 C                                       1.4218094
     2   6 C        7   6 C                                       1.4218094
     6   6 C        7   6 C                                       1.4231819 (max)
     7   6 C        8   6 C                                       1.4119853
     8   6 C        9   6 C                                       1.3667896
     9   6 C       10   6 C                                       1.4006125
     6   6 C       11   6 C                                       1.4119853
    10   6 C       11   6 C                                       1.3667896
     1   6 C       13   1 H                                       1.0869404
     1   6 C       14   1 H                                       1.0890060
     1   6 C       15   1 H                                       1.0890079
     3   6 C       16   1 H                                       1.0809342
     4   6 C       17   1 H                                       1.0809342
     8   6 C       18   1 H                                       1.0784278 (min)
     9   6 C       19   1 H                                       1.0801587
    10   6 C       20   1 H                                       1.0801587
    11   6 C       21   1 H                                       1.0784278
    12   6 C       22   1 H                                       1.0890083
    12   6 C       23   1 H                                       1.0890056
    12   6 C       24   1 H                                       1.0869404

 * 2 distinct bonds (by element types)

   Z      Z             #   av. dist./Å        max./Å        min./Å
   1 H    6 C          12     1.0840792     1.0890083     1.0784278
   6 C    6 C          11     1.3968042     1.4231819     1.3667896

           -------------------------------------------------
          |               Frequency Printout                |
           -------------------------------------------------
 projected vibrational frequencies (cm⁻¹)
eigval :       -0.00    -0.00    -0.00     0.00     0.00     0.00
eigval :      107.45   110.64   172.03   185.03   189.66   273.84
eigval :      303.39   323.06   380.77   433.48   435.92   465.72
eigval :      491.11   531.90   540.58   587.79   712.10   723.28
eigval :      730.57   763.75   786.29   832.84   869.28   910.18
eigval :      912.50   926.03   976.89  1001.90  1024.67  1025.21
eigval :     1050.19  1072.70  1099.28  1179.69  1184.69  1198.16
eigval :     1247.42  1250.05  1252.65  1350.74  1367.38  1388.17
eigval :     1398.79  1399.69  1413.08  1459.74  1480.98  1480.98
eigval :     1487.67  1490.70  1517.08  1579.45  1604.88  1611.93
eigval :     3003.57  3003.59  3014.46  3015.12  3042.37  3042.96
eigval :     3058.80  3066.53  3071.90  3077.23  3100.84  3104.08
 reduced masses (amu)
   1: 11.03   2: 11.06   3: 10.93   4: 10.54   5: 10.26   6: 10.03   7:  9.15   8:  8.52
   9:  9.37  10:  1.71  11:  2.01  12:  9.46  13:  8.61  14:  9.17  15:  9.00  16:  9.53
  17: 10.78  18: 11.16  19:  9.28  20: 11.05  21:  9.25  22: 10.08  23: 10.58  24: 11.36
  25: 10.73  26:  3.75  27: 10.67  28:  3.23  29:  3.74  30:  3.69  31:  3.87  32:  3.21
  33:  5.83  34:  6.80  35:  4.56  36:  4.66  37:  7.68  38:  8.61  39:  5.64  40:  4.50
  41:  1.79  42:  4.32  43: 10.44  44:  3.83  45:  5.01  46: 10.40  47:  7.81  48:  9.33
  49:  3.83  50:  3.71  51:  9.55  52: 10.25  53:  1.57  54:  1.57  55:  1.77  56:  2.31
  57: 10.63  58: 11.61  59: 11.38  60: 11.29  61:  1.94  62:  1.94  63:  1.60  64:  1.61
  65:  1.60  66:  1.59  67:  1.77  68:  1.76  69:  1.87  70:  1.84  71:  1.83  72:  1.86
 IR intensities (km·mol⁻¹)
   1:  0.00   2:  0.00   3:  0.00   4:  0.00   5:  0.00   6:  0.00   7:  0.40   8:  0.00
   9:  1.05  10:  1.85  11:  0.00  12:  0.51  13:  0.87  14:  0.00  15:  2.61  16:  0.00
  17:  0.99  18:  0.05  19:  0.10  20:  0.36  21:  0.11  22:  0.00  23:  1.36  24:  0.00
  25:  2.28  26: 16.20  27:  0.04  28: 16.53  29:  0.00  30:  0.00  31:  0.10  32:  0.00
  33:  1.63  34: 11.34  35:  0.00  36: 13.35  37:  0.46  38:  3.99  39:  1.57  40:  8.75
  41:  0.01  42:  0.23  43:  1.05  44: 21.53  45: 26.55  46:  0.70  47:  7.09  48:  3.20
  49:  0.63  50:  6.45  51:  0.01  52: 28.34  53:  7.52  54:  0.64  55:  0.64  56:  2.48
  57:  5.88  58:  0.89  59:  7.46  60:  5.04  61:  0.00  62: 73.58  63: 77.06  64: 32.40
  65: 49.64  66: 57.46  67: 72.88  68: 41.30  69:302.21  70:109.02  71:154.36  72: 44.89
 Raman intensities (Ä⁴*amu⁻¹)
   1:  0.00   2:  0.00   3:  0.00   4:  0.00   5:  0.00   6:  0.00   7:  0.00   8:  0.00
   9:  0.00  10:  0.00  11:  0.00  12:  0.00  13:  0.00  14:  0.00  15:  0.00  16:  0.00
  17:  0.00  18:  0.00  19:  0.00  20:  0.00  21:  0.00  22:  0.00  23:  0.00  24:  0.00
  25:  0.00  26:  0.00  27:  0.00  28:  0.00  29:  0.00  30:  0.00  31:  0.00  32:  0.00
  33:  0.00  34:  0.00  35:  0.00  36:  0.00  37:  0.00  38:  0.00  39:  0.00  40:  0.00
  41:  0.00  42:  0.00  43:  0.00  44:  0.00  45:  0.00  46:  0.00  47:  0.00  48:  0.00
  49:  0.00  50:  0.00  51:  0.00  52:  0.00  53:  0.00  54:  0.00  55:  0.00  56:  0.00
  57:  0.00  58:  0.00  59:  0.00  60:  0.00  61:  0.00  62:  0.00  63:  0.00  64:  0.00
  65:  0.00  66:  0.00  67:  0.00  68:  0.00  69:  0.00  70:  0.00  71:  0.00  72:  0.00
 output can be read by thermo (or use thermo option).
 writing <g98.out> molden fake output.
 recommended (thermochemical) frequency scaling factor: 1.0
           -------------------------------------------------
          |             Thermodynamic Functions             |
           -------------------------------------------------

Molecule has the following symmetry elements: (C2) 2*(sigma) 
It seems to be the C2v point group
c2v symmetry found (for desy threshold:  0.10E+00) used in thermo

          ...................................................
          :                      SETUP                      :
          :.................................................:
          :  # frequencies                          66      :
          :  # imaginary freq.                       0      :
          :  linear?                             false      :
          :  only rotor calc.                    false      :
          :  symmetry                              c2v      :
          :  rotational number                       2      :
          :  scaling factor                  1.0000000      :
          :  rotor cutoff                    0.0000000 cm⁻¹ :
          :  imag. cutoff                 -100.0000000 cm⁻¹ :
          :.................................................:

    mode    ω/cm⁻¹     T·S(HO)/kcal·mol⁻¹    T·S(FR)/kcal·mol⁻¹   T·S(vib)
   ------------------------------------------------------------------------
       1    107.45    -0.98820 (100.00%)    -0.82984 (  0.00%)    -0.98820
       2    110.64    -0.97125 (100.00%)    -0.82117 (  0.00%)    -0.97125
       3    172.03    -0.71949 (100.00%)    -0.69045 (  0.00%)    -0.71949
       4    185.03    -0.67891 (100.00%)    -0.66888 (  0.00%)    -0.67891
       5    189.66    -0.66521 (100.00%)    -0.66155 (  0.00%)    -0.66521
       6    273.84    -0.46864 (100.00%)    -0.55275 (  0.00%)    -0.46864
   ------------------------------------------------------------------------

   temp. (K)  partition function   enthalpy   heat capacity  entropy
                                   cal/mol     cal/K/mol   cal/K/mol   J/K/mol
 298.15  VIB   213.                 4749.745     35.967     26.582
         ROT  0.488E+06              888.752      2.981     29.011
         INT  0.104E+09             5638.497     38.947     55.593
         TR   0.189E+28             1481.254      4.968     41.029
         TOT                        7119.7512    43.9156    96.6225   404.2687

       T/K    H(0)-H(T)+PV         H(T)/Eh          T*S/Eh         G(T)/Eh
   ------------------------------------------------------------------------
    298.15    0.113460E-01    0.209308E+00    0.459085E-01    0.163400E+00
   ------------------------------------------------------------------------

         :::::::::::::::::::::::::::::::::::::::::::::::::::::
         ::                  THERMODYNAMIC                  ::
         :::::::::::::::::::::::::::::::::::::::::::::::::::::
         :: total free energy         -31.651839379849 Eh   ::
         ::.................................................::
         :: total energy              -31.815239263340 Eh   ::
         :: zero point energy           0.197962324029 Eh   ::
         :: G(RRHO) w/o ZPVE           -0.034562440538 Eh   ::
         :: G(RRHO) contrib.            0.163399883491 Eh   ::
         :::::::::::::::::::::::::::::::::::::::::::::::::::::

optimized geometry written to: xtbopt.coord


           -------------------------------------------------
          | TOTAL ENERGY              -31.815239263340 Eh   |
          | TOTAL ENTHALPY            -31.605930893609 Eh   |
          | TOTAL FREE ENERGY         -31.651839379849 Eh   |
          | GRADIENT NORM               0.000034280380 Eh/α |
          | HOMO-LUMO GAP               3.110751979558 eV   |
           -------------------------------------------------

------------------------------------------------------------------------
 * finished run on 2025/04/03 at 20:32:27.499     
------------------------------------------------------------------------
 total:
 * wall-time:     0 d,  0 h,  0 min,  1.916 sec
 *  cpu-time:     0 d,  0 h,  0 min,  1.849 sec
 * ratio c/w:     0.965 speedup
 SCF:
 * wall-time:     0 d,  0 h,  0 min,  0.028 sec
 *  cpu-time:     0 d,  0 h,  0 min,  0.017 sec
 * ratio c/w:     0.601 speedup
 ANC optimizer:
 * wall-time:     0 d,  0 h,  0 min,  0.098 sec
 *  cpu-time:     0 d,  0 h,  0 min,  0.086 sec
 * ratio c/w:     0.882 speedup
 analytical hessian:
 * wall-time:     0 d,  0 h,  0 min,  1.744 sec
 *  cpu-time:     0 d,  0 h,  0 min,  1.734 sec
 * ratio c/w:     0.994 speedup

