      -----------------------------------------------------------      
     |                   =====================                   |     
     |                           x T B                           |     
     |                   =====================                   |     
     |                         S. Grimme                         |     
     |          Mulliken Center for Theoretical Chemistry        |     
     |                    University of Bonn                     |     
      -----------------------------------------------------------      

   * xtb version 6.7.1 (edcfbbe) compiled by 'albert@albert-system' on 2024-07-22

   xtb is free software: you can redistribute it and/or modify it under
   the terms of the GNU Lesser General Public License as published by
   the Free Software Foundation, either version 3 of the License, or
   (at your option) any later version.
   
   xtb is distributed in the hope that it will be useful,
   but WITHOUT ANY WARRANTY; without even the implied warranty of
   MERCHANTABILITY or FITNESS FOR A PARTICULAR PURPOSE.  See the
   GNU Lesser General Public License for more details.
   
   Cite this work as:
   * C. Bannwarth, E. Caldeweyher, S. Ehlert, A. Hansen, P. Pracht,
     J. Seibert, S. Spicher, S. Grimme, WIREs Comput. Mol. Sci., 2020, 11,
     e01493. DOI: 10.1002/wcms.1493
   
   for GFN2-xTB:
   * C. Bannwarth, S. Ehlert and S. Grimme., J. Chem. Theory Comput., 2019,
     15, 1652-1671. DOI: 10.1021/acs.jctc.8b01176
   for GFN1-xTB:
   * S. Grimme, C. Bannwarth, P. Shushkov, J. Chem. Theory Comput., 2017,
     13, 1989-2009. DOI: 10.1021/acs.jctc.7b00118
   for GFN0-xTB:
   * P. Pracht, E. Caldeweyher, S. Ehlert, S. Grimme, ChemRxiv, 2019, preprint.
     DOI: 10.26434/chemrxiv.8326202.v1
   for GFN-FF:
   * S. Spicher and S. Grimme, Angew. Chem. Int. Ed., 2020, 59, 15665-15673.
     DOI: 10.1002/anie.202004239
   
   for ALPB and GBSA implicit solvation:
   * S. Ehlert, M. Stahn, S. Spicher, S. Grimme, J. Chem. Theory Comput.,
     2021, 17, 4250-4261. DOI: 10.1021/acs.jctc.1c00471
   
   for ddCOSMO and CPCM-X implicit solvation:
   * M. Stahn, S. Ehlert, S. Grimme, J. Phys. Chem. A,
     2023, XX, XXXX-XXXX. DOI: 10.1021/acs.jpca.3c04382
   
   for DFT-D4:
   * E. Caldeweyher, C. Bannwarth and S. Grimme, J. Chem. Phys., 2017,
     147, 034112. DOI: 10.1063/1.4993215
   * E. Caldeweyher, S. Ehlert, A. Hansen, H. Neugebauer, S. Spicher,
     C. Bannwarth and S. Grimme, J. Chem. Phys., 2019, 150, 154122.
     DOI: 10.1063/1.5090222
   * E. Caldeweyher, J.-M. Mewes, S. Ehlert and S. Grimme, Phys. Chem. Chem. Phys.
     2020, 22, 8499-8512. DOI: 10.1039/D0CP00502A
   
   for sTDA-xTB:
   * S. Grimme and C. Bannwarth, J. Chem. Phys., 2016, 145, 054103.
     DOI: 10.1063/1.4959605
   
   in the mass-spec context:
   * V. Asgeirsson, C. Bauer and S. Grimme, Chem. Sci., 2017, 8, 4879.
     DOI: 10.1039/c7sc00601b
   * J. Koopman and S. Grimme, ACS Omega 2019, 4, 12, 15120-15133.
     DOI: 10.1021/acsomega.9b02011
   
   for metadynamics refer to:
   * S. Grimme, J. Chem. Theory Comput., 2019, 155, 2847-2862
     DOI: 10.1021/acs.jctc.9b00143
   
   for SPH calculations refer to:
   * S. Spicher and S. Grimme, J. Chem. Theory Comput., 2021, 17, 1701-1714
     DOI: 10.1021/acs.jctc.0c01306
   
   for ONIOM refer to:
   * C. Plett, A. Katbashev, S. Ehlert, S. Grimme, M. Bursch,
     Phys. Chem. Chem. Phys., 2023, 25, 17860-17868. DOI: 10.1039/D3CP02178E
   
   for DIPRO refer to:
   * J. Kohn, N. Gildemeister, S. Grimme, D. Fazzi, A. Hansen,
     J. Chem. Phys., 2023, just accepted.
   
   for PTB refer to:
   * S. Grimme, M. Mueller, A. Hansen, J. Chem. Phys., 2023, 158, 124111.
     DOI: 10.1063/5.0137838
   
   with help from (in alphabetical order)
   P. Atkinson, C. Bannwarth, F. Bohle, G. Brandenburg, E. Caldeweyher
   M. Checinski, S. Dohm, S. Ehlert, S. Ehrlich, I. Gerasimov, C. Hölzer
   A. Katbashev, J. Kohn, J. Koopman, C. Lavigne, S. Lehtola, F. März, M. Müller,
   F. Musil, H. Neugebauer, J. Pisarek, C. Plett, P. Pracht, F. Pultar,
   J. Seibert, P. Shushkov, S. Spicher, M. Stahn, M. Steiner, T. Strunk,
   J. Stückrath, T. Rose, and J. Unsleber
   
 * started run on 2025/04/11 at 03:45:56.004     
   ID    Z sym.   atoms
    1    6 C      1, 2, 7, 8, 10, 15, 16, 18, 19
    2    8 O      3, 6, 14, 17
    3   15 P      4, 12
    4   16 S      5, 9, 11, 13
    5    1 H      20-41

           -------------------------------------------------
          |                Calculation Setup                |
           -------------------------------------------------

          program call               : /srv/scratch/z5358697/.xtb/bin/xtb xtb_opt.coord --opt normal --orca -I xtb_opt-xcontrol-inp
          hostname                   : k163
          coordinate file            : xtb_opt.coord
          omp threads                :                    24

           -------------------------------------------------
          |                   Orca driver                   |
           -------------------------------------------------
orca executable           : /apps/z_install_tree/linux-rocky8-ivybridge/gcc-12.2.0/orca-6.0.0-srtngmq3qlimg2qxbl6avaaiffipurdx/bin/orca
orca input file           : xtb_opt.inp
orca input line           : 
orca parallel             : true
orca number of threads    : 24
                         * ORCA takes the control...
  ------------------------------------------------------------------------

                                 *****************
                                 * O   R   C   A *
                                 *****************

                                            #,                                       
                                            ###                                      
                                            ####                                     
                                            #####                                    
                                            ######                                   
                                           ########,                                 
                                     ,,################,,,,,                         
                               ,,#################################,,                 
                          ,,##########################################,,             
                       ,#########################################, ''#####,          
                    ,#############################################,,   '####,        
                  ,##################################################,,,,####,       
                ,###########''''           ''''###############################       
              ,#####''   ,,,,##########,,,,          '''####'''          '####       
            ,##' ,,,,###########################,,,                        '##       
           ' ,,###''''                  '''############,,,                           
         ,,##''                                '''############,,,,        ,,,,,,###''
      ,#''                                            '''#######################'''  
     '                                                          ''''####''''         
             ,#######,   #######,   ,#######,      ##                                
            ,#'     '#,  ##    ##  ,#'     '#,    #''#        ,####,   ,####,        
            ##       ##  ##   ,#'  ##            #'  '#       #'       #'  '#        
            ##       ##  #######   ##           ,######,      #####,   #    #        
            '#,     ,#'  ##    ##  '#,     ,#' ,#      #,     #,   #   #,  ,#        
             '#######'   ##     ##  '#######'  #'      '#     '####' # '####'        



                #########################################################
                #                        -***-                          #
                #          Department of theory and spectroscopy        #
                #                                                       #
                #                      Frank Neese                      #
                #                                                       #
                #     Directorship, Architecture, Infrastructure        #
                #                    SHARK, DRIVERS                     #
                #        Core code/Algorithms in most modules           #
                #                                                       #
                #        Max Planck Institute fuer Kohlenforschung      #
                #                Kaiser Wilhelm Platz 1                 #
                #                 D-45470 Muelheim/Ruhr                 #
                #                      Germany                          #
                #                                                       #
                #                  All rights reserved                  #
                #                        -***-                          #
                #########################################################


                         Program Version 6.0.0  -   RELEASE  -


 With contributions from (in alphabetic order):
   Daniel Aravena         : Magnetic Suceptibility
   Michael Atanasov       : Ab Initio Ligand Field Theory (pilot matlab implementation)
   Alexander A. Auer      : GIAO ZORA, VPT2 properties, NMR spectrum
   Ute Becker             : All parallelization in ORCA, NUMFREQ, NUMCALC
   Giovanni Bistoni       : ED, misc. LED, open-shell LED, HFLD
   Martin Brehm           : Molecular dynamics
   Dmytro Bykov           : pre 5.0 version of the SCF Hessian
   Marcos Casanova-Páez   : Triplet and SCS-CIS(D). UHF-(DLPNO)-IP/EA/STEOM-CCSD. UHF-CVS-IP/STEOM-CCSD
   Vijay G. Chilkuri      : MRCI spin determinant printing, contributions to CSF-ICE
   Pauline Colinet        : FMM embedding
   Dipayan Datta          : RHF DLPNO-CCSD density
   Achintya Kumar Dutta   : EOM-CC, STEOM-CC
   Nicolas Foglia         : Exact transition moments, OPA infrastructure, MCD improvements
   Dmitry Ganyushin       : Spin-Orbit,Spin-Spin,Magnetic field MRCI
   Miquel Garcia          : C-PCM and meta-GGA Hessian, CCSD/C-PCM, Gaussian charge scheme
   Tiago L. C. Gouveia    : GS-ROHF, GS-ROCIS
   Yang Guo               : DLPNO-NEVPT2, F12-NEVPT2, CIM, IAO-localization
   Andreas Hansen         : Spin unrestricted coupled pair/coupled cluster methods
   Ingolf Harden          : AUTO-CI MPn and infrastructure 
   Benjamin Helmich-Paris : MC-RPA, TRAH-(SCF,CASSCF), AVAS, COSX integrals, SCF dyn. polar.
   Lee Huntington         : MR-EOM, pCC
   Robert Izsak           : Overlap fitted RIJCOSX, COSX-SCS-MP3, EOM
   Riya Kayal             : Wick's Theorem for AUTO-CI, AUTO-CI UHF-CCSDT
   Emily Kempfer          : AUTO-CI, RHF CISDT and CCSDT
   Christian Kollmar      : KDIIS, OOCD, Brueckner-CCSD(T), CCSD density, CASPT2, CASPT2-K, improved NEVPT2
   Axel Koslowski         : Symmetry handling
   Simone Kossmann        : Meta GGA functionals, TD-DFT gradient, OOMP2, (MP2 Hessian; deprecated post 5.0)
   Lucas Lang             : DCDCAS
   Marvin Lechner         : AUTO-CI (C++ implementation), FIC-MRCC
   Spencer Leger          : CASSCF response
   Dagmar Lenk            : GEPOL surface, SMD, ORCA-2-JSON
   Dimitrios Liakos       : Extrapolation schemes; Compound Job, initial MDCI parallelization
   Dimitrios Manganas     : Further ROCIS development; embedding schemes. LFT, Crystal Embedding
   Dimitrios Pantazis     : SARC Basis sets
   Anastasios Papadopoulos: AUTO-CI, single reference methods and gradients
   Taras Petrenko         : pre 6.0 DFT Hessian and TD-DFT gradient, (ASA, deprecated), ECA, 1-Electron XAS/XES, NRVS
   Peter Pinski           : DLPNO-MP2, DLPNO-MP2 Gradient
   Christoph Reimann      : Effective Core Potentials
   Marius Retegan         : Local ZFS, SOC
   Christoph Riplinger    : Optimizer, TS searches, QM/MM, DLPNO-CCSD(T), (RO)-DLPNO pert. Triples
   Michael Roemelt        : Original ROCIS implementation
   Masaaki Saitow         : Open-shell DLPNO-CCSD energy and density
   Barbara Sandhoefer     : DKH picture change effects
   Kantharuban Sivalingam : CASSCF convergence/infrastructure, NEVPT2 and variants, FIC-MRCI
   Bernardo de Souza      : ESD, SOC TD-DFT
   Georgi Stoychev        : AutoAux, RI-MP2 NMR, DLPNO-MP2 response, X2C
   Van Anh Tran           : RI-MP2 g-tensors
   Willem Van den Heuvel  : Paramagnetic NMR
   Zikuan Wang            : NOTCH, Electric field optimization 
   Frank Wennmohs         : Technical directorship and infrastructure
   Hang Xu                : AUTO-CI-Response properties 


 We gratefully acknowledge several colleagues who have allowed us to
 interface, adapt or use parts of their codes:
   Stefan Grimme, W. Hujo, H. Kruse, P. Pracht,  : VdW corrections, initial TS optimization,
                  C. Bannwarth, S. Ehlert,         DFT functionals, gCP, sTDA/sTD-DF
                  L. Wittmann, M. Mueller
   Ed Valeev, F. Pavosevic, A. Kumar             : LibInt (2-el integral package), F12 methods
   Garnet Chan, S. Sharma, J. Yang, R. Olivares  : DMRG
   Ulf Ekstrom                                   : XCFun DFT Library
   Mihaly Kallay                                 : mrcc  (arbitrary order and MRCC methods)
   Frank Weinhold                                : gennbo (NPA and NBO analysis)
   Simon Mueller                                 : openCOSMO-RS
   Christopher J. Cramer and Donald G. Truhlar   : smd solvation model
   Lars Goerigk                                  : TD-DFT with DH, B97 family of functionals
   V. Asgeirsson, H. Jonsson                     : NEB implementation
   FAccTs GmbH                                   : IRC, NEB, NEB-TS, DLPNO-Multilevel, CI-OPT
                                                   MM, QMMM, 2- and 3-layer-ONIOM, Crystal-QMMM,
                                                   LR-CPCM, SF, NACMEs, symmetry and pop. for TD-DFT,
                                                   nearIR, NL-DFT gradient (VV10), updates on ESD,
                                                   ML-optimized integration grids, MBIS, APM,
                                                   GOAT, DOCKER, SOLVATOR, interface openCOSMO-RS
   S Lehtola, MJT Oliveira, MAL Marques          : LibXC Library
   Liviu Ungur et al                             : ANISO software


 Your calculation uses the libint2 library for the computation of 2-el integrals
 For citations please refer to: http://libint.valeyev.net

 Your ORCA version has been built with support for libXC version: 6.2.2
 For citations please refer to: https://libxc.gitlab.io

 This ORCA versions uses:
   CBLAS   interface :  Fast vector & matrix operations
   LAPACKE interface :  Fast linear algebra routines
   SCALAPACK package :  Parallel linear algebra routines
   Shared memory     :  Shared parallel matrices
   BLAS/LAPACK       :  OpenBLAS 0.3.27  USE64BITINT DYNAMIC_ARCH NO_AFFINITY SapphireRapids SINGLE_THREADED
        Core in use  :  SapphireRapids
   Copyright (c) 2011-2014, The OpenBLAS Project




***************************************
The coordinates will be read from file: xtb_opt.xyz
***************************************


Your calculation utilizes the geometrical counterpoise correction gCP
Please cite in your paper:
H.Kruse, S. Grimme J.Chem.Phys., 136, (2012), 154101 
   

Your calculation utilizes the atom-pairwise dispersion correction
based on EEQ partial charges (D4)


Your calculation utilizes the SMD solvation module
Please cite in your paper:
A.V. Marenich, C.J. Cramer, D.G. Truhlar J. Phys. Chem. B, 113, (2009), 6378 

================================================================================

----- Orbital basis set information -----
Your calculation utilizes the basis: def2-mTZVPP
   Stefan Grimme, Andreas Hansen, Sebastian Ehlert, and Jan-Michael Mewes 
   J. Chem. Phys. 154, 064103 (2021). DOI: 10.1063/5.0040021

----- AuxJ basis set information -----
Your calculation utilizes the auxiliary basis: def2/J
   F. Weigend, Phys. Chem. Chem. Phys. 8, 1057 (2006).

================================================================================
                                        WARNINGS
                       Please study these warnings very carefully!
================================================================================

WARNING: Old DensityContainer found on disk!
         Will remove this file - 
         If you want to keep old densities, please start your calculation with a different basename. 

Using LibXC functional ID 497 : Re-regularized SCAN exchange by Furness et al
[ 1]  J. W. Furness, A. D. Kaplan, J. Ning, J. P. Perdew, and J. Sun.,  J. Phys. Chem. Lett. 11, 8208-8215 (2020)
[ 2]  J. W. Furness, A. D. Kaplan, J. Ning, J. P. Perdew, and J. Sun.,  J. Phys. Chem. Lett. 11, 9248-9248 (2020)
Using LibXC functional ID 498 : Re-regularized SCAN correlation by Furness et al
[ 1]  J. W. Furness, A. D. Kaplan, J. Ning, J. P. Perdew, and J. Sun.,  J. Phys. Chem. Lett. 11, 8208-8215 (2020)
[ 2]  J. W. Furness, A. D. Kaplan, J. Ning, J. P. Perdew, and J. Sun.,  J. Phys. Chem. Lett. 11, 9248-9248 (2020)
Using LibXC functional ID 497 : Re-regularized SCAN exchange by Furness et al
[ 1]  J. W. Furness, A. D. Kaplan, J. Ning, J. P. Perdew, and J. Sun.,  J. Phys. Chem. Lett. 11, 8208-8215 (2020)
[ 2]  J. W. Furness, A. D. Kaplan, J. Ning, J. P. Perdew, and J. Sun.,  J. Phys. Chem. Lett. 11, 9248-9248 (2020)
Using LibXC functional ID 498 : Re-regularized SCAN correlation by Furness et al
[ 1]  J. W. Furness, A. D. Kaplan, J. Ning, J. P. Perdew, and J. Sun.,  J. Phys. Chem. Lett. 11, 8208-8215 (2020)
[ 2]  J. W. Furness, A. D. Kaplan, J. Ning, J. P. Perdew, and J. Sun.,  J. Phys. Chem. Lett. 11, 9248-9248 (2020)

================================================================================
                                       INPUT FILE
================================================================================
NAME = xtb_opt.inp
|  1> ! r2scan-3c def2/J RI DEFGRID2 scfconv7 ENGRAD tightSCF miniprint
|  2> %cpcm
|  3>     smd true
|  4>     smdsolvent "water"
|  5> end
|  6> * xyzfile 0 1 xtb_opt.xyz
|  7> 
|  8>                          ****END OF INPUT****
================================================================================

                     *******************************
                     * Energy+Gradient Calculation *
                     *******************************

---------------------------------
CARTESIAN COORDINATES (ANGSTROEM)
---------------------------------
  C      0.777079   -0.556598    3.384702
  C      1.803997   -0.850862    2.322367
  O      1.455292   -0.021271    1.156731
  P      2.246088   -0.151017   -0.232207
  S      2.758410   -1.940232   -0.804925
  O      3.434149    0.909355    0.006340
  C      4.518141    1.075167   -0.975543
  C      5.835755    0.873531   -0.272668
  S      0.989101    0.934346   -1.541305
  C     -0.092595   -0.397684   -2.198038
  S     -1.155238   -1.309134   -1.011151
  P     -2.446316    0.229119   -0.337591
  S     -3.020579    1.530834   -1.667937
  O     -1.627912    0.786730    0.927168
  C     -1.925794    2.095676    1.526622
  C     -3.222393    2.082335    2.298671
  O     -3.593826   -0.632498    0.395909
  C     -4.873511   -0.973631   -0.241273
  C     -4.751678   -2.173604   -1.146835
  H      0.790277    0.501578    3.661936
  H     -0.226299   -0.824907    3.040716
  H      1.008104   -1.149866    4.274831
  H      1.782743   -1.900308    2.013579
  H      2.816854   -0.585060    2.642106
  H      4.384647    0.358167   -1.791390
  H      4.412217    2.088858   -1.370796
  H      6.649957    1.055283   -0.981356
  H      5.944145    1.571172    0.562724
  H      5.924407   -0.149900    0.103138
  H      0.524323   -1.164257   -2.675363
  H     -0.720600    0.088568   -2.950325
  H     -1.068877    2.273715    2.180018
  H     -1.928682    2.845264    0.729008
  H     -3.341491    3.049812    2.797283
  H     -4.083126    1.931978    1.639857
  H     -3.215082    1.298398    3.061320
  H     -5.533346   -1.174483    0.605274
  H     -5.238056   -0.091093   -0.775520
  H     -4.335366   -3.030601   -0.609061
  H     -5.751759   -2.442761   -1.502559
  H     -4.126513   -1.960627   -2.018522

----------------------------
CARTESIAN COORDINATES (A.U.)
----------------------------
  NO LB      ZA    FRAG     MASS         X           Y           Z
   0 C     6.0000    0    12.011    1.468467   -1.051817    6.396159
   1 C     6.0000    0    12.011    3.409060   -1.607896    4.388637
   2 O     8.0000    0    15.999    2.750104   -0.040197    2.185905
   3 P    15.0000    0    30.974    4.244491   -0.285380   -0.438808
   4 S    16.0000    0    32.060    5.212640   -3.666507   -1.521087
   5 O     8.0000    0    15.999    6.489601    1.718432    0.011981
   6 C     6.0000    0    12.011    8.538050    2.031771   -1.843510
   7 C     6.0000    0    12.011   11.027980    1.650734   -0.515268
   8 S    16.0000    0    32.060    1.869131    1.765657   -2.912645
   9 C     6.0000    0    12.011   -0.174980   -0.751515   -4.153691
  10 S    16.0000    0    32.060   -2.183083   -2.473904   -1.910799
  11 P    15.0000    0    30.974   -4.622868    0.432972   -0.637954
  12 S    16.0000    0    32.060   -5.708068    2.892858   -3.151945
  13 O     8.0000    0    15.999   -3.076308    1.486705    1.752094
  14 C     6.0000    0    12.011   -3.639224    3.960254    2.884898
  15 C     6.0000    0    12.011   -6.089439    3.935042    4.343859
  16 O     8.0000    0    15.999   -6.791347   -1.195248    0.748161
  17 C     6.0000    0    12.011   -9.209601   -1.839895   -0.455940
  18 C     6.0000    0    12.011   -8.979369   -4.107517   -2.167204
  19 H     1.0000    0     1.008    1.493408    0.947845    6.920057
  20 H     1.0000    0     1.008   -0.427643   -1.558848    5.746120
  21 H     1.0000    0     1.008    1.905040   -2.172932    8.078261
  22 H     1.0000    0     1.008    3.368896   -3.591061    3.805114
  23 H     1.0000    0     1.008    5.323082   -1.105603    4.992857
  24 H     1.0000    0     1.008    8.285782    0.676838   -3.385236
  25 H     1.0000    0     1.008    8.337881    3.947369   -2.590428
  26 H     1.0000    0     1.008   12.566598    1.994195   -1.854494
  27 H     1.0000    0     1.008   11.232806    2.969085    1.063394
  28 H     1.0000    0     1.008   11.195507   -0.283270    0.194902
  29 H     1.0000    0     1.008    0.990826   -2.200127   -5.055702
  30 H     1.0000    0     1.008   -1.361737    0.167369   -5.575306
  31 H     1.0000    0     1.008   -2.019886    4.296699    4.119637
  32 H     1.0000    0     1.008   -3.644681    5.376769    1.377625
  33 H     1.0000    0     1.008   -6.314502    5.763310    5.286100
  34 H     1.0000    0     1.008   -7.715990    3.650910    3.098880
  35 H     1.0000    0     1.008   -6.075625    2.453617    5.785056
  36 H     1.0000    0     1.008  -10.456508   -2.219452    1.143802
  37 H     1.0000    0     1.008   -9.898490   -0.172141   -1.465520
  38 H     1.0000    0     1.008   -8.192654   -5.727007   -1.150958
  39 H     1.0000    0     1.008  -10.869250   -4.616150   -2.839425
  40 H     1.0000    0     1.008   -7.797979   -3.705048   -3.814454

------------------------------------------------------------------------------
                   ___                                                        
                  /   \      - P O W E R E D   B Y -                         
                 /     \                                                     
                 |  |  |   _    _      __       _____    __    __             
                 |  |  |  | |  | |    /  \     |  _  \  |  |  /  |          
                  \  \/   | |  | |   /    \    | | | |  |  | /  /          
                 / \  \   | |__| |  /  /\  \   | |_| |  |  |/  /          
                |  |  |   |  __  | /  /__\  \  |    /   |      \           
                |  |  |   | |  | | |   __   |  |    \   |  |\   \          
                \     /   | |  | | |  |  |  |  | |\  \  |  | \   \       
                 \___/    |_|  |_| |__|  |__|  |_| \__\ |__|  \__/        
                                                                              
                      - O R C A' S   B I G   F R I E N D -                    
                                      &                                       
                       - I N T E G R A L  F E E D E R -                       
                                                                              
 v1 FN, 2020, v2 2021, v3 2022-2024                                           
------------------------------------------------------------------------------


----------------------
SHARK INTEGRAL PACKAGE
----------------------

Number of atoms                             ...     41
Number of basis functions                   ...    539
Number of shells                            ...    253
Maximum angular momentum                    ...      2
Integral batch strategy                     ... SHARK/LIBINT Hybrid
RI-J (if used) integral strategy            ... SPLIT-RIJ (Revised 2003 algorithm where possible)
Printlevel                                  ...      1
Contraction scheme used                     ... SEGMENTED contraction
Prescreening option                         ... SCHWARTZ
   Thresh                                   ... 3.000e-11
   Tcut                                     ... 1.000e-12
   Tpresel                                  ... 1.000e-12 
Coulomb Range Separation                    ... NOT USED
Exchange Range Separation                   ... NOT USED
Multipole approximations                    ... NOT USED
Finite Nucleus Model                        ... NOT USED
CABS basis                                  ... NOT available
Auxiliary Coulomb fitting basis             ... AVAILABLE
   # of basis functions in Aux-J            ...   1185
   # of shells in Aux-J                     ...    407
   Maximum angular momentum in Aux-J        ...      4
Auxiliary J/K fitting basis                 ... NOT available
Auxiliary Correlation fitting basis         ... NOT available
Auxiliary 'external' fitting basis          ... NOT available

Checking pre-screening integrals            ... done (  0.0 sec) Dimension = 253
Check shell pair data                       ... done (  0.0 sec)
Shell pair information
Shell pair cut-off parameter TPreSel        ...   1.0e-12
Total number of shell pairs                 ...     32131
Shell pairs after pre-screening             ...     21391
Total number of primitive shell pairs       ...    124843
Primitive shell pairs kept                  ...     50056
          la=0 lb=0:   6032 shell pairs
          la=1 lb=0:   7756 shell pairs
          la=1 lb=1:   2546 shell pairs
          la=2 lb=0:   2864 shell pairs
          la=2 lb=1:   1840 shell pairs
          la=2 lb=2:    353 shell pairs

Calculating one electron integrals          ... done (  0.1 sec)
Calculating RI/J V-Matrix + Cholesky decomp.... done (  0.2 sec)
Calculating Nuclear repulsion               ... done (  0.1 sec) ENN=   2708.218472277820 Eh

Diagonalization of the overlap matrix:
Smallest eigenvalue                        ... 3.090e-04
Time for diagonalization                   ...    0.031 sec
Threshold for overlap eigenvalues          ... 1.000e-07
Number of eigenvalues below threshold      ... 0
Time for construction of square roots      ...    0.164 sec
Total time needed                          ...    0.232 sec

-------------------
DFT GRID GENERATION
-------------------

General Integration Accuracy     IntAcc      ... 4.388
Radial Grid Type                 RadialGrid  ... OptM3 with GC (2021)
Angular Grid (max. ang.)         AngularGrid ... 4 (Lebedev-302)
Angular grid pruning method      GridPruning ... 4 (adaptive)
Weight generation scheme         WeightScheme... mBecke (2022)
Basis function cutoff            BFCut       ... 1.0000e-11
Integration weight cutoff        WCut        ... 1.0000e-14
Partially contracted basis set               ... off
Rotationally invariant grid construction     ... off
Angular grids for H and He will be reduced by one unit
Diffuse basis detected: some atoms will have their outermost
                        angular grid increased by 1.

Total number of grid points                  ...   193100
Total number of batches                      ...     3042
Average number of points per batch           ...       63
Average number of grid points per atom       ...     4710
Initializing property integral containers    ... done (  0.0 sec)

SHARK setup successfully completed in   3.7 seconds

Maximum memory used throughout the entire STARTUP-calculation: 101.9 MB
Occupation numbers will be reassigned to an Aufbau configuration
             **** ENERGY FILE WAS UPDATED (xtb_opt.en.tmp) ****
Finished Guess after   1.0 sec
Maximum memory used throughout the entire GUESS-calculation: 55.5 MB
--------------------
CPCM SOLVATION MODEL
--------------------
CPCM parameters:
  Epsilon                                         ...      78.3550
  Refrac                                          ...       1.3328
  Rsolv                                           ...       1.3000
  Surface type                                    ... GAUSSIAN VDW
  Discretization scheme                           ... Constant charge density
    Threshold for H atoms                         ...       5.0000 (charges/Ang^2)
    Threshold for non-H atoms                     ...       5.0000 (charges/Ang^2)
  Epsilon function type                           ...         CPCM
Solvent:                                          ... WATER
SMD-CDS solvent descriptors:
  Soln                                            ...       1.3328
  Soln25                                          ...       1.3323
  Sola                                            ...       0.0000
  Solb                                            ...       0.0000
  Solg                                            ...       0.0000
  Solc                                            ...       0.0000
  Solh                                            ...       0.0000
Radii:
  Scheme                                          ... Element-dependent radii
  Radius for C  used is    3.4960 Bohr (=   1.8500 Ang.)
  Radius for O  used is    2.8724 Bohr (=   1.5200 Ang.)
  Radius for P  used is    4.0062 Bohr (=   2.1200 Ang.)
  Radius for S  used is    4.7054 Bohr (=   2.4900 Ang.)
  Radius for H  used is    2.2677 Bohr (=   1.2000 Ang.)
Calculating surface                               ...        done! (  0.0s)
Cavity surface points                             ...         3472
Cavity Volume                                     ...    2834.7692
Cavity Surface-area                               ...    1458.3544
Calculating surface distance matrix               ...        done! (  0.1s)
Performing Cholesky decomposition & store         ...        done! (  0.5s)
Overall time for CPCM initialization              ...                 0.5s

----------------------------------------D-I-I-S--------------------------------------------
Iteration    Energy (Eh)           Delta-E    RMSDP     MaxDP     DIISErr   Damp  Time(sec)
-------------------------------------------------------------------------------------------
               ***  Starting incremental Fock matrix formation  ***
                              *** Initializing SOSCF ***
---------------------------------------S-O-S-C-F--------------------------------------
Iteration    Energy (Eh)           Delta-E    RMSDP     MaxDP     MaxGrad    Time(sec)
--------------------------------------------------------------------------------------
    1    -2932.5206061882213362     0.00e+00  1.30e-06  9.22e-05  8.37e-06    14.2
               *** Restarting incremental Fock matrix formation ***
    2    -2932.5206061892899925    -1.07e-09  1.84e-06  1.36e-04  1.59e-05    13.4
                  *** Gradient check signals convergence ***

               *****************************************************
               *                     SUCCESS                       *
               *           SCF CONVERGED AFTER   2 CYCLES          *
               *****************************************************


SMD CDS free energy correction energy :                 7.26115     Kcal/mol
Total Energy after SMD CDS correction =             -2932.509034818 Eh
             **** ENERGY FILE WAS UPDATED (xtb_opt.en.tmp) ****

----------------
TOTAL SCF ENERGY
----------------

Total Energy       :      -2932.50903481785554 Eh          -79797.62767 eV

Components:
Nuclear Repulsion  :       2708.21847227781973 Eh           73694.37118 eV
Electronic Energy  :      -5640.71083932218062 Eh         -153491.54530 eV
One Electron Energy:      -9439.65038802322306 Eh         -256865.94587 eV
Two Electron Energy:       3798.93954870104199 Eh          103374.40057 eV
CPCM Dielectric    :         -0.02823914492943 Eh              -0.76843 eV
SMD CDS (Gcds)     :          0.01157137143453 Eh               0.31487 eV

Virial components:
Potential Energy   :      -5855.61102975818540 Eh         -159339.27677 eV
Kinetic Energy     :       2923.10199494032940 Eh           79541.64910 eV
Virial Ratio       :          2.00321817024990

DFT components:
N(Alpha)           :      101.000158534469 electrons
N(Beta)            :      101.000158534469 electrons
N(Total)           :      202.000317068937 electrons
E(X)               :     -233.397323863460 Eh       
E(C)               :       -7.102289556355 Eh       
E(XC)              :     -240.499613419815 Eh       

CPCM Solvation Model Properties:
Surface-charge          :         -0.04626266272234
Corrected charge        :         -0.00000000000000
Outlying charge corr.   :          0.00010809129349 Eh               0.00294 eV
Free-energy (cav+disp)  :          0.01157137143453 Eh               0.31487 eV

---------------
SCF CONVERGENCE
---------------

  Last Energy change         ...    1.0687e-09  Tolerance :   1.0000e-07
  Last MAX-Density change    ...    1.3641e-04  Tolerance :   1.0000e-07
  Last RMS-Density change    ...    1.8372e-06  Tolerance :   5.0000e-09
  Last DIIS Error            ...    7.4174e-05  Tolerance :   1.0000e-07
  Last Orbital Gradient      ...    1.5918e-05  Tolerance :   1.0000e-04
  Last Orbital Rotation      ...    4.8210e-05  Tolerance :   1.0000e-04


----------------
ORBITAL ENERGIES
----------------

  NO   OCC          E(Eh)            E(eV) 
   0   2.0000     -88.582843     -2410.4617 
   1   2.0000     -88.582151     -2410.4429 
   2   2.0000     -88.531993     -2409.0780 
   3   2.0000     -88.530993     -2409.0508 
   4   2.0000     -76.921025     -2093.1275 
   5   2.0000     -76.920900     -2093.1241 
   6   2.0000     -18.994164      -516.8575 
   7   2.0000     -18.993920      -516.8509 
   8   2.0000     -18.992291      -516.8065 
   9   2.0000     -18.991609      -516.7879 
  10   2.0000     -10.110477      -275.1201 
  11   2.0000     -10.092266      -274.6245 
  12   2.0000     -10.091747      -274.6104 
  13   2.0000     -10.091617      -274.6068 
  14   2.0000     -10.091446      -274.6022 
  15   2.0000     -10.022139      -272.7163 
  16   2.0000     -10.021912      -272.7101 
  17   2.0000     -10.021675      -272.7036 
  18   2.0000     -10.021316      -272.6939 
  19   2.0000      -7.876404      -214.3278 
  20   2.0000      -7.875702      -214.3088 
  21   2.0000      -7.827212      -212.9893 
  22   2.0000      -7.826275      -212.9638 
  23   2.0000      -6.598751      -179.5611 
  24   2.0000      -6.598581      -179.5565 
  25   2.0000      -5.823425      -158.4634 
  26   2.0000      -5.822722      -158.4443 
  27   2.0000      -5.820075      -158.3723 
  28   2.0000      -5.819464      -158.3557 
  29   2.0000      -5.813723      -158.1994 
  30   2.0000      -5.812927      -158.1778 
  31   2.0000      -5.774612      -157.1352 
  32   2.0000      -5.773685      -157.1099 
  33   2.0000      -5.767536      -156.9426 
  34   2.0000      -5.767330      -156.9370 
  35   2.0000      -5.766569      -156.9163 
  36   2.0000      -5.766407      -156.9119 
  37   2.0000      -4.744179      -129.0957 
  38   2.0000      -4.743882      -129.0876 
  39   2.0000      -4.743662      -129.0816 
  40   2.0000      -4.743406      -129.0746 
  41   2.0000      -4.742746      -129.0567 
  42   2.0000      -4.742716      -129.0559 
  43   2.0000      -1.039997       -28.2998 
  44   2.0000      -1.038592       -28.2615 
  45   2.0000      -1.000455       -27.2238 
  46   2.0000      -0.999547       -27.1991 
  47   2.0000      -0.795287       -21.6408 
  48   2.0000      -0.755792       -20.5661 
  49   2.0000      -0.742316       -20.1994 
  50   2.0000      -0.724331       -19.7101 
  51   2.0000      -0.723585       -19.6897 
  52   2.0000      -0.711104       -19.3501 
  53   2.0000      -0.693157       -18.8618 
  54   2.0000      -0.677360       -18.4319 
  55   2.0000      -0.629489       -17.1293 
  56   2.0000      -0.613435       -16.6924 
  57   2.0000      -0.595191       -16.1960 
  58   2.0000      -0.594485       -16.1767 
  59   2.0000      -0.585932       -15.9440 
  60   2.0000      -0.530206       -14.4276 
  61   2.0000      -0.515556       -14.0290 
  62   2.0000      -0.493131       -13.4188 
  63   2.0000      -0.485369       -13.2076 
  64   2.0000      -0.468634       -12.7522 
  65   2.0000      -0.452101       -12.3023 
  66   2.0000      -0.448275       -12.1982 
  67   2.0000      -0.446219       -12.1422 
  68   2.0000      -0.438886       -11.9427 
  69   2.0000      -0.424757       -11.5582 
  70   2.0000      -0.417686       -11.3658 
  71   2.0000      -0.411875       -11.2077 
  72   2.0000      -0.405926       -11.0458 
  73   2.0000      -0.402182       -10.9439 
  74   2.0000      -0.390363       -10.6223 
  75   2.0000      -0.384400       -10.4600 
  76   2.0000      -0.380702       -10.3594 
  77   2.0000      -0.366126        -9.9628 
  78   2.0000      -0.364994        -9.9320 
  79   2.0000      -0.358107        -9.7446 
  80   2.0000      -0.353804        -9.6275 
  81   2.0000      -0.349860        -9.5202 
  82   2.0000      -0.345279        -9.3955 
  83   2.0000      -0.343544        -9.3483 
  84   2.0000      -0.340309        -9.2603 
  85   2.0000      -0.335158        -9.1201 
  86   2.0000      -0.321319        -8.7435 
  87   2.0000      -0.312026        -8.4907 
  88   2.0000      -0.310082        -8.4378 
  89   2.0000      -0.304466        -8.2849 
  90   2.0000      -0.299518        -8.1503 
  91   2.0000      -0.290077        -7.8934 
  92   2.0000      -0.283466        -7.7135 
  93   2.0000      -0.280566        -7.6346 
  94   2.0000      -0.278430        -7.5765 
  95   2.0000      -0.253910        -6.9093 
  96   2.0000      -0.242161        -6.5895 
  97   2.0000      -0.236834        -6.4446 
  98   2.0000      -0.231972        -6.3123 
  99   2.0000      -0.225412        -6.1338 
 100   2.0000      -0.223200        -6.0736 
 101   0.0000      -0.052520        -1.4292 
 102   0.0000      -0.028711        -0.7813 
 103   0.0000      -0.011970        -0.3257 
 104   0.0000      -0.002966        -0.0807 
 105   0.0000       0.002207         0.0601 
 106   0.0000       0.017490         0.4759 
 107   0.0000       0.027459         0.7472 
 108   0.0000       0.029749         0.8095 
 109   0.0000       0.041227         1.1219 
 110   0.0000       0.066141         1.7998 
 111   0.0000       0.073033         1.9873 
*Only the first 10 virtual orbitals were printed.
Total SCF time: 0 days 0 hours 0 min 30 sec 
Finished LeanSCF after  30.6 sec

Maximum memory used throughout the entire LEANSCF-calculation: 139.0 MB


-------------------------------------------------------------------------------
                          DFT DISPERSION CORRECTION                            
                                                                               
                                DFTD4 V3.4.0                                   
-------------------------------------------------------------------------------
-------------------------   ----------------
Dispersion correction           -0.020471905
-------------------------   ----------------

------------------   -----------------
gCP correction             0.044786639
------------------   -----------------

-------------------------   --------------------
FINAL SINGLE POINT ENERGY     -2932.484720084225
-------------------------   --------------------

------------------------------------------------------------------------------
                         ORCA SCF GRADIENT CALCULATION
------------------------------------------------------------------------------

Nuc. rep. gradient        (SHARK) ... done (  0.0 sec)
HCore & Overlap gradient  (SHARK) ... done (  2.0 sec)
Split-RIJ-J gradient      (SHARK) ... done (  9.3 sec)
XC gradient                       ... done ( 22.7 sec)
CPCM gradient                     ... done (  8.9 sec)
SMD gradient                      ... done (  0.0 sec)
Dispersion correction             ... done (  0.0 sec)

-------------------
DISPERSION GRADIENT
-------------------

   1   C   :    0.000034233   -0.000046326    0.000189300
   2   C   :    0.000061541   -0.000064349    0.000147643
   3   O   :    0.000084446   -0.000020919    0.000107846
   4   P   :    0.000193889   -0.000055368   -0.000057415
   5   S   :    0.000134466   -0.000255101   -0.000082825
   6   O   :    0.000090417    0.000065198   -0.000006833
   7   C   :    0.000099448    0.000057879   -0.000041560
   8   C   :    0.000132769    0.000038233    0.000003657
   9   S   :    0.000090379    0.000107795   -0.000248830
  10   C   :    0.000011896   -0.000030852   -0.000159734
  11   S   :   -0.000043655   -0.000194612   -0.000192925
  12   P   :   -0.000201325    0.000052956   -0.000083889
  13   S   :   -0.000140398    0.000200888   -0.000199592
  14   O   :   -0.000076343    0.000082199    0.000071855
  15   C   :   -0.000064418    0.000146530    0.000086024
  16   C   :   -0.000066083    0.000100092    0.000117251
  17   O   :   -0.000107362   -0.000057855    0.000024922
  18   C   :   -0.000120840   -0.000061459   -0.000008445
  19   C   :   -0.000097636   -0.000100591   -0.000027074
  20   H   :    0.000021309   -0.000004778    0.000069929
  21   H   :    0.000021276   -0.000033341    0.000089176
  22   H   :    0.000002639   -0.000013354    0.000042817
  23   H   :    0.000016524   -0.000039231    0.000052962
  24   H   :    0.000006229   -0.000010110    0.000061890
  25   H   :    0.000045749    0.000012943   -0.000018675
  26   H   :    0.000038214    0.000041156   -0.000011358
  27   H   :    0.000038256    0.000011180   -0.000003936
  28   H   :    0.000044791    0.000021013    0.000007179
  29   H   :    0.000061590    0.000009481    0.000003072
  30   H   :    0.000005467   -0.000028223   -0.000055744
  31   H   :    0.000002382    0.000005190   -0.000064020
  32   H   :   -0.000018894    0.000066517    0.000053463
  33   H   :   -0.000019082    0.000064812    0.000023729
  34   H   :   -0.000014158    0.000032853    0.000036558
  35   H   :   -0.000019986    0.000039577    0.000046103
  36   H   :   -0.000025899    0.000030047    0.000055401
  37   H   :   -0.000050900   -0.000033727    0.000014296
  38   H   :   -0.000052494   -0.000013559   -0.000011524
  39   H   :   -0.000036475   -0.000046773   -0.000000466
  40   H   :   -0.000034970   -0.000030373   -0.000010977
  41   H   :   -0.000046993   -0.000045638   -0.000019250

Difference to translation invariance:
           :    0.0000000000    0.0000000000    0.0000000000

Difference to rotation invariance:
           :   -0.0000000000   -0.0000000000    0.0000000000

Norm of the Dispersion gradient    ...    0.0009090814
RMS gradient                       ...    0.0000819691
MAX gradient                       ...    0.0002551006
gCP correction                   ... done

------------------
CARTESIAN GRADIENT
------------------

   1   C   :    0.000067317   -0.000075583   -0.000103376
   2   C   :    0.000027198   -0.000300016    0.000557607
   3   O   :   -0.000270414    0.000218318   -0.000114392
   4   P   :    0.000259886    0.000111829   -0.000528916
   5   S   :   -0.000078183    0.000279859    0.000121846
   6   O   :    0.000151587   -0.000115275   -0.000062151
   7   C   :   -0.000310498    0.000004990    0.000104289
   8   C   :    0.000099077    0.000026167    0.000008098
   9   S   :    0.000201073   -0.000080008    0.000237062
  10   C   :    0.000043925   -0.000064321   -0.000249848
  11   S   :   -0.000144548    0.000054032    0.000084378
  12   P   :    0.000097937    0.000051993    0.000231543
  13   S   :   -0.000056511    0.000033081   -0.000161311
  14   O   :   -0.000010890   -0.000041639    0.000101510
  15   C   :    0.000013622   -0.000177496   -0.000080710
  16   C   :   -0.000037279    0.000095528    0.000068247
  17   O   :   -0.000024098   -0.000087305    0.000000850
  18   C   :    0.000033819   -0.000056167   -0.000006665
  19   C   :    0.000000801   -0.000007684    0.000021260
  20   H   :   -0.000006140    0.000169056    0.000005836
  21   H   :   -0.000156665   -0.000030223   -0.000096351
  22   H   :   -0.000023629   -0.000000859    0.000032302
  23   H   :   -0.000042779   -0.000103461   -0.000137569
  24   H   :    0.000098110    0.000016642   -0.000031672
  25   H   :    0.000072664   -0.000002343    0.000000646
  26   H   :    0.000050439    0.000012577   -0.000036013
  27   H   :    0.000005824    0.000011782    0.000046852
  28   H   :   -0.000001940   -0.000047867    0.000023772
  29   H   :    0.000009735   -0.000008628   -0.000018201
  30   H   :    0.000024946    0.000067180    0.000035995
  31   H   :   -0.000089640   -0.000010772    0.000049099
  32   H   :    0.000027713    0.000007469    0.000010486
  33   H   :    0.000001290    0.000051520   -0.000051825
  34   H   :   -0.000049706    0.000023252   -0.000082933
  35   H   :    0.000010523   -0.000040927   -0.000028813
  36   H   :    0.000007105    0.000053322    0.000012298
  37   H   :    0.000001211    0.000009480    0.000029792
  38   H   :   -0.000019645    0.000027816   -0.000002716
  39   H   :   -0.000015056   -0.000062540    0.000064362
  40   H   :   -0.000034945    0.000001945   -0.000048499
  41   H   :    0.000066764   -0.000014723   -0.000006168

Difference to translation invariance:
           :   -0.0000000000    0.0000000000    0.0000000000

Difference to rotation invariance:
           :   -0.0003524117   -0.0014600573    0.0004997336

Norm of the Cartesian gradient     ...    0.0013155736
RMS gradient                       ...    0.0001186213
MAX gradient                       ...    0.0005576070

-------
TIMINGS
-------

Total SCF gradient time     ....       48.852 sec

Densities                   ....       0.007 sec  (  0.0%)
One electron gradient       ....       2.004 sec  (  4.1%)
RI-J Coulomb gradient       ....       9.313 sec  ( 19.1%)
XC gradient                 ....      22.692 sec  ( 46.5%)
CPCM gradient               ....       8.924 sec  ( 18.3%)
   A-Matrix (El+Nuc)        ....       0.267 sec  (  0.5%)
   Potential                ....       8.657 sec  ( 17.7%)
SMD gradient                ....       0.016 sec  (  0.0%)

Maximum memory used throughout the entire SCFGRAD-calculation: 84.5 MB

------------------------------------------------------------------------------
                              ORCA PROPERTY CALCULATIONS
------------------------------------------------------------------------------

GBWName                                 ... xtb_opt.gbw
Number of atoms                         ...     41
Number of basis functions               ...    539
Max core memory                         ...   1024 MB

Electric properties:
Dipole moment                           ... YES
Quadrupole moment                       ...  NO
Static polarizability (Dipole/Dipole)   ...  NO
Static polarizability (Dipole/Quad.)    ...  NO
Static polarizability (Quad./Quad.)     ...  NO
Static polarizability (Velocity)        ...  NO

Atomic electric properties:
Dipole moment                           ...  NO
Quadrupole moment                       ...  NO
Static polarizability                   ...  NO

Choice of electric origin               ... Center of mass
Position of electric origin             ...    -0.264527     0.052440    -0.343180

General magnetic properties:
Magnetizability                         ...  NO

EPR properties:
g-Tensor (aka g-matrix)                 ...  NO
Zero-Field splitting spin-orbit         ...  NO
Zero-field splitting spin-spin          ...  NO
Hyperfine couplings                     ...  NO (   0 nuclei)
Quadrupole couplings                    ...  NO (   0 nuclei)
Contact density                         ...  NO (   0 nuclei)

NMR properties:
Chemical shifts                         ...  NO (   0 nuclei)
Spin-rotation constants                 ...  NO (   0 nuclei)
Spin-spin couplings                     ...  NO (   0 nuclei,    0 pairs)

Choice of magnetic origin               ... GIAO
Position of magnetic origin             ...     0.000000     0.000000     0.000000

Properties with geometric perturbations:
SCF Hessian                             ...  NO
IR spectrum                             ...  NO
VCD spectrum                            ...  NO
X-ray spectroscopy properties:
SCF XES/XAS/RIXS spectra                ...  NO


-------------
DIPOLE MOMENT
-------------

Method             : SCF
Type of density    : Electron Density
Multiplicity       :   1
Irrep              :   0
Energy             : -2932.5090348178555359 Eh
Relativity type    : 
Basis              : AO
                                X                 Y                 Z
Electronic contribution:      2.025330531      -1.503894265     -14.883628672
Nuclear contribution   :     -2.184394220       1.875613046      15.960461716
                        -----------------------------------------
Total Dipole Moment    :     -0.159063689       0.371718781       1.076833044
                        -----------------------------------------
Magnitude (a.u.)       :      1.150237155
Magnitude (Debye)      :      2.923670501



--------------------
Rotational spectrum 
--------------------
 
Rotational constants in cm-1:             0.012746             0.004507             0.004271 
Rotational constants in MHz :           382.119909           135.110179           128.028299 

Dipole components along the rotational axes: 
x,y,z [a.u.] :    -0.154035    -1.138964    -0.045607 
x,y,z [Debye]:    -0.391526    -2.895016    -0.115923 

 

Dipole moment calculation done in   0.0 sec 

Maximum memory used throughout the entire PROP-calculation: 51.7 MB

--------------------------------
SUGGESTED CITATIONS FOR THIS RUN
--------------------------------

Below you find a list of papers that are relevant to this ORCA run
We neither can nor want to force you to cite these papers, but we appreciate if you do
You receive ORCA, which is the product of decades of hard work by many enthusiastic individuals, for free
The only thing we kindly ask in return is that you cite our papers,
We deeply appreciate it, if you show your appreciation for ORCA by not just citing the generic ORCA reference.

Please note that relegating all ORCA citations to the supporting information does *not* help us.
SI sections are not indexed - citations you put there will not count into any citation statistics
But we need these citations in order to attract the funding resources that allow us to do what we are doing

Therefore, if you are a happy ORCA user, please consider citing a few of the papers listed below in the main body of your paper

In addition to the list printed below, the program has created the file xtb_opt.bibtex that contains the list in bibtex format
You can import this file easily into all common literature databanks and citation aid programs


List of essential papers. We consider these as the minimum necessary citations

  1. Neese,F.
     Software update: the ORCA program system, version 5.0
     WIRES Comput. Molec. Sci., 2022 12(1)e1606
     doi.org/10.1002/wcms.1606
  2. Grimme,S.; Hansen,A.; Ehlert,S.; Mewes,J.
     r2SCAN-3c: A 'Swiss army knife' composite electronic-structure method
     J. Chem. Phys., 2021 154 064103
     doi.org/10.1063/5.0040021

List of papers to cite with high priority. The work reported in these papers was absolutely
necessary for this run to complete.
Our perspective: the developers of density functionals and basis sets usually get cited in chemistry papers
Good! But without the algorithms to do something with them, the functionals or basis sets would not do anything.
Hence, in our opinion, the algorithm design and method developments papers are equally worthy of getting cited

  1. Neese,F.
     An improvement of the resolution of the identity approximation for the formation of the Coulomb matrix
     J. Comp. Chem., 2003 24(14)1740-1747
     doi.org/10.1002/jcc.10318
  2. Garcia-Rates,M.; Neese,F.
     Effect of the Solute Cavity on the Solvation Energy and its Derivatives within the Framework of the Gaussian Charge Scheme
     J. Comput. Chem., 2020 41 922-939
     doi.org/10.1002/jcc.26139
  3. Neese,F.
     The SHARK Integral Generation and Digestion System
     J. Comp. Chem., 2022  1-16
     doi.org/10.1002/jcc.26942
  4. Lehtola,S.; Steigemann,C.; Oliveira,M.; Marques,M.
     Recent developments in Libxc - A comprehensive library of functionals for density functional theory
     Software X, 2018 7 
     doi.org/10.1016/j.softx.2017.11.002
  5. Caldeweyher,E.; Bannwarth,C.; Grimme,S.
     Extension of the D3 dispersion coefficient model
     J. Chem. Phys., 2017 147 034112-XXXX
     doi.org/10.1063/1.4993215
  6. Caldeweyher,E.; Ehlert,S.; Hansen,A.; Neugebauer,H.; Spicher,S.; Bannwarth,C.; Grimme,S.
     A generally applicable atomic-charge dependent London dispersion correction
     J. Chem. Phys., 2019 150 154122-XXXX
     doi.org/10.1063/1.5090222
  7. Caldeweyher,E.; Mewes,J.; Ehlert,S.; Grimme,S.
     Extension and evaluation of the D4 London-dispersion model for periodic systems
     Phys. Chem. Chem. Phys., 2020 22(16)8499-8512
     doi.org/10.1039/D0CP00502A

List of suggested additional citations. These are papers that are important in the 'surrounding' of 
of this run, or papers that preceded the highly important papers. If you like your results we are grateful for a citation.

  1. Neese,F.
     The ORCA program system
     WIRES Comput. Molec. Sci., 2012 2(1)73-78
     doi.org/10.1002/wcms.81
  2. Neese,F.
     Software update: the ORCA program system, version 4.0
     WIRES Comput. Molec. Sci., 2018 8(1)1-6
     doi.org/10.1002/wcms.1327
  3. Neese,F.; Wennmohs,F.; Becker,U.; Riplinger,C.
     The ORCA quantum chemistry program package
     J. Chem. Phys., 2020 152 Art. No. L224108
     doi.org/10.1063/5.0004608

List of optional additional citations

  1. Neese,F.
     Approximate second-order SCF convergence for spin unrestricted wavefunctions
     Chem. Phys. Lett., 2000 325(1-3)93-98
     doi.org/10.1016/s0009-2614(00)00662-x

Timings for individual modules:

Sum of individual times          ...       84.897 sec (=   1.415 min)
Startup calculation              ...        3.790 sec (=   0.063 min)   4.5 %
SCF iterations                   ...       31.780 sec (=   0.530 min)  37.4 %
Property calculations            ...        0.309 sec (=   0.005 min)   0.4 %
SCF Gradient evaluation          ...       49.018 sec (=   0.817 min)  57.7 %
                             ****ORCA TERMINATED NORMALLY****
TOTAL RUN TIME: 0 days 0 hours 1 minutes 25 seconds 980 msec
  ------------------------------------------------------------------------
          * successful ORCA run, taking over control again...

         :::::::::::::::::::::::::::::::::::::::::::::::::::::
         ::                  ORCA SUMMARY                   ::
         :::::::::::::::::::::::::::::::::::::::::::::::::::::
         :: total energy           -2932.484720084225 Eh    ::
         :: gradient norm              0.001315573569 Eh/a0 ::
         :: HOMO-LUMO gap              0.000000000000 eV    ::
         :::::::::::::::::::::::::::::::::::::::::::::::::::::

      ----------------------------------------------------------- 
     |                       L-ANC optimizer                     |
      ----------------------------------------------------------- 
          low memory version by Sebastian Ehlert

          ...................................................
          :                      SETUP                      :
          :.................................................:
          :   energy convergence        0.5000000E-05 Eh    :
          :   grad. convergence         0.1000000E-02 Eh/a0 :
          :   optimization log               true           :
          :   writing optlog all                1     steps :
          :   Hessian reset                     8     steps :
          :   maximium step len.        1.0000000     a0    :
          :   LBFGS images                      8           :
          ...................................................
 * calculating model hessian...
Using Lindh-Hessian (1995)
 Shifting diagonal of input Hessian by   1.000000000000000E-002
 Lowest  eigenvalues of input Hessian
    0.000000    0.000000    0.000000    0.000000    0.000000    0.000000
    0.010004    0.010011    0.010323    0.010542    0.010704    0.011400
    0.011578    0.011783    0.012030    0.012136    0.012282    0.012852
 Highest eigenvalues
    1.291503    1.295874    1.723650    1.732198    1.870365    1.875367
 

........................................................................
.............................. CYCLE    1 ..............................
........................................................................
                         * ORCA takes the control...
  ------------------------------------------------------------------------

                                 *****************
                                 * O   R   C   A *
                                 *****************

                                            #,                                       
                                            ###                                      
                                            ####                                     
                                            #####                                    
                                            ######                                   
                                           ########,                                 
                                     ,,################,,,,,                         
                               ,,#################################,,                 
                          ,,##########################################,,             
                       ,#########################################, ''#####,          
                    ,#############################################,,   '####,        
                  ,##################################################,,,,####,       
                ,###########''''           ''''###############################       
              ,#####''   ,,,,##########,,,,          '''####'''          '####       
            ,##' ,,,,###########################,,,                        '##       
           ' ,,###''''                  '''############,,,                           
         ,,##''                                '''############,,,,        ,,,,,,###''
      ,#''                                            '''#######################'''  
     '                                                          ''''####''''         
             ,#######,   #######,   ,#######,      ##                                
            ,#'     '#,  ##    ##  ,#'     '#,    #''#        ,####,   ,####,        
            ##       ##  ##   ,#'  ##            #'  '#       #'       #'  '#        
            ##       ##  #######   ##           ,######,      #####,   #    #        
            '#,     ,#'  ##    ##  '#,     ,#' ,#      #,     #,   #   #,  ,#        
             '#######'   ##     ##  '#######'  #'      '#     '####' # '####'        



                #########################################################
                #                        -***-                          #
                #          Department of theory and spectroscopy        #
                #                                                       #
                #                      Frank Neese                      #
                #                                                       #
                #     Directorship, Architecture, Infrastructure        #
                #                    SHARK, DRIVERS                     #
                #        Core code/Algorithms in most modules           #
                #                                                       #
                #        Max Planck Institute fuer Kohlenforschung      #
                #                Kaiser Wilhelm Platz 1                 #
                #                 D-45470 Muelheim/Ruhr                 #
                #                      Germany                          #
                #                                                       #
                #                  All rights reserved                  #
                #                        -***-                          #
                #########################################################


                         Program Version 6.0.0  -   RELEASE  -


 With contributions from (in alphabetic order):
   Daniel Aravena         : Magnetic Suceptibility
   Michael Atanasov       : Ab Initio Ligand Field Theory (pilot matlab implementation)
   Alexander A. Auer      : GIAO ZORA, VPT2 properties, NMR spectrum
   Ute Becker             : All parallelization in ORCA, NUMFREQ, NUMCALC
   Giovanni Bistoni       : ED, misc. LED, open-shell LED, HFLD
   Martin Brehm           : Molecular dynamics
   Dmytro Bykov           : pre 5.0 version of the SCF Hessian
   Marcos Casanova-Páez   : Triplet and SCS-CIS(D). UHF-(DLPNO)-IP/EA/STEOM-CCSD. UHF-CVS-IP/STEOM-CCSD
   Vijay G. Chilkuri      : MRCI spin determinant printing, contributions to CSF-ICE
   Pauline Colinet        : FMM embedding
   Dipayan Datta          : RHF DLPNO-CCSD density
   Achintya Kumar Dutta   : EOM-CC, STEOM-CC
   Nicolas Foglia         : Exact transition moments, OPA infrastructure, MCD improvements
   Dmitry Ganyushin       : Spin-Orbit,Spin-Spin,Magnetic field MRCI
   Miquel Garcia          : C-PCM and meta-GGA Hessian, CCSD/C-PCM, Gaussian charge scheme
   Tiago L. C. Gouveia    : GS-ROHF, GS-ROCIS
   Yang Guo               : DLPNO-NEVPT2, F12-NEVPT2, CIM, IAO-localization
   Andreas Hansen         : Spin unrestricted coupled pair/coupled cluster methods
   Ingolf Harden          : AUTO-CI MPn and infrastructure 
   Benjamin Helmich-Paris : MC-RPA, TRAH-(SCF,CASSCF), AVAS, COSX integrals, SCF dyn. polar.
   Lee Huntington         : MR-EOM, pCC
   Robert Izsak           : Overlap fitted RIJCOSX, COSX-SCS-MP3, EOM
   Riya Kayal             : Wick's Theorem for AUTO-CI, AUTO-CI UHF-CCSDT
   Emily Kempfer          : AUTO-CI, RHF CISDT and CCSDT
   Christian Kollmar      : KDIIS, OOCD, Brueckner-CCSD(T), CCSD density, CASPT2, CASPT2-K, improved NEVPT2
   Axel Koslowski         : Symmetry handling
   Simone Kossmann        : Meta GGA functionals, TD-DFT gradient, OOMP2, (MP2 Hessian; deprecated post 5.0)
   Lucas Lang             : DCDCAS
   Marvin Lechner         : AUTO-CI (C++ implementation), FIC-MRCC
   Spencer Leger          : CASSCF response
   Dagmar Lenk            : GEPOL surface, SMD, ORCA-2-JSON
   Dimitrios Liakos       : Extrapolation schemes; Compound Job, initial MDCI parallelization
   Dimitrios Manganas     : Further ROCIS development; embedding schemes. LFT, Crystal Embedding
   Dimitrios Pantazis     : SARC Basis sets
   Anastasios Papadopoulos: AUTO-CI, single reference methods and gradients
   Taras Petrenko         : pre 6.0 DFT Hessian and TD-DFT gradient, (ASA, deprecated), ECA, 1-Electron XAS/XES, NRVS
   Peter Pinski           : DLPNO-MP2, DLPNO-MP2 Gradient
   Christoph Reimann      : Effective Core Potentials
   Marius Retegan         : Local ZFS, SOC
   Christoph Riplinger    : Optimizer, TS searches, QM/MM, DLPNO-CCSD(T), (RO)-DLPNO pert. Triples
   Michael Roemelt        : Original ROCIS implementation
   Masaaki Saitow         : Open-shell DLPNO-CCSD energy and density
   Barbara Sandhoefer     : DKH picture change effects
   Kantharuban Sivalingam : CASSCF convergence/infrastructure, NEVPT2 and variants, FIC-MRCI
   Bernardo de Souza      : ESD, SOC TD-DFT
   Georgi Stoychev        : AutoAux, RI-MP2 NMR, DLPNO-MP2 response, X2C
   Van Anh Tran           : RI-MP2 g-tensors
   Willem Van den Heuvel  : Paramagnetic NMR
   Zikuan Wang            : NOTCH, Electric field optimization 
   Frank Wennmohs         : Technical directorship and infrastructure
   Hang Xu                : AUTO-CI-Response properties 


 We gratefully acknowledge several colleagues who have allowed us to
 interface, adapt or use parts of their codes:
   Stefan Grimme, W. Hujo, H. Kruse, P. Pracht,  : VdW corrections, initial TS optimization,
                  C. Bannwarth, S. Ehlert,         DFT functionals, gCP, sTDA/sTD-DF
                  L. Wittmann, M. Mueller
   Ed Valeev, F. Pavosevic, A. Kumar             : LibInt (2-el integral package), F12 methods
   Garnet Chan, S. Sharma, J. Yang, R. Olivares  : DMRG
   Ulf Ekstrom                                   : XCFun DFT Library
   Mihaly Kallay                                 : mrcc  (arbitrary order and MRCC methods)
   Frank Weinhold                                : gennbo (NPA and NBO analysis)
   Simon Mueller                                 : openCOSMO-RS
   Christopher J. Cramer and Donald G. Truhlar   : smd solvation model
   Lars Goerigk                                  : TD-DFT with DH, B97 family of functionals
   V. Asgeirsson, H. Jonsson                     : NEB implementation
   FAccTs GmbH                                   : IRC, NEB, NEB-TS, DLPNO-Multilevel, CI-OPT
                                                   MM, QMMM, 2- and 3-layer-ONIOM, Crystal-QMMM,
                                                   LR-CPCM, SF, NACMEs, symmetry and pop. for TD-DFT,
                                                   nearIR, NL-DFT gradient (VV10), updates on ESD,
                                                   ML-optimized integration grids, MBIS, APM,
                                                   GOAT, DOCKER, SOLVATOR, interface openCOSMO-RS
   S Lehtola, MJT Oliveira, MAL Marques          : LibXC Library
   Liviu Ungur et al                             : ANISO software


 Your calculation uses the libint2 library for the computation of 2-el integrals
 For citations please refer to: http://libint.valeyev.net

 Your ORCA version has been built with support for libXC version: 6.2.2
 For citations please refer to: https://libxc.gitlab.io

 This ORCA versions uses:
   CBLAS   interface :  Fast vector & matrix operations
   LAPACKE interface :  Fast linear algebra routines
   SCALAPACK package :  Parallel linear algebra routines
   Shared memory     :  Shared parallel matrices
   BLAS/LAPACK       :  OpenBLAS 0.3.27  USE64BITINT DYNAMIC_ARCH NO_AFFINITY SapphireRapids SINGLE_THREADED
        Core in use  :  SapphireRapids
   Copyright (c) 2011-2014, The OpenBLAS Project




***************************************
The coordinates will be read from file: xtb_opt.xyz
***************************************


Your calculation utilizes the geometrical counterpoise correction gCP
Please cite in your paper:
H.Kruse, S. Grimme J.Chem.Phys., 136, (2012), 154101 
   

Your calculation utilizes the atom-pairwise dispersion correction
based on EEQ partial charges (D4)


Your calculation utilizes the SMD solvation module
Please cite in your paper:
A.V. Marenich, C.J. Cramer, D.G. Truhlar J. Phys. Chem. B, 113, (2009), 6378 

================================================================================

----- Orbital basis set information -----
Your calculation utilizes the basis: def2-mTZVPP
   Stefan Grimme, Andreas Hansen, Sebastian Ehlert, and Jan-Michael Mewes 
   J. Chem. Phys. 154, 064103 (2021). DOI: 10.1063/5.0040021

----- AuxJ basis set information -----
Your calculation utilizes the auxiliary basis: def2/J
   F. Weigend, Phys. Chem. Chem. Phys. 8, 1057 (2006).

================================================================================
                                        WARNINGS
                       Please study these warnings very carefully!
================================================================================

WARNING: Old DensityContainer found on disk!
         Will remove this file - 
         If you want to keep old densities, please start your calculation with a different basename. 

Using LibXC functional ID 497 : Re-regularized SCAN exchange by Furness et al
[ 1]  J. W. Furness, A. D. Kaplan, J. Ning, J. P. Perdew, and J. Sun.,  J. Phys. Chem. Lett. 11, 8208-8215 (2020)
[ 2]  J. W. Furness, A. D. Kaplan, J. Ning, J. P. Perdew, and J. Sun.,  J. Phys. Chem. Lett. 11, 9248-9248 (2020)
Using LibXC functional ID 498 : Re-regularized SCAN correlation by Furness et al
[ 1]  J. W. Furness, A. D. Kaplan, J. Ning, J. P. Perdew, and J. Sun.,  J. Phys. Chem. Lett. 11, 8208-8215 (2020)
[ 2]  J. W. Furness, A. D. Kaplan, J. Ning, J. P. Perdew, and J. Sun.,  J. Phys. Chem. Lett. 11, 9248-9248 (2020)
Using LibXC functional ID 497 : Re-regularized SCAN exchange by Furness et al
[ 1]  J. W. Furness, A. D. Kaplan, J. Ning, J. P. Perdew, and J. Sun.,  J. Phys. Chem. Lett. 11, 8208-8215 (2020)
[ 2]  J. W. Furness, A. D. Kaplan, J. Ning, J. P. Perdew, and J. Sun.,  J. Phys. Chem. Lett. 11, 9248-9248 (2020)
Using LibXC functional ID 498 : Re-regularized SCAN correlation by Furness et al
[ 1]  J. W. Furness, A. D. Kaplan, J. Ning, J. P. Perdew, and J. Sun.,  J. Phys. Chem. Lett. 11, 8208-8215 (2020)
[ 2]  J. W. Furness, A. D. Kaplan, J. Ning, J. P. Perdew, and J. Sun.,  J. Phys. Chem. Lett. 11, 9248-9248 (2020)

================================================================================
                                       INPUT FILE
================================================================================
NAME = xtb_opt.inp
|  1> ! r2scan-3c def2/J RI DEFGRID2 scfconv7 ENGRAD tightSCF miniprint
|  2> %cpcm
|  3>     smd true
|  4>     smdsolvent "water"
|  5> end
|  6> * xyzfile 0 1 xtb_opt.xyz
|  7> 
|  8>                          ****END OF INPUT****
================================================================================

                     *******************************
                     * Energy+Gradient Calculation *
                     *******************************

---------------------------------
CARTESIAN COORDINATES (ANGSTROEM)
---------------------------------
  C      0.778479   -0.556172    3.386655
  C      1.804655   -0.849112    2.323208
  O      1.454664   -0.021554    1.157528
  P      2.244753   -0.152601   -0.231340
  S      2.758194   -1.942403   -0.804632
  O      3.432134    0.909080    0.005841
  C      4.516795    1.074534   -0.975851
  C      5.834356    0.873651   -0.272903
  S      0.988952    0.934397   -1.542636
  C     -0.092190   -0.398554   -2.197606
  S     -1.154567   -1.310366   -1.011153
  P     -2.445854    0.229373   -0.339934
  S     -3.020364    1.533099   -1.667386
  O     -1.627379    0.787425    0.924665
  C     -1.925819    2.095572    1.526065
  C     -3.221907    2.080475    2.298825
  O     -3.593528   -0.631265    0.394385
  C     -4.873506   -0.972582   -0.242142
  C     -4.751788   -2.172459   -1.147803
  H      0.790835    0.501585    3.664246
  H     -0.224743   -0.825273    3.043754
  H      1.010852   -1.149647    4.276194
  H      1.784716   -1.898865    2.016167
  H      2.817073   -0.582235    2.642793
  H      4.382936    0.357265   -1.791385
  H      4.410389    2.088085   -1.371256
  H      6.648352    1.054452   -0.982164
  H      5.943080    1.572614    0.561395
  H      5.923158   -0.149257    0.104296
  H      0.524499   -1.165584   -2.674665
  H     -0.719172    0.087393   -2.950929
  H     -1.068803    2.273098    2.179380
  H     -1.929351    2.846103    0.729531
  H     -3.339920    3.046716    2.800223
  H     -4.083335    1.932513    1.640393
  H     -3.214569    1.294668    3.059572
  H     -5.532965   -1.173818    0.604574
  H     -5.238447   -0.090276   -0.776327
  H     -4.333740   -3.028996   -0.610851
  H     -5.752054   -2.442767   -1.501851
  H     -4.128297   -1.958930   -2.020441

----------------------------
CARTESIAN COORDINATES (A.U.)
----------------------------
  NO LB      ZA    FRAG     MASS         X           Y           Z
   0 C     6.0000    0    12.011    1.471112   -1.051013    6.399850
   1 C     6.0000    0    12.011    3.410303   -1.604589    4.390228
   2 O     8.0000    0    15.999    2.748916   -0.040732    2.187411
   3 P    15.0000    0    30.974    4.241968   -0.288375   -0.437170
   4 S    16.0000    0    32.060    5.212232   -3.670610   -1.520535
   5 O     8.0000    0    15.999    6.485793    1.717913    0.011038
   6 C     6.0000    0    12.011    8.535505    2.030575   -1.844092
   7 C     6.0000    0    12.011   11.025335    1.650962   -0.515712
   8 S    16.0000    0    32.060    1.868849    1.765755   -2.915160
   9 C     6.0000    0    12.011   -0.174214   -0.753158   -4.152873
  10 S    16.0000    0    32.060   -2.181815   -2.476234   -1.910803
  11 P    15.0000    0    30.974   -4.621995    0.433453   -0.642383
  12 S    16.0000    0    32.060   -5.707660    2.897137   -3.150903
  13 O     8.0000    0    15.999   -3.075301    1.488017    1.747364
  14 C     6.0000    0    12.011   -3.639271    3.960057    2.883845
  15 C     6.0000    0    12.011   -6.088521    3.931528    4.344149
  16 O     8.0000    0    15.999   -6.790783   -1.192919    0.745280
  17 C     6.0000    0    12.011   -9.209591   -1.837913   -0.457582
  18 C     6.0000    0    12.011   -8.979579   -4.105353   -2.169034
  19 H     1.0000    0     1.008    1.494462    0.947858    6.924421
  20 H     1.0000    0     1.008   -0.424703   -1.559539    5.751862
  21 H     1.0000    0     1.008    1.910234   -2.172518    8.080836
  22 H     1.0000    0     1.008    3.372625   -3.588335    3.810003
  23 H     1.0000    0     1.008    5.323496   -1.100265    4.994156
  24 H     1.0000    0     1.008    8.282549    0.675132   -3.385228
  25 H     1.0000    0     1.008    8.334427    3.945908   -2.591299
  26 H     1.0000    0     1.008   12.563565    1.992626   -1.856021
  27 H     1.0000    0     1.008   11.230794    2.971809    1.060882
  28 H     1.0000    0     1.008   11.193146   -0.282055    0.197091
  29 H     1.0000    0     1.008    0.991160   -2.202634   -5.054384
  30 H     1.0000    0     1.008   -1.359038    0.165148   -5.576448
  31 H     1.0000    0     1.008   -2.019745    4.295533    4.118431
  32 H     1.0000    0     1.008   -3.645945    5.378355    1.378613
  33 H     1.0000    0     1.008   -6.311535    5.757458    5.291656
  34 H     1.0000    0     1.008   -7.716384    3.651920    3.099893
  35 H     1.0000    0     1.008   -6.074654    2.446568    5.781753
  36 H     1.0000    0     1.008  -10.455788   -2.218195    1.142480
  37 H     1.0000    0     1.008   -9.899230   -0.170598   -1.467046
  38 H     1.0000    0     1.008   -8.189582   -5.723972   -1.154341
  39 H     1.0000    0     1.008  -10.869807   -4.616162   -2.838087
  40 H     1.0000    0     1.008   -7.801352   -3.701841   -3.818080

------------------------------------------------------------------------------
                   ___                                                        
                  /   \      - P O W E R E D   B Y -                         
                 /     \                                                     
                 |  |  |   _    _      __       _____    __    __             
                 |  |  |  | |  | |    /  \     |  _  \  |  |  /  |          
                  \  \/   | |  | |   /    \    | | | |  |  | /  /          
                 / \  \   | |__| |  /  /\  \   | |_| |  |  |/  /          
                |  |  |   |  __  | /  /__\  \  |    /   |      \           
                |  |  |   | |  | | |   __   |  |    \   |  |\   \          
                \     /   | |  | | |  |  |  |  | |\  \  |  | \   \       
                 \___/    |_|  |_| |__|  |__|  |_| \__\ |__|  \__/        
                                                                              
                      - O R C A' S   B I G   F R I E N D -                    
                                      &                                       
                       - I N T E G R A L  F E E D E R -                       
                                                                              
 v1 FN, 2020, v2 2021, v3 2022-2024                                           
------------------------------------------------------------------------------


----------------------
SHARK INTEGRAL PACKAGE
----------------------

Number of atoms                             ...     41
Number of basis functions                   ...    539
Number of shells                            ...    253
Maximum angular momentum                    ...      2
Integral batch strategy                     ... SHARK/LIBINT Hybrid
RI-J (if used) integral strategy            ... SPLIT-RIJ (Revised 2003 algorithm where possible)
Printlevel                                  ...      1
Contraction scheme used                     ... SEGMENTED contraction
Prescreening option                         ... SCHWARTZ
   Thresh                                   ... 3.000e-11
   Tcut                                     ... 1.000e-12
   Tpresel                                  ... 1.000e-12 
Coulomb Range Separation                    ... NOT USED
Exchange Range Separation                   ... NOT USED
Multipole approximations                    ... NOT USED
Finite Nucleus Model                        ... NOT USED
CABS basis                                  ... NOT available
Auxiliary Coulomb fitting basis             ... AVAILABLE
   # of basis functions in Aux-J            ...   1185
   # of shells in Aux-J                     ...    407
   Maximum angular momentum in Aux-J        ...      4
Auxiliary J/K fitting basis                 ... NOT available
Auxiliary Correlation fitting basis         ... NOT available
Auxiliary 'external' fitting basis          ... NOT available

Checking pre-screening integrals            ... done (  0.0 sec) Dimension = 253
Check shell pair data                       ... done (  0.0 sec)
Shell pair information
Shell pair cut-off parameter TPreSel        ...   1.0e-12
Total number of shell pairs                 ...     32131
Shell pairs after pre-screening             ...     21394
Total number of primitive shell pairs       ...    124843
Primitive shell pairs kept                  ...     50063
          la=0 lb=0:   6032 shell pairs
          la=1 lb=0:   7759 shell pairs
          la=1 lb=1:   2546 shell pairs
          la=2 lb=0:   2864 shell pairs
          la=2 lb=1:   1840 shell pairs
          la=2 lb=2:    353 shell pairs

Calculating one electron integrals          ... done (  0.1 sec)
Calculating RI/J V-Matrix + Cholesky decomp.... done (  0.2 sec)
[...]
CPCM gradient                     ... done (  7.9 sec)
SMD gradient                      ... done (  0.0 sec)
Dispersion correction             ... done (  0.0 sec)

-------------------
DISPERSION GRADIENT
-------------------

   1   C   :    0.000034282   -0.000045097    0.000188337
   2   C   :    0.000061259   -0.000062841    0.000147999
   3   O   :    0.000084582   -0.000020602    0.000108173
   4   P   :    0.000194343   -0.000056826   -0.000056876
   5   S   :    0.000134445   -0.000256500   -0.000080946
   6   O   :    0.000090399    0.000064949   -0.000007188
   7   C   :    0.000099541    0.000057905   -0.000042277
   8   C   :    0.000133091    0.000038693    0.000002980
   9   S   :    0.000089622    0.000105916   -0.000248674
  10   C   :    0.000012228   -0.000032141   -0.000159045
  11   S   :   -0.000043671   -0.000196230   -0.000191539
  12   P   :   -0.000199763    0.000053194   -0.000083978
  13   S   :   -0.000138725    0.000202771   -0.000199972
  14   O   :   -0.000076341    0.000081916    0.000070907
  15   C   :   -0.000064874    0.000146078    0.000086381
  16   C   :   -0.000066383    0.000098994    0.000118386
  17   O   :   -0.000107185   -0.000056829    0.000025112
  18   C   :   -0.000121304   -0.000060864   -0.000008881
  19   C   :   -0.000098078   -0.000099965   -0.000027691
  20   H   :    0.000021342   -0.000004382    0.000069518
  21   H   :    0.000021187   -0.000033039    0.000088651
  22   H   :    0.000002557   -0.000012982    0.000042436
  23   H   :    0.000015903   -0.000038499    0.000052800
  24   H   :    0.000006196   -0.000009179    0.000062010
  25   H   :    0.000045807    0.000012876   -0.000018806
  26   H   :    0.000038213    0.000041275   -0.000011721
  27   H   :    0.000038430    0.000011214   -0.000004151
  28   H   :    0.000044747    0.000021216    0.000006829
  29   H   :    0.000061833    0.000009745    0.000002837
  30   H   :    0.000005445   -0.000028752   -0.000055334
  31   H   :    0.000002685    0.000004695   -0.000063974
  32   H   :   -0.000019301    0.000066335    0.000053489
  33   H   :   -0.000018909    0.000064679    0.000023907
  34   H   :   -0.000014288    0.000032461    0.000036801
  35   H   :   -0.000019938    0.000039228    0.000046577
  36   H   :   -0.000026209    0.000029417    0.000055800
  37   H   :   -0.000051131   -0.000033530    0.000014071
  38   H   :   -0.000052725   -0.000013154   -0.000011610
  39   H   :   -0.000036803   -0.000046930   -0.000000687
  40   H   :   -0.000035118   -0.000030237   -0.000010951
  41   H   :   -0.000047389   -0.000044980   -0.000019702

Difference to translation invariance:
           :   -0.0000000000   -0.0000000000    0.0000000000

Difference to rotation invariance:
           :   -0.0000000000    0.0000000000   -0.0000000000

Norm of the Dispersion gradient    ...    0.0009086084
RMS gradient                       ...    0.0000819265
MAX gradient                       ...    0.0002564996
gCP correction                   ... done

------------------
CARTESIAN GRADIENT
------------------

   1   C   :    0.000056007   -0.000072549   -0.000037822
   2   C   :   -0.000000561   -0.000093684    0.000245077
   3   O   :   -0.000218630    0.000175017    0.000062519
   4   P   :    0.000084218   -0.000066857   -0.000273811
   5   S   :    0.000100696   -0.000072394    0.000029369
   6   O   :   -0.000022735   -0.000013272   -0.000026598
   7   C   :   -0.000123236   -0.000050551    0.000064628
   8   C   :    0.000094387    0.000048442   -0.000025732
   9   S   :   -0.000031539    0.000306258   -0.000064105
  10   C   :    0.000136229   -0.000157954   -0.000111937
  11   S   :   -0.000069775    0.000116448    0.000105406
  12   P   :   -0.000077593   -0.000003832    0.000103686
  13   S   :    0.000041045   -0.000003213   -0.000037378
  14   O   :    0.000065039   -0.000053670   -0.000117958
  15   C   :    0.000018686   -0.000017119   -0.000011182
  16   C   :   -0.000062882    0.000021809    0.000008441
  17   O   :   -0.000085615    0.000050087    0.000004170
  18   C   :    0.000078438   -0.000034557    0.000040928
  19   C   :    0.000001644   -0.000016074   -0.000020546
  20   H   :    0.000003753    0.000020198    0.000034392
  21   H   :   -0.000032508    0.000007684   -0.000028325
  22   H   :   -0.000028403   -0.000035060    0.000016041
  23   H   :    0.000000270   -0.000064727   -0.000019471
  24   H   :    0.000051183   -0.000010916    0.000032959
  25   H   :   -0.000002883    0.000014537   -0.000001112
  26   H   :   -0.000032418    0.000025165    0.000002976
  27   H   :   -0.000001412   -0.000034217    0.000028777
  28   H   :    0.000003061   -0.000000272    0.000011602
  29   H   :   -0.000055005   -0.000007321    0.000017802
  30   H   :    0.000001920   -0.000003379    0.000015466
  31   H   :    0.000038604    0.000041611    0.000044373
  32   H   :    0.000001075    0.000045815   -0.000025317
  33   H   :   -0.000006584    0.000000282   -0.000040473
  34   H   :    0.000023217   -0.000056276   -0.000003776
  35   H   :    0.000004811    0.000030972   -0.000009615
  36   H   :    0.000005620   -0.000017378   -0.000078259
  37   H   :   -0.000011878   -0.000002048    0.000001944
  38   H   :   -0.000004299    0.000019203   -0.000014912
  39   H   :    0.000053365    0.000024626    0.000022835
  40   H   :    0.000030101   -0.000048206    0.000048556
  41   H   :   -0.000025410   -0.000012624    0.000006379

Difference to translation invariance:
           :    0.0000000000    0.0000000000   -0.0000000000

Difference to rotation invariance:
           :   -0.0002964746   -0.0015041281    0.0006463290

Norm of the Cartesian gradient     ...    0.0007766497
RMS gradient                       ...    0.0000700281
MAX gradient                       ...    0.0003062577

-------
TIMINGS
-------

Total SCF gradient time     ....       47.219 sec

Densities                   ....       0.007 sec  (  0.0%)
One electron gradient       ....       1.997 sec  (  4.2%)
RI-J Coulomb gradient       ....       9.322 sec  ( 19.7%)
XC gradient                 ....      22.076 sec  ( 46.8%)
CPCM gradient               ....       7.870 sec  ( 16.7%)
   A-Matrix (El+Nuc)        ....       0.269 sec  (  0.6%)
   Potential                ....       7.602 sec  ( 16.1%)
SMD gradient                ....       0.016 sec  (  0.0%)

Maximum memory used throughout the entire SCFGRAD-calculation: 84.6 MB

------------------------------------------------------------------------------
                              ORCA PROPERTY CALCULATIONS
------------------------------------------------------------------------------

GBWName                                 ... xtb_opt.gbw
Number of atoms                         ...     41
Number of basis functions               ...    539
Max core memory                         ...   1024 MB

Electric properties:
Dipole moment                           ... YES
Quadrupole moment                       ...  NO
Static polarizability (Dipole/Dipole)   ...  NO
Static polarizability (Dipole/Quad.)    ...  NO
Static polarizability (Quad./Quad.)     ...  NO
Static polarizability (Velocity)        ...  NO

Atomic electric properties:
Dipole moment                           ...  NO
Quadrupole moment                       ...  NO
Static polarizability                   ...  NO

Choice of electric origin               ... Center of mass
Position of electric origin             ...    -0.269949     0.047640    -0.345674

General magnetic properties:
Magnetizability                         ...  NO

EPR properties:
g-Tensor (aka g-matrix)                 ...  NO
Zero-Field splitting spin-orbit         ...  NO
Zero-field splitting spin-spin          ...  NO
Hyperfine couplings                     ...  NO (   0 nuclei)
Quadrupole couplings                    ...  NO (   0 nuclei)
Contact density                         ...  NO (   0 nuclei)

NMR properties:
Chemical shifts                         ...  NO (   0 nuclei)
Spin-rotation constants                 ...  NO (   0 nuclei)
Spin-spin couplings                     ...  NO (   0 nuclei,    0 pairs)

Choice of magnetic origin               ... GIAO
Position of magnetic origin             ...     0.000000     0.000000     0.000000

Properties with geometric perturbations:
SCF Hessian                             ...  NO
IR spectrum                             ...  NO
VCD spectrum                            ...  NO
X-ray spectroscopy properties:
SCF XES/XAS/RIXS spectra                ...  NO


-------------
DIPOLE MOMENT
-------------

Method             : SCF
Type of density    : Electron Density
Multiplicity       :   1
Irrep              :   0
Energy             : -2932.5090665045122478 Eh
Relativity type    : 
Basis              : AO
                                X                 Y                 Z
Electronic contribution:      1.928780342      -1.575598097     -14.938037292
Nuclear contribution   :     -2.079621565       1.952161697      16.021281449
                        -----------------------------------------
Total Dipole Moment    :     -0.150841223       0.376563600       1.083244157
                        -----------------------------------------
Magnitude (a.u.)       :      1.156707017
Magnitude (Debye)      :      2.940115583



--------------------
Rotational spectrum 
--------------------
 
Rotational constants in cm-1:             0.012725             0.004517             0.004271 
Rotational constants in MHz :           381.488989           135.421204           128.036034 

Dipole components along the rotational axes: 
x,y,z [a.u.] :    -0.141651    -1.147630    -0.029197 
x,y,z [Debye]:    -0.360047    -2.917043    -0.074212 

 

Dipole moment calculation done in   0.1 sec 

Maximum memory used throughout the entire PROP-calculation: 51.8 MB

--------------------------------
SUGGESTED CITATIONS FOR THIS RUN
--------------------------------

Below you find a list of papers that are relevant to this ORCA run
We neither can nor want to force you to cite these papers, but we appreciate if you do
You receive ORCA, which is the product of decades of hard work by many enthusiastic individuals, for free
The only thing we kindly ask in return is that you cite our papers,
We deeply appreciate it, if you show your appreciation for ORCA by not just citing the generic ORCA reference.

Please note that relegating all ORCA citations to the supporting information does *not* help us.
SI sections are not indexed - citations you put there will not count into any citation statistics
But we need these citations in order to attract the funding resources that allow us to do what we are doing

Therefore, if you are a happy ORCA user, please consider citing a few of the papers listed below in the main body of your paper

In addition to the list printed below, the program has created the file xtb_opt.bibtex that contains the list in bibtex format
You can import this file easily into all common literature databanks and citation aid programs


List of essential papers. We consider these as the minimum necessary citations

  1. Neese,F.
     Software update: the ORCA program system, version 5.0
     WIRES Comput. Molec. Sci., 2022 12(1)e1606
     doi.org/10.1002/wcms.1606
  2. Grimme,S.; Hansen,A.; Ehlert,S.; Mewes,J.
     r2SCAN-3c: A 'Swiss army knife' composite electronic-structure method
     J. Chem. Phys., 2021 154 064103
     doi.org/10.1063/5.0040021

List of papers to cite with high priority. The work reported in these papers was absolutely
necessary for this run to complete.
Our perspective: the developers of density functionals and basis sets usually get cited in chemistry papers
Good! But without the algorithms to do something with them, the functionals or basis sets would not do anything.
Hence, in our opinion, the algorithm design and method developments papers are equally worthy of getting cited

  1. Neese,F.
     An improvement of the resolution of the identity approximation for the formation of the Coulomb matrix
     J. Comp. Chem., 2003 24(14)1740-1747
     doi.org/10.1002/jcc.10318
  2. Garcia-Rates,M.; Neese,F.
     Effect of the Solute Cavity on the Solvation Energy and its Derivatives within the Framework of the Gaussian Charge Scheme
     J. Comput. Chem., 2020 41 922-939
     doi.org/10.1002/jcc.26139
  3. Neese,F.
     The SHARK Integral Generation and Digestion System
     J. Comp. Chem., 2022  1-16
     doi.org/10.1002/jcc.26942
  4. Lehtola,S.; Steigemann,C.; Oliveira,M.; Marques,M.
     Recent developments in Libxc - A comprehensive library of functionals for density functional theory
     Software X, 2018 7 
     doi.org/10.1016/j.softx.2017.11.002
  5. Caldeweyher,E.; Bannwarth,C.; Grimme,S.
     Extension of the D3 dispersion coefficient model
     J. Chem. Phys., 2017 147 034112-XXXX
     doi.org/10.1063/1.4993215
  6. Caldeweyher,E.; Ehlert,S.; Hansen,A.; Neugebauer,H.; Spicher,S.; Bannwarth,C.; Grimme,S.
     A generally applicable atomic-charge dependent London dispersion correction
     J. Chem. Phys., 2019 150 154122-XXXX
     doi.org/10.1063/1.5090222
  7. Caldeweyher,E.; Mewes,J.; Ehlert,S.; Grimme,S.
     Extension and evaluation of the D4 London-dispersion model for periodic systems
     Phys. Chem. Chem. Phys., 2020 22(16)8499-8512
     doi.org/10.1039/D0CP00502A

List of suggested additional citations. These are papers that are important in the 'surrounding' of 
of this run, or papers that preceded the highly important papers. If you like your results we are grateful for a citation.

  1. Neese,F.
     The ORCA program system
     WIRES Comput. Molec. Sci., 2012 2(1)73-78
     doi.org/10.1002/wcms.81
  2. Neese,F.
     Software update: the ORCA program system, version 4.0
     WIRES Comput. Molec. Sci., 2018 8(1)1-6
     doi.org/10.1002/wcms.1327
  3. Neese,F.; Wennmohs,F.; Becker,U.; Riplinger,C.
     The ORCA quantum chemistry program package
     J. Chem. Phys., 2020 152 Art. No. L224108
     doi.org/10.1063/5.0004608

List of optional additional citations

  1. Neese,F.
     Approximate second-order SCF convergence for spin unrestricted wavefunctions
     Chem. Phys. Lett., 2000 325(1-3)93-98
     doi.org/10.1016/s0009-2614(00)00662-x

Timings for individual modules:

Sum of individual times          ...       79.923 sec (=   1.332 min)
Startup calculation              ...        3.102 sec (=   0.052 min)   3.9 %
SCF iterations                   ...       29.225 sec (=   0.487 min)  36.6 %
Property calculations            ...        0.225 sec (=   0.004 min)   0.3 %
SCF Gradient evaluation          ...       47.372 sec (=   0.790 min)  59.3 %
                             ****ORCA TERMINATED NORMALLY****
TOTAL RUN TIME: 0 days 0 hours 1 minutes 20 seconds 775 msec
  ------------------------------------------------------------------------
          * successful ORCA run, taking over control again...

         :::::::::::::::::::::::::::::::::::::::::::::::::::::
         ::                  ORCA SUMMARY                   ::
         :::::::::::::::::::::::::::::::::::::::::::::::::::::
         :: total energy           -2932.484753247883 Eh    ::
         :: gradient norm              0.000776649721 Eh/a0 ::
         :: HOMO-LUMO gap              0.000000000000 eV    ::
         :::::::::::::::::::::::::::::::::::::::::::::::::::::

           -------------------------------------------------
          |                Property Printout                |
           -------------------------------------------------
           -------------------------------------------------
          |                Geometry Summary                 |
           -------------------------------------------------

      molecular mass/u    :      384.4756129
   center of mass at/Å    :       -0.1428483       0.0251987      -0.1829798
  moments of inertia/u·Å² :        0.1324799E+04   0.3731994E+04   0.3947224E+04
rotational constants/cm⁻¹ :        0.1272467E-01   0.4517057E-02   0.4270756E-02

 * 34 selected distances

     #   Z          #   Z                                           value/Å
     1   6 C        2   6 C                                       1.5064995
     3   8 O        4  15 P                                       1.6038120
     4  15 P        5  16 S                                       1.9479443
     4  15 P        6   8 O                                       1.6104595
     7   6 C        8   6 C                                       1.5067609
     4  15 P        9  16 S                                       2.1155924
    11  16 S       12  15 P                                       2.1183610 (max)
    12  15 P       13  16 S                                       1.9474957
    12  15 P       14   8 O                                       1.6061322
    15   6 C       16   6 C                                       1.5090798
    12  15 P       17   8 O                                       1.6112898
    18   6 C       19   6 C                                       1.5083554
     1   6 C       20   1 H                                       1.0937461
     1   6 C       21   1 H                                       1.0939797
     1   6 C       22   1 H                                       1.0944037
     2   6 C       23   1 H                                       1.0940529
     2   6 C       24   1 H                                       1.0948667
     7   6 C       25   1 H                                       1.0943032
     7   6 C       26   1 H                                       1.0931818
     8   6 C       27   1 H                                       1.0946067
     8   6 C       28   1 H                                       1.0937852
     8   6 C       29   1 H                                       1.0938645
    10   6 C       30   1 H                                       1.0937686
    10   6 C       31   1 H                                       1.0939348
    15   6 C       32   1 H                                       1.0921701
    15   6 C       33   1 H                                       1.0945521
    16   6 C       34   1 H                                       1.0948259
    16   6 C       35   1 H                                       1.0942119
    16   6 C       36   1 H                                       1.0937698
    18   6 C       37   1 H                                       1.0919099 (min)
    18   6 C       38   1 H                                       1.0941879
    19   6 C       39   1 H                                       1.0939699
    19   6 C       40   1 H                                       1.0949115
    19   6 C       41   1 H                                       1.0935158

 * 4 distinct bonds (by element types)

   Z      Z             #   av. dist./Å        max./Å        min./Å
   1 H    6 C          22     1.0939327     1.0949115     1.0919099
   6 C    6 C           4     1.5076739     1.5090798     1.5064995
   8 O   15 P           4     1.6079234     1.6112898     1.6038120
  15 P   16 S           4     2.0323484     2.1183610     1.9474957


optimized geometry written to: xtbopt.coord


           -------------------------------------------------
          | TOTAL ENERGY            -2932.484753247883 Eh   |
          | GRADIENT NORM               0.000776649721 Eh/α |
           -------------------------------------------------

------------------------------------------------------------------------
 * finished run on 2025/04/11 at 03:59:23.951     
------------------------------------------------------------------------
 total:
 * wall-time:     0 d,  0 h, 13 min, 27.947 sec
 *  cpu-time:     0 d,  0 h,  0 min,  6.750 sec
 * ratio c/w:     0.008 speedup
 SCF:
 * wall-time:     0 d,  0 h,  1 min, 26.246 sec
 *  cpu-time:     0 d,  0 h,  0 min,  0.194 sec
 * ratio c/w:     0.002 speedup
 ANC optimizer:
 * wall-time:     0 d,  0 h, 12 min,  1.544 sec
 *  cpu-time:     0 d,  0 h,  0 min,  6.471 sec
 * ratio c/w:     0.009 speedup

