      -----------------------------------------------------------      
     |                   =====================                   |     
     |                           x T B                           |     
     |                   =====================                   |     
     |                         S. Grimme                         |     
     |          Mulliken Center for Theoretical Chemistry        |     
     |                    University of Bonn                     |     
      -----------------------------------------------------------      

   * xtb version 6.7.1 (edcfbbe) compiled by 'albert@albert-system' on 2024-07-22

   xtb is free software: you can redistribute it and/or modify it under
   the terms of the GNU Lesser General Public License as published by
   the Free Software Foundation, either version 3 of the License, or
   (at your option) any later version.
   
   xtb is distributed in the hope that it will be useful,
   but WITHOUT ANY WARRANTY; without even the implied warranty of
   MERCHANTABILITY or FITNESS FOR A PARTICULAR PURPOSE.  See the
   GNU Lesser General Public License for more details.
   
   Cite this work as:
   * C. Bannwarth, E. Caldeweyher, S. Ehlert, A. Hansen, P. Pracht,
     J. Seibert, S. Spicher, S. Grimme, WIREs Comput. Mol. Sci., 2020, 11,
     e01493. DOI: 10.1002/wcms.1493
   
   for GFN2-xTB:
   * C. Bannwarth, S. Ehlert and S. Grimme., J. Chem. Theory Comput., 2019,
     15, 1652-1671. DOI: 10.1021/acs.jctc.8b01176
   for GFN1-xTB:
   * S. Grimme, C. Bannwarth, P. Shushkov, J. Chem. Theory Comput., 2017,
     13, 1989-2009. DOI: 10.1021/acs.jctc.7b00118
   for GFN0-xTB:
   * P. Pracht, E. Caldeweyher, S. Ehlert, S. Grimme, ChemRxiv, 2019, preprint.
     DOI: 10.26434/chemrxiv.8326202.v1
   for GFN-FF:
   * S. Spicher and S. Grimme, Angew. Chem. Int. Ed., 2020, 59, 15665-15673.
     DOI: 10.1002/anie.202004239
   
   for ALPB and GBSA implicit solvation:
   * S. Ehlert, M. Stahn, S. Spicher, S. Grimme, J. Chem. Theory Comput.,
     2021, 17, 4250-4261. DOI: 10.1021/acs.jctc.1c00471
   
   for ddCOSMO and CPCM-X implicit solvation:
   * M. Stahn, S. Ehlert, S. Grimme, J. Phys. Chem. A,
     2023, XX, XXXX-XXXX. DOI: 10.1021/acs.jpca.3c04382
   
   for DFT-D4:
   * E. Caldeweyher, C. Bannwarth and S. Grimme, J. Chem. Phys., 2017,
     147, 034112. DOI: 10.1063/1.4993215
   * E. Caldeweyher, S. Ehlert, A. Hansen, H. Neugebauer, S. Spicher,
     C. Bannwarth and S. Grimme, J. Chem. Phys., 2019, 150, 154122.
     DOI: 10.1063/1.5090222
   * E. Caldeweyher, J.-M. Mewes, S. Ehlert and S. Grimme, Phys. Chem. Chem. Phys.
     2020, 22, 8499-8512. DOI: 10.1039/D0CP00502A
   
   for sTDA-xTB:
   * S. Grimme and C. Bannwarth, J. Chem. Phys., 2016, 145, 054103.
     DOI: 10.1063/1.4959605
   
   in the mass-spec context:
   * V. Asgeirsson, C. Bauer and S. Grimme, Chem. Sci., 2017, 8, 4879.
     DOI: 10.1039/c7sc00601b
   * J. Koopman and S. Grimme, ACS Omega 2019, 4, 12, 15120-15133.
     DOI: 10.1021/acsomega.9b02011
   
   for metadynamics refer to:
   * S. Grimme, J. Chem. Theory Comput., 2019, 155, 2847-2862
     DOI: 10.1021/acs.jctc.9b00143
   
   for SPH calculations refer to:
   * S. Spicher and S. Grimme, J. Chem. Theory Comput., 2021, 17, 1701-1714
     DOI: 10.1021/acs.jctc.0c01306
   
   for ONIOM refer to:
   * C. Plett, A. Katbashev, S. Ehlert, S. Grimme, M. Bursch,
     Phys. Chem. Chem. Phys., 2023, 25, 17860-17868. DOI: 10.1039/D3CP02178E
   
   for DIPRO refer to:
   * J. Kohn, N. Gildemeister, S. Grimme, D. Fazzi, A. Hansen,
     J. Chem. Phys., 2023, just accepted.
   
   for PTB refer to:
   * S. Grimme, M. Mueller, A. Hansen, J. Chem. Phys., 2023, 158, 124111.
     DOI: 10.1063/5.0137838
   
   with help from (in alphabetical order)
   P. Atkinson, C. Bannwarth, F. Bohle, G. Brandenburg, E. Caldeweyher
   M. Checinski, S. Dohm, S. Ehlert, S. Ehrlich, I. Gerasimov, C. Hölzer
   A. Katbashev, J. Kohn, J. Koopman, C. Lavigne, S. Lehtola, F. März, M. Müller,
   F. Musil, H. Neugebauer, J. Pisarek, C. Plett, P. Pracht, F. Pultar,
   J. Seibert, P. Shushkov, S. Spicher, M. Stahn, M. Steiner, T. Strunk,
   J. Stückrath, T. Rose, and J. Unsleber
   
 * started run on 2025/04/09 at 09:46:43.436     
   ID    Z sym.   atoms
    1    6 C      1, 2, 4, 6, 7, 9, 12, 13, 18, 20
    2    8 O      3, 5, 10, 11, 17, 19
    3    1 H      8, 21-38
    4   16 S      14, 16
    5   15 P      15

           -------------------------------------------------
          |                Calculation Setup                |
           -------------------------------------------------

          program call               : /software/projects/pawsey0265/mwang1/xtb/bin/xtb xtb_rrho.coord --gfn2 --bhess vtight --chrg 0 --enso --norestart -I rrho-xcontrol-inp --parallel 1 --alpb water
          hostname                   : nid002043
          coordinate file            : xtb_rrho.coord
          omp threads                :                     1


           -------------------------------------------------
          |                 G F N 2 - x T B                 |
           -------------------------------------------------

        Reference                      10.1021/acs.jctc.8b01176
      * Hamiltonian:
        H0-scaling (s, p, d)           1.850000    2.230000    2.230000
        zeta-weighting                 0.500000
      * Dispersion:
        s8                             2.700000
        a1                             0.520000
        a2                             5.000000
        s9                             5.000000
      * Repulsion:
        kExp                           1.500000    1.000000
        rExp                           1.000000
      * Coulomb:
        alpha                          2.000000
        third order                    shell-resolved
        anisotropic                    true
        a3                             3.000000
        a5                             4.000000
        cn-shift                       1.200000
        cn-exp                         4.000000
        max-rad                        5.000000

      * Solvation model:               ALPB
        Solvent                        water
        Parameter file                 internal GFN2-xTB/ALPB
        Dielectric constant                8.0200E+01
        Reference state                gsolv [1 M gas/solution]
        Free energy shift                  1.0808E-03 Eh       6.7819E-01 kcal/mol
        Temperature                        2.9815E+02 K
        Density                            1.0000E+00 kg/L
        Solvent mass                       1.8000E+01 g/mol
        Interaction kernel             P16
        Born radius scaling (c1)           1.4744E+00
        Born radii integrator          GBOBC
        Born offset                        0.0000E+00 a0       0.0000E+00 AA
        H-bond correction              true
        Ion screening                  false
        Surface tension                    1.0000E-05 Eh       1.5569E+01 dyn/cm
        Grid points                               974 per atom

          ...................................................
          :                      SETUP                      :
          :.................................................:
          :  # basis functions                 113          :
          :  # atomic orbitals                 110          :
          :  # shells                           60          :
          :  # electrons                       112          :
          :  max. iterations                   250          :
          :  Hamiltonian                  GFN2-xTB          :
          :  restarted?                      false          :
          :  GBSA solvation                   true          :
          :  PC potential                    false          :
          :  electronic temp.          300.0000000     K    :
          :  accuracy                    1.0000000          :
          :  -> integral cutoff          0.2500000E+02      :
          :  -> integral neglect         0.1000000E-07      :
          :  -> SCF convergence          0.1000000E-05 Eh   :
          :  -> wf. convergence          0.1000000E-03 e    :
          :  Broyden damping             0.4000000          :
          :  net charge                          0          :
          :  unpaired electrons                  0          :
          ...................................................

 iter      E             dE          RMSdq      gap      omega  full diag
   1    -65.0648024 -0.650648E+02  0.589E+00    4.26       0.0  T
   2    -65.1983875 -0.133585E+00  0.309E+00    3.24       1.0  T
   3    -65.2080383 -0.965083E-02  0.121E+00    3.31       1.0  T
   4    -65.2144034 -0.636506E-02  0.462E-01    3.16       1.0  T
   5    -65.2151530 -0.749632E-03  0.212E-01    3.26       1.0  T
   6    -65.2152897 -0.136659E-03  0.941E-02    3.25       1.0  T
   7    -65.2153078 -0.180895E-04  0.334E-02    3.27       1.0  T
   8    -65.2153097 -0.194332E-05  0.131E-02    3.27       1.2  T
   9    -65.2153105 -0.778574E-06  0.423E-03    3.27       3.8  T
  10    -65.2153106 -0.702493E-07  0.202E-03    3.27       8.0  T
  11    -65.2153106 -0.895058E-08  0.547E-04    3.27      29.7  T
  12    -65.2153106 -0.819000E-09  0.226E-04    3.27      71.9  T

   *** convergence criteria satisfied after 12 iterations ***

         #    Occupation            Energy/Eh            Energy/eV
      -------------------------------------------------------------
         1        2.0000           -0.7710222             -20.9806
       ...           ...                  ...                  ...
        50        2.0000           -0.4542550             -12.3609
        51        2.0000           -0.4475764             -12.1792
        52        2.0000           -0.4448323             -12.1045
        53        2.0000           -0.4361852             -11.8692
        54        2.0000           -0.4147197             -11.2851
        55        2.0000           -0.3969170             -10.8007
        56        2.0000           -0.3949053             -10.7459 (HOMO)
        57                         -0.2748227              -7.4783 (LUMO)
        58                         -0.2576786              -7.0118
        59                         -0.2481469              -6.7524
        60                         -0.2090274              -5.6879
        61                         -0.1781810              -4.8486
       ...                                ...                  ...
       110                          1.2696643              34.5493
      -------------------------------------------------------------
                  HL-Gap            0.1200826 Eh            3.2676 eV
             Fermi-level           -0.3348640 Eh           -9.1121 eV

 SCC (total)                   0 d,  0 h,  0 min,  0.150 sec
 SCC setup                      ...        0 min,  0.003 sec (  2.104%)
 Dispersion                     ...        0 min,  0.000 sec (  0.253%)
 classical contributions        ...        0 min,  0.000 sec (  0.055%)
 integral evaluation            ...        0 min,  0.061 sec ( 40.897%)
 iterations                     ...        0 min,  0.051 sec ( 34.335%)
 molecular gradient             ...        0 min,  0.033 sec ( 22.138%)
 printout                       ...        0 min,  0.000 sec (  0.200%)

         :::::::::::::::::::::::::::::::::::::::::::::::::::::
         ::                     SUMMARY                     ::
         :::::::::::::::::::::::::::::::::::::::::::::::::::::
         :: total energy             -64.667310978620 Eh    ::
         :: total w/o Gsasa/hb       -64.667816128322 Eh    ::
         :: gradient norm              0.053726270160 Eh/a0 ::
         :: HOMO-LUMO gap              3.267613334463 eV    ::
         ::.................................................::
         :: SCC energy               -65.214831019487 Eh    ::
         :: -> isotropic ES            0.174843411771 Eh    ::
         :: -> anisotropic ES         -0.014879130865 Eh    ::
         :: -> anisotropic XC          0.018166724459 Eh    ::
         :: -> dispersion             -0.040521254241 Eh    ::
         :: -> Gsolv                  -0.030930765401 Eh    ::
         ::    -> Gelec               -0.031435915103 Eh    ::
         ::    -> Gsasa                0.005005229715 Eh    ::
         ::    -> Ghb                 -0.005580839711 Eh    ::
         ::    -> Gshift               0.001080759698 Eh    ::
         :: repulsion energy           0.547520040868 Eh    ::
         :: add. restraining           0.000000000000 Eh    ::
         :: total charge               0.000000000000 e     ::
         :::::::::::::::::::::::::::::::::::::::::::::::::::::

metadynamics with 1 initial structures loaded
           -------------------------------------------------
          |           Optimal kpush determination           |
           -------------------------------------------------
      ----------------------------------------------------------- 
     |                   =====================                   |
     |                        A N C O P T                        |
     |                   =====================                   |
     |               Approximate Normal Coordinate               |
     |                Rational Function Optimizer                |
      ----------------------------------------------------------- 
target rmsd / Å         0.100000
unbiased initial rmsd   0.193125
 
iter. min.        max.        rmsd       kpush
      ----------------------------------------------------------- 
     |                   =====================                   |
     |                        A N C O P T                        |
     |                   =====================                   |
     |               Approximate Normal Coordinate               |
     |                Rational Function Optimizer                |
      ----------------------------------------------------------- 
 1    0.000000    1.727273    0.014941   -0.863636
      ----------------------------------------------------------- 
     |                   =====================                   |
     |                        A N C O P T                        |
     |                   =====================                   |
     |               Approximate Normal Coordinate               |
     |                Rational Function Optimizer                |
      ----------------------------------------------------------- 
 2    0.000000    0.863636    0.021531   -0.431818
      ----------------------------------------------------------- 
     |                   =====================                   |
     |                        A N C O P T                        |
     |                   =====================                   |
     |               Approximate Normal Coordinate               |
     |                Rational Function Optimizer                |
      ----------------------------------------------------------- 
 3    0.000000    0.431818    0.031950   -0.215909
      ----------------------------------------------------------- 
     |                   =====================                   |
     |                        A N C O P T                        |
     |                   =====================                   |
     |               Approximate Normal Coordinate               |
     |                Rational Function Optimizer                |
      ----------------------------------------------------------- 
 4    0.000000    0.215909    0.047256   -0.107955
      ----------------------------------------------------------- 
     |                   =====================                   |
     |                        A N C O P T                        |
     |                   =====================                   |
     |               Approximate Normal Coordinate               |
     |                Rational Function Optimizer                |
      ----------------------------------------------------------- 
 5    0.000000    0.107955    0.067201   -0.053977
      ----------------------------------------------------------- 
     |                   =====================                   |
     |                        A N C O P T                        |
     |                   =====================                   |
     |               Approximate Normal Coordinate               |
     |                Rational Function Optimizer                |
      ----------------------------------------------------------- 
 6    0.000000    0.053977    0.090114   -0.026989
      ----------------------------------------------------------- 
     |                   =====================                   |
     |                        A N C O P T                        |
     |                   =====================                   |
     |               Approximate Normal Coordinate               |
     |                Rational Function Optimizer                |
      ----------------------------------------------------------- 
 7    0.000000    0.026989    0.113639   -0.013494
      ----------------------------------------------------------- 
     |                   =====================                   |
     |                        A N C O P T                        |
     |                   =====================                   |
     |               Approximate Normal Coordinate               |
     |                Rational Function Optimizer                |
      ----------------------------------------------------------- 
 8    0.013494    0.026989    0.099859   -0.020241
final kpush: -0.020241
           -------------------------------------------------
          |            Biased Numerical Hessian             |
           -------------------------------------------------
kpush                :  -0.02024
alpha                :   1.00000
step length          :   0.00500
SCC accuracy         :   0.30000
Hessian scale factor :   1.00000
frozen atoms in %    :   0.00000    0
RMS gradient         :   0.00015
estimated CPU  time      0.15 min
estimated wall time      0.15 min

writing file <hessian>.

 projected vibrational frequencies (cm⁻¹)
eigval :       -0.00    -0.00     0.00     0.00     0.00     0.00
eigval :       50.48    50.67    59.30    63.88    68.67    72.64
eigval :       77.81    82.46    97.65    86.00   103.20   104.81
eigval :      121.57   124.59   141.18   160.18   146.40   134.11
eigval :      123.97   204.05   202.14   236.63   240.71   284.75
eigval :      274.49   300.84   319.78   324.42   368.34   394.16
eigval :      408.76   442.30   443.95   480.15   531.89   598.88
eigval :      639.57   675.33   697.91   742.51   769.46   781.87
eigval :      808.24   826.14   875.48   899.66   902.21   949.75
eigval :      979.05   982.27  1022.97  1037.85  1047.34  1088.23
eigval :     1093.71  1094.90  1095.15  1103.50  1104.62  1107.01
eigval :     1114.17  1136.09  1144.42  1146.34  1175.91  1189.48
eigval :     1224.18  1246.05  1249.27  1290.37  1309.92  1311.76
eigval :     1367.58  1377.76  1390.16  1393.37  1412.17  1421.20
eigval :     1428.55  1429.94  1431.63  1436.34  1444.10  1465.32
eigval :     1466.40  1479.56  1480.44  1698.98  1706.51  2912.85
eigval :     2952.17  2954.04  2978.33  2983.84  2985.08  2990.46
eigval :     2992.23  2998.74  3001.05  3009.27  3026.62  3031.12
eigval :     3037.87  3041.37  3051.18  3051.78  3062.33  3064.55
           -------------------------------------------------
          |                Property Printout                |
           -------------------------------------------------

    * Orbital Energies and Occupations

         #    Occupation            Energy/Eh            Energy/eV
      -------------------------------------------------------------
         1        2.0000           -0.7761916             -21.1212
       ...           ...                  ...                  ...
        44        2.0000           -0.4769231             -12.9777
        45        2.0000           -0.4691829             -12.7671
        46        2.0000           -0.4669823             -12.7072
        47        2.0000           -0.4617786             -12.5656
        48        2.0000           -0.4580202             -12.4634
        49        2.0000           -0.4558776             -12.4051
        50        2.0000           -0.4534837             -12.3399
        51        2.0000           -0.4476933             -12.1824
        52        2.0000           -0.4439420             -12.0803
        53        2.0000           -0.4359371             -11.8625
        54        2.0000           -0.4130491             -11.2396
        55        2.0000           -0.3948011             -10.7431
        56        2.0000           -0.3924798             -10.6799 (HOMO)
        57                         -0.2709260              -7.3723 (LUMO)
        58                         -0.2579026              -7.0179
        59                         -0.2423586              -6.5949
        60                         -0.2007460              -5.4626
        61                         -0.1760914              -4.7917
        62                         -0.1619561              -4.4071
        63                         -0.1214455              -3.3047
        64                         -0.0499473              -1.3591
        65                         -0.0466113              -1.2684
        66                         -0.0379198              -1.0318
        67                         -0.0225079              -0.6125
       ...                                ...                  ...
       110                          1.2647673              34.4161
      -------------------------------------------------------------
                  HL-Gap            0.1215537 Eh            3.3076 eV
             Fermi-level           -0.3317029 Eh           -9.0261 eV

     #   Z          covCN         q      C6AA      α(0)
     1   6 C        3.751    -0.130    23.060     6.848
     2   6 C        3.695     0.067    19.623     6.337
     3   8 O        1.703    -0.257    18.266     5.770
     4   6 C        2.716     0.375    20.649     7.439
     5   8 O        0.856    -0.480    23.346     6.478
     6   6 C        3.831    -0.094    22.263     6.713
     7   6 C        3.856     0.008    20.413     6.426
     8   1 H        0.924     0.119     1.623     1.993
     9   6 C        2.743     0.372    20.702     7.450
    10   8 O        0.856    -0.459    22.895     6.415
    11   8 O        1.703    -0.255    18.229     5.765
    12   6 C        3.695     0.076    19.469     6.312
    13   6 C        3.750    -0.129    23.035     6.845
    14  16 S        1.945    -0.116   145.896    20.330
    15  15 P        3.861     0.380   144.455    21.590
    16  16 S        0.926    -0.480   160.440    21.424
    17   8 O        1.654    -0.254    18.228     5.763
    18   6 C        3.825     0.006    20.466     6.437
    19   8 O        1.656    -0.260    18.317     5.778
    20   6 C        3.811     0.010    20.409     6.430
    21   1 H        0.925     0.057     2.233     2.337
    22   1 H        0.925     0.077     2.011     2.218
    23   1 H        0.925     0.071     2.074     2.252
    24   1 H        0.924     0.062     2.180     2.309
    25   1 H        0.925     0.086     1.919     2.166
    26   1 H        0.924     0.087     1.906     2.159
    27   1 H        0.924     0.119     1.621     1.991
    28   1 H        0.925     0.088     1.900     2.156
    29   1 H        0.924     0.059     2.209     2.324
    30   1 H        0.925     0.075     2.028     2.227
    31   1 H        0.925     0.081     1.967     2.193
    32   1 H        0.925     0.053     2.278     2.360
    33   1 H        0.925     0.096     1.825     2.112
    34   1 H        0.925     0.094     1.836     2.119
    35   1 H        0.925     0.114     1.664     2.017
    36   1 H        0.925     0.091     1.873     2.140
    37   1 H        0.925     0.114     1.666     2.018
    38   1 H        0.924     0.078     1.999     2.211

 Mol. C6AA /au·bohr⁶  :      18235.636789
 Mol. C8AA /au·bohr⁸  :     514289.452230
 Mol. α(0) /au        :        207.854508


Wiberg/Mayer (AO) data.
largest (>0.10) Wiberg bond orders for each atom

 ---------------------------------------------------------------------------
     #   Z sym  total        # sym  WBO       # sym  WBO       # sym  WBO
 ---------------------------------------------------------------------------
     1   6 C    3.986 --     2 C    1.013    21 H    0.985    23 H    0.984
                            22 H    0.979
     2   6 C    3.900 --     1 C    1.013    24 H    0.971    25 H    0.968
                             3 O    0.909
     3   8 O    2.338 --     4 C    1.195     2 C    0.909     5 O    0.175
     4   6 C    3.917 --     5 O    1.688     3 O    1.195     6 C    0.960
     5   8 O    1.975 --     4 C    1.688     3 O    0.175
     6   6 C    3.985 --     7 C    0.995    26 H    0.963     4 C    0.960
                            27 H    0.941
     7   6 C    3.970 --     6 C    0.995    14 S    0.957     9 C    0.957
                             8 H    0.923
     8   1 H    0.986 --     7 C    0.923
     9   6 C    3.918 --    10 O    1.701    11 O    1.181     7 C    0.957
    10   8 O    2.013 --     9 C    1.701    11 O    0.170
    11   8 O    2.350 --     9 C    1.181    12 C    0.899    10 O    0.170
    12   6 C    3.893 --    13 C    1.014    29 H    0.971    28 H    0.968
                            11 O    0.899
    13   6 C    3.984 --    12 C    1.014    32 H    0.985    30 H    0.983
                            31 H    0.977
    14  16 S    2.269 --    15 P    0.973     7 C    0.957    16 S    0.133
    15  15 P    5.282 --    16 S    1.523    17 O    1.334    19 O    1.301
                            14 S    0.973
    16  16 S    1.840 --    15 P    1.523    14 S    0.133
    17   8 O    2.397 --    15 P    1.334    18 C    0.886
    18   6 C    3.869 --    33 H    0.977    34 H    0.972    35 H    0.971
                            17 O    0.886
    19   8 O    2.392 --    15 P    1.301    20 C    0.910
    20   6 C    3.881 --    38 H    0.977    36 H    0.976    37 H    0.971
                            19 O    0.910
    21   1 H    0.997 --     1 C    0.985
    22   1 H    0.993 --     1 C    0.979
    23   1 H    0.995 --     1 C    0.984
    24   1 H    0.996 --     2 C    0.971
    25   1 H    0.992 --     2 C    0.968
    26   1 H    0.992 --     6 C    0.963
    27   1 H    0.985 --     6 C    0.941
    28   1 H    0.992 --    12 C    0.968
    29   1 H    0.996 --    12 C    0.971
    30   1 H    0.994 --    13 C    0.983
    31   1 H    0.993 --    13 C    0.977
    32   1 H    0.997 --    13 C    0.985
    33   1 H    0.991 --    18 C    0.977
    34   1 H    0.991 --    18 C    0.972
    35   1 H    0.987 --    18 C    0.971
    36   1 H    0.992 --    20 C    0.976
    37   1 H    0.987 --    20 C    0.971
    38   1 H    0.994 --    20 C    0.977
 ---------------------------------------------------------------------------

Topologies differ in total number of bonds
Writing topology from bond orders to xtbtopo.mol

molecular dipole:
                 x           y           z       tot (Debye)
 q only:       -1.811       0.257      -1.639
   full:       -1.784       0.472      -1.307       5.748
molecular quadrupole (traceless):
                xx          xy          yy          xz          yz          zz
 q only:       11.500     -11.978      19.399      12.227       7.421     -30.900
  q+dip:       10.305      -9.965      18.117       8.466       7.885     -28.422
   full:       10.612     -10.162      18.396       8.422       8.278     -29.008

           -------------------------------------------------
          |                Geometry Summary                 |
           -------------------------------------------------

      molecular mass/u    :      330.3579996
   center of mass at/Å    :       -0.0169395      -0.0160766       0.0198463
  moments of inertia/u·Å² :        0.1172334E+04   0.2614731E+04   0.3179684E+04
rotational constants/cm⁻¹ :        0.1437955E-01   0.6447176E-02   0.5301669E-02

 * 34 selected distances

     #   Z          #   Z                                           value/Å
     1   6 C        2   6 C                                       1.5209787
     2   6 C        3   8 O                                       1.4407413
     3   8 O        4   6 C                                       1.3158745
     4   6 C        5   8 O                                       1.2127197
     6   6 C        7   6 C                                       1.5226376
     7   6 C        8   1 H                                       1.0973602
     9   6 C       10   8 O                                       1.2092367
     9   6 C       11   8 O                                       1.3189572
    11   8 O       12   6 C                                       1.4436954
    12   6 C       13   6 C                                       1.5198029
    14  16 S       15  15 P                                       2.1256644 (max)
    15  15 P       16  16 S                                       1.9587808
    15  15 P       17   8 O                                       1.5788327
    17   8 O       18   6 C                                       1.4427726
    15  15 P       19   8 O                                       1.5999997
    19   8 O       20   6 C                                       1.4329700
     1   6 C       21   1 H                                       1.0875268
     1   6 C       22   1 H                                       1.0849273 (min)
     1   6 C       23   1 H                                       1.0864640
     2   6 C       24   1 H                                       1.0937162
     2   6 C       25   1 H                                       1.0901595
     6   6 C       26   1 H                                       1.0907756
     6   6 C       27   1 H                                       1.0912359
    12   6 C       28   1 H                                       1.0899695
    12   6 C       29   1 H                                       1.0938954
    13   6 C       30   1 H                                       1.0864121
    13   6 C       31   1 H                                       1.0852743
    13   6 C       32   1 H                                       1.0880253
    18   6 C       33   1 H                                       1.0879245
    18   6 C       34   1 H                                       1.0897449
    18   6 C       35   1 H                                       1.0867315
    20   6 C       36   1 H                                       1.0896132
    20   6 C       37   1 H                                       1.0874541
    20   6 C       38   1 H                                       1.0906769

 * 5 distinct bonds (by element types)

   Z      Z             #   av. dist./Å        max./Å        min./Å
   1 H    6 C          19     1.0893625     1.0973602     1.0849273
   6 C    6 C           3     1.5211397     1.5226376     1.5198029
   6 C    8 O           8     1.3521209     1.4436954     1.2092367
   8 O   15 P           2     1.5894162     1.5999997     1.5788327
  15 P   16 S           2     2.0422226     2.1256644     1.9587808

           -------------------------------------------------
          |               Frequency Printout                |
           -------------------------------------------------
 projected vibrational frequencies (cm⁻¹)
eigval :       -0.00    -0.00     0.00     0.00     0.00     0.00
eigval :       50.48    50.67    59.30    63.88    68.67    72.64
eigval :       77.81    82.46    97.65    86.00   103.20   104.81
eigval :      121.57   124.59   141.18   160.18   146.40   134.11
eigval :      123.97   204.05   202.14   236.63   240.71   284.75
eigval :      274.49   300.84   319.78   324.42   368.34   394.16
eigval :      408.76   442.30   443.95   480.15   531.89   598.88
eigval :      639.57   675.33   697.91   742.51   769.46   781.87
eigval :      808.24   826.14   875.48   899.66   902.21   949.75
eigval :      979.05   982.27  1022.97  1037.85  1047.34  1088.23
eigval :     1093.71  1094.90  1095.15  1103.50  1104.62  1107.01
eigval :     1114.17  1136.09  1144.42  1146.34  1175.91  1189.48
eigval :     1224.18  1246.05  1249.27  1290.37  1309.92  1311.76
eigval :     1367.58  1377.76  1390.16  1393.37  1412.17  1421.20
eigval :     1428.55  1429.94  1431.63  1436.34  1444.10  1465.32
eigval :     1466.40  1479.56  1480.44  1698.98  1706.51  2912.85
eigval :     2952.17  2954.04  2978.33  2983.84  2985.08  2990.46
eigval :     2992.23  2998.74  3001.05  3009.27  3026.62  3031.12
eigval :     3037.87  3041.37  3051.18  3051.78  3062.33  3064.55
 reduced masses (amu)
   1: 15.35   2: 15.97   3: 18.08   4: 14.94   5: 14.67   6: 19.43   7: 18.11   8: 19.00
   9: 16.24  10: 15.65  11: 12.99  12: 12.92  13: 12.62  14: 12.55  15: 14.14  16: 11.85
  17: 13.10  18: 12.00  19: 14.39  20: 11.79  21: 15.38  22: 19.85  23: 13.24  24:  8.53
  25:  1.72  26: 12.63  27:  4.49  28: 14.54  29:  9.23  30: 17.50  31:  7.51  32: 13.07
  33: 17.66  34: 11.86  35: 12.49  36: 19.48  37: 19.09  38: 26.90  39: 11.67  40: 13.58
  41: 11.24  42: 10.58  43: 25.28  44: 12.57  45: 11.82  46: 22.32  47: 22.78  48: 10.65
  49:  4.34  50:  5.09  51:  8.86  52: 10.41  53:  9.87  54: 10.42  55:  9.78  56: 12.87
  57: 14.12  58:  8.59  59:  9.20  60:  7.21  61:  7.47  62:  7.21  63:  3.49  64:  5.09
  65:  5.79  66:  3.59  67:  4.22  68:  4.93  69:  7.03  70:  5.74  71:  9.38  72:  9.73
  73:  5.39  74:  3.40  75:  3.46  76:  5.00  77:  3.98  78:  3.34  79:  2.34  80:  2.34
  81:  3.06  82:  3.04  83:  1.95  84:  1.60  85:  1.98  86:  1.92  87:  1.52  88:  1.57
  89:  1.57  90:  1.50  91:  1.50  92:  1.56  93:  1.56  94: 13.33  95: 13.41  96:  1.75
  97:  1.72  98:  1.72  99:  1.64 100:  1.72 101:  1.61 102:  1.72 103:  1.74 104:  1.74
 105:  1.78 106:  1.69 107:  1.81 108:  1.87 109:  1.78 110:  1.78 111:  1.63 112:  1.66
 113:  1.74 114:  1.75
 IR intensities (km·mol⁻¹)
   1:  0.04   2:  0.21   3:  0.02   4:  0.15   5:  0.50   6:  0.40   7:  3.95   8:  7.47
   9:  6.59  10:  0.22  11:  1.22  12:  1.38  13:  4.94  14:  5.51  15:  2.06  16:  5.50
  17:  0.45  18:  2.73  19:  8.28  20:  1.58  21:  2.65  22: 11.95  23:  1.11  24:  1.16
  25:  0.74  26:  3.93  27:  7.68  28:  6.54  29:  5.42  30: 26.91  31:  9.18  32: 19.37
  33: 41.29  34: 30.41  35:  4.46  36: 21.51  37:  5.75  38:103.99  39:  1.37  40: 18.52
  41: 32.28  42: 14.82  43:229.72  44: 15.06  45: 36.17  46:302.45  47:248.57  48: 30.09
  49:  8.96  50:  7.53  51: 27.00  52:  5.44  53: 16.66  54:  7.81  55:142.75  56:199.05
  57:177.58  58: 40.40  59: 34.10  60:  9.57  61:  8.85  62: 37.18  63:  0.87  64: 64.08
  65:112.30  66:  1.30  67:  6.40  68: 59.84  69: 72.53  70: 49.71  71:222.86  72:253.99
  73:114.95  74: 25.16  75: 58.78  76:136.83  77: 41.54  78:  7.82  79: 17.02  80: 20.95
  81:  6.93  82:  8.12  83: 10.57  84: 15.29  85:  4.08  86:  2.32  87: 14.08  88: 12.81
  89:  7.86  90: 10.22  91:  6.12  92:  2.88  93:  2.35  94:696.83  95:517.84  96:  5.91
  97: 25.55  98: 23.05  99: 11.38 100:  0.21 101:  8.03 102:  8.98 103: 11.78 104:  6.36
 105:  5.92 106:  4.50 107:  0.97 108:  0.59 109: 32.55 110: 34.47 111: 23.65 112: 18.37
 113: 13.33 114: 19.67
 Raman intensities (Ä⁴*amu⁻¹)
   1:  0.00   2:  0.00   3:  0.00   4:  0.00   5:  0.00   6:  0.00   7:  0.00   8:  0.00
   9:  0.00  10:  0.00  11:  0.00  12:  0.00  13:  0.00  14:  0.00  15:  0.00  16:  0.00
  17:  0.00  18:  0.00  19:  0.00  20:  0.00  21:  0.00  22:  0.00  23:  0.00  24:  0.00
  25:  0.00  26:  0.00  27:  0.00  28:  0.00  29:  0.00  30:  0.00  31:  0.00  32:  0.00
  33:  0.00  34:  0.00  35:  0.00  36:  0.00  37:  0.00  38:  0.00  39:  0.00  40:  0.00
  41:  0.00  42:  0.00  43:  0.00  44:  0.00  45:  0.00  46:  0.00  47:  0.00  48:  0.00
  49:  0.00  50:  0.00  51:  0.00  52:  0.00  53:  0.00  54:  0.00  55:  0.00  56:  0.00
  57:  0.00  58:  0.00  59:  0.00  60:  0.00  61:  0.00  62:  0.00  63:  0.00  64:  0.00
  65:  0.00  66:  0.00  67:  0.00  68:  0.00  69:  0.00  70:  0.00  71:  0.00  72:  0.00
  73:  0.00  74:  0.00  75:  0.00  76:  0.00  77:  0.00  78:  0.00  79:  0.00  80:  0.00
  81:  0.00  82:  0.00  83:  0.00  84:  0.00  85:  0.00  86:  0.00  87:  0.00  88:  0.00
  89:  0.00  90:  0.00  91:  0.00  92:  0.00  93:  0.00  94:  0.00  95:  0.00  96:  0.00
  97:  0.00  98:  0.00  99:  0.00 100:  0.00 101:  0.00 102:  0.00 103:  0.00 104:  0.00
 105:  0.00 106:  0.00 107:  0.00 108:  0.00 109:  0.00 110:  0.00 111:  0.00 112:  0.00
 113:  0.00 114:  0.00
 output can be read by thermo (or use thermo option).
 writing <g98.out> molden fake output.
 recommended (thermochemical) frequency scaling factor: 1.0
           -------------------------------------------------
          |             Thermodynamic Functions             |
           -------------------------------------------------

Molecule has no symmetry elements
It seems to be the C1 point group
c1  symmetry found (for desy threshold:  0.10E+00) used in thermo

          ...................................................
          :                      SETUP                      :
          :.................................................:
          :  # frequencies                         108      :
          :  # imaginary freq.                       0      :
          :  linear?                             false      :
          :  only rotor calc.                    false      :
          :  symmetry                               c1      :
          :  rotational number                       1      :
          :  scaling factor                  1.0000000      :
          :  rotor cutoff                    0.0000000 cm⁻¹ :
          :  imag. cutoff                 -100.0000000 cm⁻¹ :
          :.................................................:

    mode    ω/cm⁻¹     T·S(HO)/kcal·mol⁻¹    T·S(FR)/kcal·mol⁻¹   T·S(vib)
   ------------------------------------------------------------------------
       1     50.48    -1.43066 (100.00%)    -1.05367 (  0.00%)    -1.43066
       2     50.67    -1.42848 (100.00%)    -1.05258 (  0.00%)    -1.42848
       3     59.30    -1.33583 (100.00%)    -1.00598 (  0.00%)    -1.33583
       4     63.88    -1.29204 (100.00%)    -0.98393 (  0.00%)    -1.29204
       5     68.67    -1.24955 (100.00%)    -0.96251 (  0.00%)    -1.24955
       6     72.64    -1.21657 (100.00%)    -0.94586 (  0.00%)    -1.21657
       7     77.81    -1.17633 (100.00%)    -0.92552 (  0.00%)    -1.17633
       8     82.46    -1.14237 (100.00%)    -0.90833 (  0.00%)    -1.14237
       9     97.65    -1.04372 (100.00%)    -0.85823 (  0.00%)    -1.04372
      10     86.00    -1.11781 (100.00%)    -0.89588 (  0.00%)    -1.11781
      11    103.20    -1.01159 (100.00%)    -0.84185 (  0.00%)    -1.01159
      12    104.81    -1.00264 (100.00%)    -0.83728 (  0.00%)    -1.00264
      13    121.57    -0.91690 (100.00%)    -0.79334 (  0.00%)    -0.91690
      14    124.59    -0.90277 (100.00%)    -0.78606 (  0.00%)    -0.90277
      15    141.18    -0.83117 (100.00%)    -0.74902 (  0.00%)    -0.83117
      16    160.18    -0.75959 (100.00%)    -0.71163 (  0.00%)    -0.75959
      17    146.40    -0.81052 (100.00%)    -0.73828 (  0.00%)    -0.81052
      18    134.11    -0.86051 (100.00%)    -0.76424 (  0.00%)    -0.86051
      19    123.97    -0.90565 (100.00%)    -0.78754 (  0.00%)    -0.90565
      20    204.05    -0.62501 (100.00%)    -0.63993 (  0.00%)    -0.62501
      21    202.14    -0.63016 (100.00%)    -0.64271 (  0.00%)    -0.63016
      22    236.63    -0.54504 (100.00%)    -0.59604 (  0.00%)    -0.54504
      23    240.71    -0.53597 (100.00%)    -0.59098 (  0.00%)    -0.53597
      24    284.75    -0.44871 (100.00%)    -0.54121 (  0.00%)    -0.44871
      25    274.49    -0.46742 (100.00%)    -0.55207 (  0.00%)    -0.46742
   ------------------------------------------------------------------------

   temp. (K)  partition function   enthalpy   heat capacity  entropy
                                   cal/mol     cal/K/mol   cal/K/mol   J/K/mol
 298.15  VIB  0.279E+11            13820.910     79.043     94.150
         ROT  0.754E+07              888.752      2.981     34.451
         INT  0.210E+18            14709.663     82.024    128.601
         TR   0.581E+28             1481.254      4.968     43.260
         TOT                       16190.9166    86.9918   171.8613   719.0677

       T/K    H(0)-H(T)+PV         H(T)/Eh          T*S/Eh         G(T)/Eh
   ------------------------------------------------------------------------
    298.15    0.258019E-01    0.314545E+00    0.816569E-01    0.232888E+00
   ------------------------------------------------------------------------

         :::::::::::::::::::::::::::::::::::::::::::::::::::::
         ::                  THERMODYNAMIC                  ::
         :::::::::::::::::::::::::::::::::::::::::::::::::::::
         :: total free energy         -64.460765423263 Eh   ::
         ::.................................................::
         :: total energy              -64.693653160303 Eh   ::
         :: zero point energy           0.288742724518 Eh   ::
         :: G(RRHO) w/o ZPVE           -0.055854987479 Eh   ::
         :: G(RRHO) contrib.            0.232887737039 Eh   ::
         :::::::::::::::::::::::::::::::::::::::::::::::::::::

optimized geometry written to: xtbopt.coord


           -------------------------------------------------
          | TOTAL ENERGY              -64.693653160303 Eh   |
          | TOTAL ENTHALPY            -64.379108567880 Eh   |
          | TOTAL FREE ENERGY         -64.460765423263 Eh   |
          | GRADIENT NORM               0.000152881657 Eh/α |
          | HOMO-LUMO GAP               3.307645644700 eV   |
           -------------------------------------------------

------------------------------------------------------------------------
 * finished run on 2025/04/09 at 09:47:00.295     
------------------------------------------------------------------------
 total:
 * wall-time:     0 d,  0 h,  0 min, 16.858 sec
 *  cpu-time:     0 d,  0 h,  0 min, 16.756 sec
 * ratio c/w:     0.994 speedup
 SCF:
 * wall-time:     0 d,  0 h,  0 min,  0.150 sec
 *  cpu-time:     0 d,  0 h,  0 min,  0.090 sec
 * ratio c/w:     0.596 speedup
 analytical hessian:
 * wall-time:     0 d,  0 h,  0 min,  8.935 sec
 *  cpu-time:     0 d,  0 h,  0 min,  8.930 sec
 * ratio c/w:     1.000 speedup

