
                                 *****************
                                 * O   R   C   A *
                                 *****************

                                            #,                                       
                                            ###                                      
                                            ####                                     
                                            #####                                    
                                            ######                                   
                                           ########,                                 
                                     ,,################,,,,,                         
                               ,,#################################,,                 
                          ,,##########################################,,             
                       ,#########################################, ''#####,          
                    ,#############################################,,   '####,        
                  ,##################################################,,,,####,       
                ,###########''''           ''''###############################       
              ,#####''   ,,,,##########,,,,          '''####'''          '####       
            ,##' ,,,,###########################,,,                        '##       
           ' ,,###''''                  '''############,,,                           
         ,,##''                                '''############,,,,        ,,,,,,###''
      ,#''                                            '''#######################'''  
     '                                                          ''''####''''         
             ,#######,   #######,   ,#######,      ##                                
            ,#'     '#,  ##    ##  ,#'     '#,    #''#        ,####,   ,####,        
            ##       ##  ##   ,#'  ##            #'  '#       #'       #'  '#        
            ##       ##  #######   ##           ,######,      #####,   #    #        
            '#,     ,#'  ##    ##  '#,     ,#' ,#      #,     #,   #   #,  ,#        
             '#######'   ##     ##  '#######'  #'      '#     '####' # '####'        



                #########################################################
                #                        -***-                          #
                #          Department of theory and spectroscopy        #
                #                                                       #
                #                      Frank Neese                      #
                #                                                       #
                #     Directorship, Architecture, Infrastructure        #
                #                    SHARK, DRIVERS                     #
                #        Core code/Algorithms in most modules           #
                #                                                       #
                #        Max Planck Institute fuer Kohlenforschung      #
                #                Kaiser Wilhelm Platz 1                 #
                #                 D-45470 Muelheim/Ruhr                 #
                #                      Germany                          #
                #                                                       #
                #                  All rights reserved                  #
                #                        -***-                          #
                #########################################################


                         Program Version 6.0.1  -  RELEASE   -


 With contributions from (in alphabetic order):
[Max-Planck-Institut fuer Kohlenforschung]                               
  Daniel Aravena         : Magnetic Suceptibility                        
  Michael Atanasov       : Ab Initio Ligand Field Theory (pilot matlab implementation)
  Alexander A. Auer      : GIAO ZORA, VPT2 properties, NMR spectrum      
  Ute Becker             : All parallelization in ORCA, NUMFREQ, NUMCALC 
  Giovanni Bistoni       : ED, misc. LED, open-shell LED, HFLD           
  Martin Brehm           : Molecular dynamics                            
  Dmytro Bykov           : pre 5.0 version of the SCF Hessian            
  Marcos Casanova-Páez   : Triplet and SCS-CIS(D). UHF-(DLPNO)-IP/EA/STEOM-CCSD. UHF-CVS-IP/STEOM-CCSD   
  Vijay G. Chilkuri      : MRCI spin determinant printing, contributions to CSF-ICE 
  Pauline Colinet        : FMM embedding                                 
  Dipayan Datta          : RHF DLPNO-CCSD density                        
  Achintya Kumar Dutta   : EOM-CC, STEOM-CC                              
  Nicolas Foglia         : Exact transition moments, OPA infrastructure, MCD improvements    
  Dmitry Ganyushin       : Spin-Orbit,Spin-Spin,Magnetic field MRCI      
  Miquel Garcia-Rates    : C-PCM and meta-GGA Hessian, CCSD/C-PCM, Gaussian charge scheme 
  Tiago L. C. Gouveia    : GS-ROHF, GS-ROCIS                             
  Yang Guo               : DLPNO-NEVPT2, F12-NEVPT2, CIM, IAO-localization        
  Andreas Hansen         : Spin unrestricted coupled pair/coupled cluster methods 
  Ingolf Harden          : AUTO-CI MPn and infrastructure                
  Benjamin Helmich-Paris : MC-RPA, TRAH-(SCF,CASSCF), AVAS, COSX integrals, SCF dyn. polar. 
  Lee Huntington         : MR-EOM, pCC                                   
  Robert Izsak           : Overlap fitted RIJCOSX, COSX-SCS-MP3, EOM     
  Riya Kayal             : Wick's Theorem for AUTO-CI, AUTO-CI UHF-CCSDT 
  Emily Kempfer          : AUTO-CI, RHF CISDT and CCSDT                  
  Christian Kollmar      : KDIIS, OOCD, Brueckner-CCSD(T), CCSD density, CASPT2, CASPT2-K, improved NEVPT2 
  Axel Koslowski         : Symmetry handling                             
  Simone Kossmann        : meta-GGA functionals, TD-DFT gradient, OOMP2, (MP2 Hessian; deprecated post 5.0) 
  Lucas Lang             : DCDCAS                                        
  Marvin Lechner         : AUTO-CI (C++ implementation), FIC-MRCC        
  Spencer Leger          : CASSCF response                               
  Dagmar Lenk            : GEPOL surface, SMD, ORCA-2-JSON               
  Dimitrios Liakos       : Extrapolation schemes; Compound Job, initial MDCI parallelization 
  Dimitrios Manganas     : Further ROCIS development; embedding schemes. LFT, Crystal Embedding 
  Dimitrios Pantazis     : SARC Basis sets                               
  Anastasios Papadopoulos: AUTO-CI, single reference methods and gradients 
  Taras Petrenko         : pre 6.0 DFT Hessian and TD-DFT gradient, (ASA, deprecated), ECA, 1-Electron XAS/XES, NRVS 
  Peter Pinski           : DLPNO-MP2, DLPNO-MP2 Gradient                 
  Christoph Reimann      : Effective Core Potentials                     
  Marius Retegan         : Local ZFS, SOC                                
  Christoph Riplinger    : Optimizer, TS searches, QM/MM, DLPNO-CCSD(T), (RO)-DLPNO pert. Triples 
  Michael Roemelt        : Original ROCIS implementation                 
  Masaaki Saitow         : Open-shell DLPNO-CCSD energy and density      
  Barbara Sandhoefer     : DKH picture change effects                    
  Kantharuban Sivalingam : CASSCF convergence/infrastructure, NEVPT2 and variants, FIC-MRCI 
  Bernardo de Souza      : ESD, SOC TD-DFT                               
  Georgi L. Stoychev     : AutoAux, RI-MP2 NMR, DLPNO-MP2 response, X2C  
  Van Anh Tran           : RI-MP2 g-tensors                              
  Willem Van den Heuvel  : Paramagnetic NMR                              
  Zikuan Wang            : NOTCH, Electric field optimization            
  Frank Wennmohs         : Technical directorship and infrastructure     
  Hang Xu                : AUTO-CI-Response properties                   
                                                                         
[FACCTs GmbH]                                                            
  Markus Bursch, Miquel Garcia-Rates, Christoph Riplinger, Bernardo de Souza, Georgi L. Stoychev 
                                                                 
  APM, Basis sets (HGBS, AHGBS, def-TZVP (Ac-Lr), def2-XVPD (La-Lu)), CI-OPT, improved COSX, DLPNO-Multilevel,           
  DOCKER, DRACO, updates on ESD, GOAT, IRC, LR-CPCM, MBIS, meta-GGA TD-DFT gradient, ML-optimized integration grids, 
  MM, NACMEs, nearIR, NEB, NEB-TS, NL-DFT gradient (VV10), 2- and 3-layer-ONIOM, interface openCOSMO-RS, QMMM,   
  Crystal-QMMM, SF, symmetry and pop. for TD-DFT, r2SCAN hybrids, SOLVATOR                                   
                                                                         
[Other institutions]                                                     
  V. Asgeirsson          : NEB                                           
  Christoph Bannwarth    : sTDA-DFT, sTD-DFT, PBEh-3c, B97-3c, D3        
  Sebastian Ehlert       : rSCAN, r2SCAN, r2SCAN-3c, D4, dhf basis sets  
  Marvin Friede          : D4 for Fr, Ra, Ac-Lr                          
  Lars Goerigk           : TD-DFT with DH, B97 family of functionals     
  Stefan Grimme          : VdW corrections, initial TS optimization, DFT functionals, gCP, sTDA/sTD-DF 
  Waldemar Hujo          : DFT-NL                                        
  H. Jonsson             : NEB                                           
  Holger Kruse           : gCP                                           
  Marcel Mueller         : wB97X-3c, vDZP basis set                      
  Hagen Neugebauer       : wr2SCAN                                       
  Tobias Risthaus        : range-separated hybrid DFT                    
  Lukas Wittmann         : regularized MP2, r2SCAN double-hybrids, wr2SCAN        
                                                                         
We gratefully acknowledge several colleagues who have allowed us to      
interface, adapt or use parts of their codes:                            
  Ed Valeev, F. Pavosevic, A. Kumar             : LibInt (2-el integral package), F12 methods 
  Garnet Chan, S. Sharma, J. Yang, R. Olivares  : DMRG                   
  Ulf Ekstrom                                   : XCFun DFT Library      
  Mihaly Kallay                                 : mrcc  (arbitrary order and MRCC methods)
  Frank Weinhold                                : gennbo (NPA and NBO analysis)           
  Simon Mueller                                 : openCOSMO-RS                            
  Christopher J. Cramer and Donald G. Truhlar   : smd solvation model                     
  S Lehtola, MJT Oliveira, MAL Marques          : LibXC Library                           
  Liviu Ungur et al                             : ANISO software                          


 Your calculation uses the libint2 library for the computation of 2-el integrals
 For citations please refer to: http://libint.valeyev.net

 Your ORCA version has been built with support for libXC version: 6.2.2
 For citations please refer to: https://libxc.gitlab.io

 This ORCA versions uses:
   CBLAS   interface :  Fast vector & matrix operations
   LAPACKE interface :  Fast linear algebra routines
   SCALAPACK package :  Parallel linear algebra routines
   Shared memory     :  Shared parallel matrices
   BLAS/LAPACK       :  OpenBLAS 0.3.27  USE64BITINT DYNAMIC_ARCH NO_AFFINITY Zen SINGLE_THREADED
        Core in use  :  Zen
   Copyright (c) 2011-2014, The OpenBLAS Project


Your calculation utilizes the geometrical counterpoise correction gCP
Please cite in your paper:
H.Kruse, S. Grimme J.Chem.Phys., 136, (2012), 154101 
   

Your calculation utilizes the atom-pairwise dispersion correction
based on EEQ partial charges (D4)


Your calculation utilizes the SMD solvation module
Please cite in your paper:
A.V. Marenich, C.J. Cramer, D.G. Truhlar J. Phys. Chem. B, 113, (2009), 6378 

================================================================================

----- Orbital basis set information -----
Your calculation utilizes the basis: def2-mTZVPP
   Stefan Grimme, Andreas Hansen, Sebastian Ehlert, and Jan-Michael Mewes 
   J. Chem. Phys. 154, 064103 (2021). DOI: 10.1063/5.0040021

----- AuxJ basis set information -----
Your calculation utilizes the auxiliary basis: def2/J
   F. Weigend, Phys. Chem. Chem. Phys. 8, 1057 (2006).

================================================================================
                                        WARNINGS
                       Please study these warnings very carefully!
================================================================================

WARNING: Old DensityContainer found on disk!
         Will remove this file - 
         If you want to keep old densities, please start your calculation with a different basename. 



WARNING: SCAN, rSCAN, or r2SCAN functional requested.
  ===> : libXC variant has now been activated.



================================================================================
                                       INPUT FILE
================================================================================
NAME = sp_solv.inp
|  1> ! r2scan-3c def2/J RI DEFGRID2 scfconv6 printgap
|  2> %output
|  3>     printlevel normal
|  4> end
|  5> %cpcm
|  6>     smd true
|  7>     smdsolvent "water"
|  8> end
|  9> * xyz 0 1
| 10> C 2.2176216972 -2.670854841 0.6830340409
| 11> C 3.2482790366 -1.8290576783 -0.0529331767
| 12> O 2.6116949387 -0.6880179981 -0.659050287
| 13> C 2.12471026 -0.8169950963 -1.8833866289
| 14> O 2.2814188152 -1.78964517 -2.583262415
| 15> C 1.3414929826 0.4151260655 -2.2967416691
| 16> C 0.2634942582 0.7228285635 -1.2607330259
| 17> H -0.3466363422 1.5707150436 -1.5873654607
| 18> C 0.8461655076 1.0655859865 0.1003128275
| 19> O 0.4967745682 0.509005118 1.1211612697
| 20> O 1.6945575732 2.0539353661 0.0258631757
| 21> C 2.2810622769 2.5441252518 1.2504015718
| 22> C 3.439961084 1.6705060092 1.698876844
| 23> S -0.8409736911 -0.7184972351 -1.0500550338
| 24> P -2.0490523545 0.0440302833 0.5271233042
| 25> S -2.1753528837 1.9912239635 0.6900441928
| 26> O -3.4614848965 -0.6273891437 0.1498569092
| 27> C -4.207267563 -0.2005137676 -0.9926386232
| 28> O -1.7718847379 -0.7247558676 1.8775739581
| 29> C -1.7731557335 -2.1630026864 1.9597899831
| 30> H 2.7167825356 -3.4637079735 1.2295398649
| 31> H 1.6608787589 -2.046914505 1.3798338999
| 32> H 1.521257074 -3.1103647733 -0.028504824
| 33> H 3.7426769539 -2.4094838946 -0.8366157285
| 34> H 3.9846636439 -1.4088456785 0.6325292143
| 35> H 0.8902197517 0.2230969266 -3.2693431033
| 36> H 2.017182775 1.269642143 -2.3594714959
| 37> H 2.6109256312 3.5515466512 0.9971002666
| 38> H 1.4997636522 2.5810569703 2.0152815297
| 39> H 3.077960803 0.680200317 1.9630051581
| 40> H 4.1714538761 1.5815133311 0.9004762331
| 41> H 3.9082112836 2.1194483404 2.5685950211
| 42> H -5.1898988114 -0.6530130338 -0.8876616608
| 43> H -3.7199858314 -0.5462103599 -1.9043714579
| 44> H -4.2877370783 0.8878508523 -1.0014248572
| 45> H -2.7863219243 -2.5385845161 1.8281501522
| 46> H -1.3988527043 -2.3895458729 2.9547441156
| 47> H -1.1166906565 -2.5829601878 1.1973305311
| 48> *
| 49> 
| 50>                          ****END OF INPUT****
================================================================================

                       ****************************
                       * Single Point Calculation *
                       ****************************

---------------------------------
CARTESIAN COORDINATES (ANGSTROEM)
---------------------------------
  C      2.217622   -2.670855    0.683034
  C      3.248279   -1.829058   -0.052933
  O      2.611695   -0.688018   -0.659050
  C      2.124710   -0.816995   -1.883387
  O      2.281419   -1.789645   -2.583262
  C      1.341493    0.415126   -2.296742
  C      0.263494    0.722829   -1.260733
  H     -0.346636    1.570715   -1.587365
  C      0.846166    1.065586    0.100313
  O      0.496775    0.509005    1.121161
  O      1.694558    2.053935    0.025863
  C      2.281062    2.544125    1.250402
  C      3.439961    1.670506    1.698877
  S     -0.840974   -0.718497   -1.050055
  P     -2.049052    0.044030    0.527123
  S     -2.175353    1.991224    0.690044
  O     -3.461485   -0.627389    0.149857
  C     -4.207268   -0.200514   -0.992639
  O     -1.771885   -0.724756    1.877574
  C     -1.773156   -2.163003    1.959790
  H      2.716783   -3.463708    1.229540
  H      1.660879   -2.046915    1.379834
  H      1.521257   -3.110365   -0.028505
  H      3.742677   -2.409484   -0.836616
  H      3.984664   -1.408846    0.632529
  H      0.890220    0.223097   -3.269343
  H      2.017183    1.269642   -2.359471
  H      2.610926    3.551547    0.997100
  H      1.499764    2.581057    2.015282
  H      3.077961    0.680200    1.963005
  H      4.171454    1.581513    0.900476
  H      3.908211    2.119448    2.568595
  H     -5.189899   -0.653013   -0.887662
  H     -3.719986   -0.546210   -1.904371
  H     -4.287737    0.887851   -1.001425
  H     -2.786322   -2.538585    1.828150
  H     -1.398853   -2.389546    2.954744
  H     -1.116691   -2.582960    1.197331

----------------------------
CARTESIAN COORDINATES (A.U.)
----------------------------
  NO LB      ZA    FRAG     MASS         X           Y           Z
   0 C     6.0000    0    12.011    4.190698   -5.047184    1.290747
   1 C     6.0000    0    12.011    6.138358   -3.456418   -0.100029
   2 O     8.0000    0    15.999    4.935388   -1.300166   -1.245425
   3 C     6.0000    0    12.011    4.015121   -1.543897   -3.559085
   4 O     8.0000    0    15.999    4.311257   -3.381939   -4.881658
   5 C     6.0000    0    12.011    2.535054    0.784475   -4.340213
   6 C     6.0000    0    12.011    0.497932    1.365948   -2.382440
   7 H     1.0000    0     1.008   -0.655048    2.968221   -2.999686
   8 C     6.0000    0    12.011    1.599021    2.013666    0.189564
   9 O     8.0000    0    15.999    0.938768    0.961880    2.118688
  10 O     8.0000    0    15.999    3.202250    3.881375    0.048874
  11 C     6.0000    0    12.011    4.310583    4.807700    2.362917
  12 C     6.0000    0    12.011    6.500584    3.156799    3.210412
  13 S    16.0000    0    32.060   -1.589210   -1.357763   -1.984316
  14 P    15.0000    0    30.974   -3.872148    0.083205    0.996119
  15 S    16.0000    0    32.060   -4.110821    3.762868    1.303995
  16 O     8.0000    0    15.999   -6.541258   -1.185594    0.283189
  17 C     6.0000    0    12.011   -7.950583   -0.378916   -1.875815
  18 O     8.0000    0    15.999   -3.348377   -1.369590    3.548101
  19 C     6.0000    0    12.011   -3.350779   -4.087483    3.703466
  20 H     1.0000    0     1.008    5.133975   -6.545459    2.323494
  21 H     1.0000    0     1.008    3.138606   -3.868108    2.607508
  22 H     1.0000    0     1.008    2.874759   -5.877738   -0.053866
  23 H     1.0000    0     1.008    7.072634   -4.553265   -1.580975
  24 H     1.0000    0     1.008    7.529923   -2.662332    1.195307
  25 H     1.0000    0     1.008    1.682272    0.421592   -6.178163
  26 H     1.0000    0     1.008    3.811923    2.399276   -4.458755
  27 H     1.0000    0     1.008    4.933934    6.711451    1.884246
  28 H     1.0000    0     1.008    2.834143    4.877491    3.808330
  29 H     1.0000    0     1.008    5.816503    1.285392    3.709542
  30 H     1.0000    0     1.008    7.882905    2.988627    1.701653
  31 H     1.0000    0     1.008    7.385449    4.005177    4.853941
  32 H     1.0000    0     1.008   -9.807487   -1.234016   -1.677437
  33 H     1.0000    0     1.008   -7.029754   -1.032188   -3.598741
  34 H     1.0000    0     1.008   -8.102649    1.677795   -1.892419
  35 H     1.0000    0     1.008   -5.265385   -4.797230    3.454703
  36 H     1.0000    0     1.008   -2.643449   -4.515587    5.583657
  37 H     1.0000    0     1.008   -2.110240   -4.881087    2.262627

--------------------------------
INTERNAL COORDINATES (ANGSTROEM)
--------------------------------
 C      0   0   0     0.000000000000     0.00000000     0.00000000
 C      1   0   0     1.520698773515     0.00000000     0.00000000
 O      2   1   0     1.440343298276   110.03813679     0.00000000
 C      3   2   1     1.323929245559   118.33020956   271.26600737
 O      4   3   2     1.208483286236   124.49125235   352.90308822
 C      4   3   2     1.517370834777   111.26488118   172.85679132
 C      6   4   3     1.526458642043   110.07915734   305.80276957
 H      7   6   4     1.094467715442   110.32235686   183.74271432
 C      7   6   4     1.519682286189   112.49146278    63.28776549
 O      9   7   6     1.214079006349   122.63795458   232.35666716
 O      9   7   6     1.304663306674   111.65898751    55.49437838
 C     11   9   7     1.443526298696   118.23231689   176.75972233
 C     12  11   9     1.519008589809   111.41570660    80.94098841
 S      7   6   4     1.828019344836   110.24072252   302.89176766
 P     14   7   6     2.128002298668    98.38873059   175.78658564
 S     15  14   7     1.958075143560   117.04079101    24.49540347
 O     15  14   7     1.608757180388   100.08266337   145.94270359
 C     17  15  14     1.429584000304   121.38641780   289.48368998
 O     15  14   7     1.578471096386   111.09295957   249.44848496
 C     19  15  14     1.440595363725   122.33865467   310.07141706
 H      1   2   3     1.084641068729   109.66897392   186.37344935
 H      1   2   3     1.088482561062   109.82592082   306.60472171
 H      1   2   3     1.088292343673   109.92599861    66.31637409
 H      2   1   3     1.093381102450   111.06862580   239.72685274
 H      2   1   3     1.090274783768   111.52095296   116.02362474
 H      6   4   3     1.089254914573   108.29648231   184.99188760
 H      6   4   3     1.091187176166   109.38584304    65.01674114
 H     12  11   9     1.089894150684   103.86880457   201.30251389
 H     12  11   9     1.093998557031   108.32412610   318.60911151
 H     13  12  11     1.086974394251   109.97658769   294.53373907
 H     13  12  11     1.086482828735   110.10890738    54.86012372
 H     13  12  11     1.084996393426   109.14426573   174.97743781
 H     18  17  15     1.086894621791   105.67211455   191.93789272
 H     18  17  15     1.090048797875   109.91001255    72.50251959
 H     18  17  15     1.091370737491   110.04006721   311.17998200
 H     20  19  15     1.088529506288   109.77898913   290.61013033
 H     20  19  15     1.086903077002   105.07179379   171.11889289
 H     20  19  15     1.090254610743   110.12814496    51.93975454

---------------------------
INTERNAL COORDINATES (A.U.)
---------------------------
 C      0   0   0     0.000000000000     0.00000000     0.00000000
 C      1   0   0     2.873704214134     0.00000000     0.00000000
 O      2   1   0     2.721854372570   110.03813679     0.00000000
 C      3   2   1     2.501863694795   118.33020956   271.26600737
 O      4   3   2     2.283702448406   124.49125235   352.90308822
 C      4   3   2     2.867415321328   111.26488118   172.85679132
 C      6   4   3     2.884588788219   110.07915734   305.80276957
 H      7   6   4     2.068244244603   110.32235686   183.74271432
 C      7   6   4     2.871783331468   112.49146278    63.28776549
 O      9   7   6     2.294276826943   122.63795458   232.35666716
 O      9   7   6     2.465456346590   111.65898751    55.49437838
 C     11   9   7     2.727869371649   118.23231689   176.75972233
 C     12  11   9     2.870510229813   111.41570660    80.94098841
 S      7   6   4     3.454455929251   110.24072252   302.89176766
 P     14   7   6     4.021341556837    98.38873059   175.78658564
 S     15  14   7     3.700225770968   117.04079101    24.49540347
 O     15  14   7     3.040110486913   100.08266337   145.94270359
 C     17  15  14     2.701522246011   121.38641780   289.48368998
 O     15  14   7     2.982878082480   111.09295957   249.44848496
 C     19  15  14     2.722330707236   122.33865467   310.07141706
 H      1   2   3     2.049674573501   109.66897392   186.37344935
 H      1   2   3     2.056933941957   109.82592082   306.60472171
 H      1   2   3     2.056574483186   109.92599861    66.31637409
 H      2   1   3     2.066190843635   111.06862580   239.72685274
 H      2   1   3     2.060320752041   111.52095296   116.02362474
 H      6   4   3     2.058393478571   108.29648231   184.99188760
 H      6   4   3     2.062044923801   109.38584304    65.01674114
 H     12  11   9     2.059601459755   103.86880457   201.30251389
 H     12  11   9     2.067357663694   108.32412610   318.60911151
 H     13  12  11     2.054083919719   109.97658769   294.53373907
 H     13  12  11     2.053154995516   110.10890738    54.86012372
 H     13  12  11     2.050346039867   109.14426573   174.97743781
 H     18  17  15     2.053933171617   105.67211455   191.93789272
 H     18  17  15     2.059893700594   109.91001255    72.50251959
 H     18  17  15     2.062391804433   110.04006721   311.17998200
 H     20  19  15     2.057022655577   109.77898913   290.61013033
 H     20  19  15     2.053949149650   105.07179379   171.11889289
 H     20  19  15     2.060282630550   110.12814496    51.93975454

---------------------
BASIS SET INFORMATION
---------------------
There are 5 groups of distinct atoms

 Group   1 Type C   : 11s6p1d contracted to 5s3p1d pattern {62111/411/1}
 Group   2 Type O   : 11s6p2d contracted to 5s3p2d pattern {62111/411/11}
 Group   3 Type H   : 4s1p contracted to 2s1p pattern {31/1}
 Group   4 Type S   : 14s9p2d contracted to 5s4p2d pattern {73211/6111/11}
 Group   5 Type P   : 14s9p2d contracted to 5s4p2d pattern {73211/6111/11}

Atom   0C    basis set group =>   1
Atom   1C    basis set group =>   1
Atom   2O    basis set group =>   2
Atom   3C    basis set group =>   1
Atom   4O    basis set group =>   2
Atom   5C    basis set group =>   1
Atom   6C    basis set group =>   1
Atom   7H    basis set group =>   3
Atom   8C    basis set group =>   1
Atom   9O    basis set group =>   2
Atom  10O    basis set group =>   2
Atom  11C    basis set group =>   1
Atom  12C    basis set group =>   1
Atom  13S    basis set group =>   4
Atom  14P    basis set group =>   5
Atom  15S    basis set group =>   4
Atom  16O    basis set group =>   2
Atom  17C    basis set group =>   1
Atom  18O    basis set group =>   2
Atom  19C    basis set group =>   1
Atom  20H    basis set group =>   3
Atom  21H    basis set group =>   3
Atom  22H    basis set group =>   3
Atom  23H    basis set group =>   3
Atom  24H    basis set group =>   3
Atom  25H    basis set group =>   3
Atom  26H    basis set group =>   3
Atom  27H    basis set group =>   3
Atom  28H    basis set group =>   3
Atom  29H    basis set group =>   3
Atom  30H    basis set group =>   3
Atom  31H    basis set group =>   3
Atom  32H    basis set group =>   3
Atom  33H    basis set group =>   3
Atom  34H    basis set group =>   3
Atom  35H    basis set group =>   3
Atom  36H    basis set group =>   3
Atom  37H    basis set group =>   3
---------------------------------
AUXILIARY/J BASIS SET INFORMATION
---------------------------------
There are 5 groups of distinct atoms

 Group   1 Type C   : 12s5p4d2f1g contracted to 6s4p3d1f1g pattern {711111/2111/211/2/1}
 Group   2 Type O   : 12s5p4d2f1g contracted to 6s4p3d1f1g pattern {711111/2111/211/2/1}
 Group   3 Type H   : 5s2p1d contracted to 3s1p1d pattern {311/2/1}
 Group   4 Type S   : 14s5p5d2f1g contracted to 8s4p3d1f1g pattern {71111111/2111/311/2/1}
 Group   5 Type P   : 14s5p5d2f1g contracted to 8s4p3d1f1g pattern {71111111/2111/311/2/1}

Atom   0C    basis set group =>   1
Atom   1C    basis set group =>   1
Atom   2O    basis set group =>   2
Atom   3C    basis set group =>   1
Atom   4O    basis set group =>   2
Atom   5C    basis set group =>   1
Atom   6C    basis set group =>   1
Atom   7H    basis set group =>   3
Atom   8C    basis set group =>   1
Atom   9O    basis set group =>   2
Atom  10O    basis set group =>   2
Atom  11C    basis set group =>   1
Atom  12C    basis set group =>   1
Atom  13S    basis set group =>   4
Atom  14P    basis set group =>   5
Atom  15S    basis set group =>   4
Atom  16O    basis set group =>   2
Atom  17C    basis set group =>   1
Atom  18O    basis set group =>   2
Atom  19C    basis set group =>   1
Atom  20H    basis set group =>   3
Atom  21H    basis set group =>   3
Atom  22H    basis set group =>   3
Atom  23H    basis set group =>   3
Atom  24H    basis set group =>   3
Atom  25H    basis set group =>   3
Atom  26H    basis set group =>   3
Atom  27H    basis set group =>   3
Atom  28H    basis set group =>   3
Atom  29H    basis set group =>   3
Atom  30H    basis set group =>   3
Atom  31H    basis set group =>   3
Atom  32H    basis set group =>   3
Atom  33H    basis set group =>   3
Atom  34H    basis set group =>   3
Atom  35H    basis set group =>   3
Atom  36H    basis set group =>   3
Atom  37H    basis set group =>   3

Checking for AutoStart:
The File: sp_solv.gbw exists
Trying to determine its content:
     ... Fine, the file contains calculation information
     ... Fine, the calculation information was read
     ... Fine, the file contains a basis set
     ... Fine, the basis set was read
     ... Fine, the file contains a geometry
     ... Fine, the geometry was read
     ... Fine, the file contains a set of orbitals
     ... Fine, the orbitals can be read
     => possible old guess file was deleted
     => GBW file was renamed to GES file
     => GES file is set as startup file
     => Guess is set to MORead
     ... now leaving AutoStart

------------------------------------------------------------------------------
                             ORCA STARTUP CALCULATIONS
                           -- RI-GTO INTEGRALS CHOSEN --
------------------------------------------------------------------------------
------------------------------------------------------------------------------
                   ___                                                        
                  /   \      - P O W E R E D   B Y -                         
                 /     \                                                     
                 |  |  |   _    _      __       _____    __    __             
                 |  |  |  | |  | |    /  \     |  _  \  |  |  /  |          
                  \  \/   | |  | |   /    \    | | | |  |  | /  /          
                 / \  \   | |__| |  /  /\  \   | |_| |  |  |/  /          
                |  |  |   |  __  | /  /__\  \  |    /   |      \           
                |  |  |   | |  | | |   __   |  |    \   |  |\   \          
                \     /   | |  | | |  |  |  |  | |\  \  |  | \   \       
                 \___/    |_|  |_| |__|  |__|  |_| \__\ |__|  \__/        
                                                                              
                      - O R C A' S   B I G   F R I E N D -                    
                                      &                                       
                       - I N T E G R A L  F E E D E R -                       
                                                                              
 v1 FN, 2020, v2 2021, v3 2022-2024                                           
------------------------------------------------------------------------------


----------------------
SHARK INTEGRAL PACKAGE
----------------------

Number of atoms                             ...     38
Number of basis functions                   ...    510
Number of shells                            ...    240
Maximum angular momentum                    ...      2
Integral batch strategy                     ... SHARK/LIBINT Hybrid
RI-J (if used) integral strategy            ... SPLIT-RIJ (Revised 2003 algorithm where possible)
Printlevel                                  ...      1
Contraction scheme used                     ... SEGMENTED contraction
Prescreening option                         ... SCHWARTZ
   Thresh                                   ... 1.000e-10
   Tcut                                     ... 1.000e-11
   Tpresel                                  ... 1.000e-11 
Coulomb Range Separation                    ... NOT USED
Exchange Range Separation                   ... NOT USED
Multipole approximations                    ... NOT USED
Finite Nucleus Model                        ... NOT USED
CABS basis                                  ... NOT available
Auxiliary Coulomb fitting basis             ... AVAILABLE
   # of basis functions in Aux-J            ...   1146
   # of shells in Aux-J                     ...    386
   Maximum angular momentum in Aux-J        ...      4
Auxiliary J/K fitting basis                 ... NOT available
Auxiliary Correlation fitting basis         ... NOT available
Auxiliary 'external' fitting basis          ... NOT available

Checking pre-screening integrals            ... done (  0.0 sec) Dimension = 240
Check shell pair data                       ... done (  0.0 sec)
Shell pair information
Shell pair cut-off parameter TPreSel        ...   1.0e-11
Total number of shell pairs                 ...     28920
Shell pairs after pre-screening             ...     21117
Total number of primitive shell pairs       ...    108409
Primitive shell pairs kept                  ...     48744
          la=0 lb=0:   6117 shell pairs
          la=1 lb=0:   7634 shell pairs
          la=1 lb=1:   2425 shell pairs
          la=2 lb=0:   2827 shell pairs
          la=2 lb=1:   1766 shell pairs
          la=2 lb=2:    348 shell pairs

Calculating one electron integrals          ... done (  0.1 sec)
Calculating RI/J V-Matrix + Cholesky decomp.... done (  0.1 sec)
Calculating Nuclear repulsion               ... done (  0.0 sec) ENN=   2222.935391351562 Eh

Diagonalization of the overlap matrix:
Smallest eigenvalue                        ... 5.775e-05
Time for diagonalization                   ...    0.032 sec
Threshold for overlap eigenvalues          ... 1.000e-07
Number of eigenvalues below threshold      ... 0
Time for construction of square roots      ...    0.031 sec
Total time needed                          ...    0.064 sec

-------------------
DFT GRID GENERATION
-------------------

General Integration Accuracy     IntAcc      ... 4.388
Radial Grid Type                 RadialGrid  ... OptM3 with GC (2021)
Angular Grid (max. ang.)         AngularGrid ... 4 (Lebedev-302)
Angular grid pruning method      GridPruning ... 4 (adaptive)
Weight generation scheme         WeightScheme... mBecke (2022)
Basis function cutoff            BFCut       ... 1.0000e-10
Integration weight cutoff        WCut        ... 1.0000e-14
Partially contracted basis set               ... off
Rotationally invariant grid construction     ... off
Angular grids for H and He will be reduced by one unit
Diffuse basis detected: some atoms will have their outermost
                        angular grid increased by 1.

Total number of grid points                  ...   179796
Total number of batches                      ...     2826
Average number of points per batch           ...       63
Average number of grid points per atom       ...     4731
Initializing property integral containers    ... done (  0.0 sec)

SHARK setup successfully completed in   2.7 seconds

Maximum memory used throughout the entire STARTUP-calculation: 100.3 MB
-------------------------------------------------------------------------------
                                 ORCA GUESS
                   Start orbitals & Density for SCF / CASSCF
-------------------------------------------------------------------------------

------------
SCF SETTINGS
------------
Hamiltonian:
 Density Functional     Method          .... DFT(GTOs)
  Functional kind                       .... Exchange
  Functional name                       .... Re-regularized SCAN exchange by Furness et al
  Functional family                     .... MGGA
  Functional refs                              
    [ 0] J. W. Furness, A. D. Kaplan, J. Ning, J. P. Perdew, and J. Sun.,  J. Phys. Chem. Lett. 11, 8208-8215 (2020), doi: 10.1021/acs.jpclett.0c02405
    [ 1] J. W. Furness, A. D. Kaplan, J. Ning, J. P. Perdew, and J. Sun.,  J. Phys. Chem. Lett. 11, 9248-9248 (2020), doi: 10.1021/acs.jpclett.0c03077
  Functional external parameters        .... 6
    Parameter  0 _c1        =  6.670000e-01 : c1 parameter        
    Parameter  1 _c2        =  8.000000e-01 : c2 parameter        
    Parameter  2 _d         =  1.240000e+00 : d parameter         
    Parameter  3 _k1        =  6.500000e-02 : k1 parameter        
    Parameter  4 _eta       =  1.000000e-03 : eta parameter       
    Parameter  5 _dp2       =  3.610000e-01 : dp2 parameter       
  Functional kind                       .... Correlation
  Functional name                       .... Re-regularized SCAN correlation by Furness et al
  Functional family                     .... MGGA
  Functional refs                              
    [ 0] J. W. Furness, A. D. Kaplan, J. Ning, J. P. Perdew, and J. Sun.,  J. Phys. Chem. Lett. 11, 8208-8215 (2020), doi: 10.1021/acs.jpclett.0c02405
    [ 1] J. W. Furness, A. D. Kaplan, J. Ning, J. P. Perdew, and J. Sun.,  J. Phys. Chem. Lett. 11, 9248-9248 (2020), doi: 10.1021/acs.jpclett.0c03077
  Functional external parameters        .... 1
    Parameter  0 _eta       =  1.000000e-03 : Regularization parameter
 Gradients option       PostSCFGGA      .... off
 RI-approximation to the Coulomb term is turned on
   Number of AuxJ basis functions       .... 1146


General Settings:
 Integral files         IntName         .... sp_solv
 Hartree-Fock type      HFTyp           .... RHF
 Total Charge           Charge          ....    0
 Multiplicity           Mult            ....    1
 Number of Electrons    NEL             ....  174
 Basis Dimension        Dim             ....  510
 Nuclear Repulsion      ENuc            ....   2222.9353913516 Eh

Convergence Acceleration:
 AO-DIIS                CNVDIIS         .... on
   Start iteration      DIISMaxIt       ....    12
   Startup error        DIISStart       ....  0.200000
   # of expansion vecs  DIISMaxEq       ....     5
   Bias factor          DIISBfac        ....   1.050
   Max. coefficient     DIISMaxC        ....  10.000
 MO-DIIS                CNVKDIIS        .... off
 Trust-Rad. Augm. Hess. CNVTRAH         .... auto
   Auto Start mean grad. ratio tolernc. ....  1.125000
   Auto Start start iteration           ....     1
   Auto Start num. interpolation iter.  ....    10
   Max. Number of Micro iterations      ....    24
   Max. Number of Macro iterations      .... Maxiter - #DIIS iter
   Number of Davidson start vectors     ....     2
   Converg. threshold    (grad. norm)   ....   3.330e-04
   Grad. Scal. Fac. for Micro threshold ....   0.100
   Minimum threshold for Micro iter.    ....   1.000e-02
   NR start threshold (gradient norm)   ....   1.000e-04
   Initial trust radius                 ....   0.400
   Minimum AH scaling param. (alpha)    ....   1.000
   Maximum AH scaling param. (alpha)    .... 1000.000
   Quad. conv. algorithm                .... NR
   White noise on init. David. guess    .... on
   Maximum white noise                  ....   0.010
   Pseudo random numbers                .... off
   Inactive MOs                         .... canonical
   Orbital update algorithm             .... Taylor
   Preconditioner                       .... Diag
   Full preconditioner red. dimension   ....   250
   COSX micro iterations for RIJONX calc.... off
 SOSCF                  CNVSOSCF        .... on
   Start iteration      SOSCFMaxIt      ....   150
   Startup grad/error   SOSCFStart      ....  0.003300
   Hessian update       SOSCFHessUp     .... L-BFGS
 Level Shifting         CNVShift        .... on
   Level shift para.    LevelShift      ....    0.2500
   Turn off err/grad.   ShiftErr        ....    0.0010
 Zerner damping         CNVZerner       .... off
 Static damping         CNVDamp         .... on
   Fraction old density DampFac         ....    0.7000
   Max. Damping (<1)    DampMax         ....    0.9800
   Min. Damping (>=0)   DampMin         ....    0.0000
   Turn off err/grad.   DampErr         ....    0.1000

SCF Procedure:
 Maximum # iterations   MaxIter         ....   125
 SCF integral mode      SCFMode         .... Direct
   Integral package                     .... SHARK and LIBINT hybrid scheme
 Reset frequency        DirectResetFreq ....    20
 Integral Threshold     Thresh          ....  1.000e-10 Eh
 Primitive CutOff       TCut            ....  1.000e-11 Eh

Convergence Tolerance:
 Convergence Check Mode ConvCheckMode   .... Total+1el-Energy
 Convergence forced     ConvForced      .... 0
 Energy Change          TolE            ....  1.000e-06 Eh
 1-El. energy change                    ....  1.000e-03 Eh
 Orbital Gradient       TolG            ....  3.330e-04
 Orbital Rotation angle TolX            ....  3.330e-04
 DIIS Error             TolErr          ....  1.000e-06

---------------------
INITIAL GUESS: MOREAD
---------------------
Guess MOs are being read from file: sp_solv.ges
Input Geometry matches current geometry (good)
Atom 0: N(Shells)= 9 and 6 - projection required
Input basis set needs projection
NBasis(read)= 316
NBasis(calc)= 510
Basis set overlap was calculated
Using GuessMode=FMatrix for the initial guess
C*T matrix was formed
Effective Fockian was calculated
Effective Fockian was diagonalized
Initial density was built
                      ------------------
                      INITIAL GUESS DONE (   0.1 sec)
                      ------------------
             **** ENERGY FILE WAS UPDATED (sp_solv.en.tmp) ****
Finished Guess after   0.2 sec
Maximum memory used throughout the entire GUESS-calculation: 59.5 MB

-------------------------------------------------------------------------------------------
                                      ORCA LEAN-SCF
                              memory conserving SCF solver
-------------------------------------------------------------------------------------------

--------------------
CPCM SOLVATION MODEL
--------------------
CPCM parameters:
  Epsilon                                         ...      78.3550
  Refrac                                          ...       1.3328
  Rsolv                                           ...       1.3000
  Surface type                                    ... GAUSSIAN VDW
  Discretization scheme                           ... Constant charge density
    Threshold for H atoms                         ...       5.0000 (charges/Ang^2)
    Threshold for non-H atoms                     ...       5.0000 (charges/Ang^2)
  Epsilon function type                           ...         CPCM
Solvent:                                          ... WATER
SMD-CDS solvent descriptors:
  Soln                                            ...       1.3328
  Soln25                                          ...       1.3323
  Sola                                            ...       0.0000
  Solb                                            ...       0.0000
  Solg                                            ...       0.0000
  Solc                                            ...       0.0000
  Solh                                            ...       0.0000
Radii:
  Scheme                                          ... Element-dependent radii
  Radius for C  used is    3.4960 Bohr (=   1.8500 Ang.)
  Radius for O  used is    2.8724 Bohr (=   1.5200 Ang.)
  Radius for H  used is    2.2677 Bohr (=   1.2000 Ang.)
  Radius for S  used is    4.7054 Bohr (=   2.4900 Ang.)
  Radius for P  used is    4.0062 Bohr (=   2.1200 Ang.)
Calculating surface                               ...        done! (  0.0s)
Cavity surface points                             ...         2945
Cavity Volume                                     ...    2225.7204
Cavity Surface-area                               ...    1209.0798
Calculating surface distance matrix               ...        done! (  0.0s)
Performing Cholesky decomposition & store         ...        done! (  0.3s)
Overall time for CPCM initialization              ...                 0.3s

----------------------------------------D-I-I-S--------------------------------------------
Iteration    Energy (Eh)           Delta-E    RMSDP     MaxDP     DIISErr   Damp  Time(sec)
-------------------------------------------------------------------------------------------
               ***  Starting incremental Fock matrix formation  ***
    1    -1980.9941221287940607     0.00e+00  3.50e-03  3.36e-01  6.35e-01  0.700  12.2
    2    -1981.1442464632632436    -1.50e-01  2.70e-03  1.88e-01  4.47e-01  0.700  10.6
    3    -1981.2503455038545326    -1.06e-01  1.96e-03  1.17e-01  3.14e-01  0.700  10.4
    4    -1981.3248534891495183    -7.45e-02  1.39e-03  7.67e-02  2.20e-01  0.700  10.2
                               ***Turning on AO-DIIS***
    5    -1981.3771341107199078    -5.23e-02  1.00e-03  5.52e-02  1.54e-01  0.700  10.0
    6    -1981.4137738139356770    -3.66e-02  7.09e-04  3.89e-02  1.07e-01  0.700   9.9
    7    -1981.4394799463657364    -2.57e-02  4.99e-04  2.73e-02  7.51e-02  0.700   9.7
    8    -1981.4574924392695721    -1.80e-02  1.17e-03  6.40e-02  5.27e-02  0.000   9.6
                              *** Initializing SOSCF ***
---------------------------------------S-O-S-C-F--------------------------------------
Iteration    Energy (Eh)           Delta-E    RMSDP     MaxDP     MaxGrad    Time(sec)
--------------------------------------------------------------------------------------
    9    -1981.4995880865640174    -4.21e-02  1.03e-05  9.01e-04  2.08e-04    10.0
               *** Restarting incremental Fock matrix formation ***
   10    -1981.4995881891304634    -1.03e-07  7.60e-06  4.02e-04  5.43e-05    12.2
                  *** Gradient check signals convergence ***

               *****************************************************
               *                     SUCCESS                       *
               *           SCF CONVERGED AFTER  10 CYCLES          *
               *****************************************************


SMD CDS free energy correction energy :                 9.13732     Kcal/mol
Total Energy after SMD CDS correction =             -1981.485026941 Eh
             **** ENERGY FILE WAS UPDATED (sp_solv.en.tmp) ****

----------------
TOTAL SCF ENERGY
----------------

Total Energy       :      -1981.48502694063677 Eh          -53918.94877 eV

Components:
Nuclear Repulsion  :       2222.93539135156198 Eh           60489.14721 eV
Electronic Energy  :      -4204.39729336072742 Eh         -114407.46672 eV
One Electron Energy:      -7152.79880808941016 Eh         -194637.55075 eV
Two Electron Energy:       2948.40151472868229 Eh           80230.08403 eV
CPCM Dielectric    :         -0.03768617996536 Eh              -1.02549 eV
SMD CDS (Gcds)     :          0.01456124849371 Eh               0.39623 eV

Virial components:
Potential Energy   :      -3956.65357297299943 Eh         -107666.01736 eV
Kinetic Energy     :       1975.16854603236288 Eh           53747.06859 eV
Virial Ratio       :          2.00319794526951

DFT components:
N(Alpha)           :       87.000025947414 electrons
N(Beta)            :       87.000025947414 electrons
N(Total)           :      174.000051894829 electrons
E(X)               :     -181.430447898983 Eh       
E(C)               :       -5.976106977051 Eh       
E(XC)              :     -187.406554876034 Eh       

CPCM Solvation Model Properties:
Surface-charge          :         -0.04717487292166
Corrected charge        :         -0.00000000000000
Outlying charge corr.   :          0.00012443885665 Eh               0.00339 eV
Free-energy (cav+disp)  :          0.01456124849371 Eh               0.39623 eV

---------------
SCF CONVERGENCE
---------------

  Last Energy change         ...    1.0257e-07  Tolerance :   1.0000e-06
  Last MAX-Density change    ...    4.0154e-04  Tolerance :   1.0000e-05
  Last RMS-Density change    ...    7.6020e-06  Tolerance :   1.0000e-06
  Last DIIS Error            ...    2.0810e-04  Tolerance :   1.0000e-06
  Last Orbital Gradient      ...    5.4282e-05  Tolerance :   3.3300e-04
  Last Orbital Rotation      ...    2.2595e-04  Tolerance :   3.3300e-04


----------------
ORBITAL ENERGIES
----------------

  NO   OCC          E(Eh)            E(eV) 
   0   2.0000     -88.579172     -2410.3618 
   1   2.0000     -88.525528     -2408.9021 
   2   2.0000     -76.920626     -2093.1166 
   3   2.0000     -19.013212      -517.3758 
   4   2.0000     -19.009727      -517.2810 
   5   2.0000     -18.995559      -516.8955 
   6   2.0000     -18.989318      -516.7256 
   7   2.0000     -18.951671      -515.7012 
   8   2.0000     -18.948654      -515.6191 
   9   2.0000     -10.175108      -276.8788 
  10   2.0000     -10.173155      -276.8256 
  11   2.0000     -10.100008      -274.8352 
  12   2.0000     -10.088850      -274.5316 
  13   2.0000     -10.086387      -274.4645 
  14   2.0000     -10.084946      -274.4253 
  15   2.0000     -10.078900      -274.2608 
  16   2.0000     -10.061367      -273.7837 
  17   2.0000     -10.019747      -272.6512 
  18   2.0000     -10.019258      -272.6379 
  19   2.0000      -7.873368      -214.2452 
  20   2.0000      -7.820815      -212.8152 
  21   2.0000      -6.598464      -179.5533 
  22   2.0000      -5.820228      -158.3765 
  23   2.0000      -5.817284      -158.2963 
  24   2.0000      -5.810463      -158.1107 
  25   2.0000      -5.768632      -156.9725 
  26   2.0000      -5.761229      -156.7710 
  27   2.0000      -5.760411      -156.7488 
  28   2.0000      -4.744211      -129.0966 
  29   2.0000      -4.743541      -129.0783 
  30   2.0000      -4.742007      -129.0366 
  31   2.0000      -1.094754       -29.7898 
  32   2.0000      -1.086724       -29.5713 
  33   2.0000      -1.051861       -28.6226 
  34   2.0000      -1.007648       -27.4195 
  35   2.0000      -1.000419       -27.2228 
  36   2.0000      -0.998549       -27.1719 
  37   2.0000      -0.816155       -22.2087 
  38   2.0000      -0.749786       -20.4027 
  39   2.0000      -0.744595       -20.2615 
  40   2.0000      -0.728359       -19.8196 
  41   2.0000      -0.695408       -18.9230 
  42   2.0000      -0.667776       -18.1711 
  43   2.0000      -0.659691       -17.9511 
  44   2.0000      -0.655340       -17.8327 
  45   2.0000      -0.625328       -17.0160 
  46   2.0000      -0.600346       -16.3362 
  47   2.0000      -0.538804       -14.6616 
  48   2.0000      -0.530745       -14.4423 
  49   2.0000      -0.520591       -14.1660 
  50   2.0000      -0.504217       -13.7204 
  51   2.0000      -0.491915       -13.3857 
  52   2.0000      -0.490256       -13.3405 
  53   2.0000      -0.471422       -12.8281 
  54   2.0000      -0.464076       -12.6281 
  55   2.0000      -0.458139       -12.4666 
  56   2.0000      -0.448617       -12.2075 
  57   2.0000      -0.444896       -12.1062 
  58   2.0000      -0.438019       -11.9191 
  59   2.0000      -0.426221       -11.5981 
  60   2.0000      -0.419995       -11.4287 
  61   2.0000      -0.413248       -11.2451 
  62   2.0000      -0.408348       -11.1117 
  63   2.0000      -0.404912       -11.0182 
  64   2.0000      -0.390970       -10.6388 
  65   2.0000      -0.382994       -10.4218 
  66   2.0000      -0.374645       -10.1946 
  67   2.0000      -0.373439       -10.1618 
  68   2.0000      -0.355749        -9.6804 
  69   2.0000      -0.355521        -9.6742 
  70   2.0000      -0.352324        -9.5872 
  71   2.0000      -0.343708        -9.3528 
  72   2.0000      -0.337633        -9.1875 
  73   2.0000      -0.331791        -9.0285 
  74   2.0000      -0.319307        -8.6888 
  75   2.0000      -0.313753        -8.5377 
  76   2.0000      -0.310494        -8.4490 
  77   2.0000      -0.305560        -8.3147 
  78   2.0000      -0.290009        -7.8915 
  79   2.0000      -0.287748        -7.8300 
  80   2.0000      -0.281902        -7.6710 
  81   2.0000      -0.276672        -7.5286 
  82   2.0000      -0.261108        -7.1051 
  83   2.0000      -0.258443        -7.0326 
  84   2.0000      -0.242251        -6.5920 
  85   2.0000      -0.227291        -6.1849 
  86   2.0000      -0.221066        -6.0155 
  87   0.0000      -0.051466        -1.4005 
  88   0.0000      -0.040881        -1.1124 
  89   0.0000      -0.021485        -0.5846 
  90   0.0000       0.000091         0.0025 
  91   0.0000       0.015260         0.4152 
  92   0.0000       0.035369         0.9624 
  93   0.0000       0.053322         1.4510 
  94   0.0000       0.072886         1.9833 
  95   0.0000       0.080733         2.1968 
  96   0.0000       0.087862         2.3909 
  97   0.0000       0.093469         2.5434 
*Only the first 10 virtual orbitals were printed.

                    ********************************
                    * MULLIKEN POPULATION ANALYSIS *
                    ********************************

-----------------------
MULLIKEN ATOMIC CHARGES
-----------------------
   0 C :   -0.507293
   1 C :   -0.142802
   2 O :   -0.109423
   3 C :    0.337378
   4 O :   -0.464612
   5 C :   -0.456103
   6 C :    0.016130
   7 H :    0.264739
   8 C :    0.281989
   9 O :   -0.448533
  10 O :   -0.155970
  11 C :   -0.120679
  12 C :   -0.528001
  13 S :   -0.206789
  14 P :    0.798329
  15 S :   -0.504259
  16 O :   -0.394488
  17 C :   -0.308590
  18 O :   -0.345170
  19 C :   -0.296856
  20 H :    0.174037
  21 H :    0.172552
  22 H :    0.173279
  23 H :    0.178347
  24 H :    0.181767
  25 H :    0.219736
  26 H :    0.236552
  27 H :    0.179185
  28 H :    0.177321
  29 H :    0.179756
  30 H :    0.171883
  31 H :    0.174923
  32 H :    0.177422
  33 H :    0.172887
  34 H :    0.176064
  35 H :    0.183043
  36 H :    0.183657
  37 H :    0.178593
Sum of atomic charges:    0.0000000

--------------------------------
MULLIKEN REDUCED ORBITAL CHARGES
--------------------------------
  0 C s       :     3.359680  s :     3.359680
      pz      :     1.052553  p :     3.122123
      px      :     1.020083
      py      :     1.049488
      dz2     :     0.001674  d :     0.025490
      dxz     :     0.008052
      dyz     :     0.006515
      dx2y2   :     0.001793
      dxy     :     0.007457

  1 C s       :     3.266874  s :     3.266874
      pz      :     1.027428  p :     2.823372
      px      :     0.959148
      py      :     0.836797
      dz2     :     0.005182  d :     0.052556
      dxz     :     0.011459
      dyz     :     0.013425
      dx2y2   :     0.008642
      dxy     :     0.013848

  2 O s       :     3.687600  s :     3.687600
      pz      :     1.274232  p :     4.386525
      px      :     1.579845
      py      :     1.532448
      dz2     :     0.001109  d :     0.035298
      dxz     :     0.009336
      dyz     :     0.007773
      dx2y2   :     0.008903
      dxy     :     0.008177

  3 C s       :     3.181904  s :     3.181904
      pz      :     0.776752  p :     2.354514
      px      :     0.805625
      py      :     0.772137
      dz2     :     0.040336  d :     0.126204
      dxz     :     0.022292
      dyz     :     0.027818
      dx2y2   :     0.015102
      dxy     :     0.020656

  4 O s       :     3.831450  s :     3.831450
      pz      :     1.598311  p :     4.612045
      px      :     1.572022
      py      :     1.441713
      dz2     :     0.001481  d :     0.021116
      dxz     :     0.003947
      dyz     :     0.006965
      dx2y2   :     0.005115
      dxy     :     0.003608

  5 C s       :     3.386380  s :     3.386380
      pz      :     1.009192  p :     3.035870
      px      :     1.011034
      py      :     1.015644
      dz2     :     0.007884  d :     0.033853
      dxz     :     0.007747
      dyz     :     0.004061
      dx2y2   :     0.004002
      dxy     :     0.010159

  6 C s       :     2.982582  s :     2.982582
      pz      :     0.944691  p :     2.957522
      px      :     0.996958
      py      :     1.015873
      dz2     :     0.010469  d :     0.043766
      dxz     :     0.009967
      dyz     :     0.006544
      dx2y2   :     0.006207
      dxy     :     0.010579

  7 H s       :     0.716853  s :     0.716853
      pz      :     0.003866  p :     0.018409
      px      :     0.006122
      py      :     0.008420

  8 C s       :     3.209280  s :     3.209280
      pz      :     0.868301  p :     2.380984
      px      :     0.737247
      py      :     0.775437
      dz2     :     0.035297  d :     0.127747
      dxz     :     0.025037
      dyz     :     0.025028
      dx2y2   :     0.021832
      dxy     :     0.020552

  9 O s       :     3.834941  s :     3.834941
      pz      :     1.453226  p :     4.578370
      px      :     1.563858
      py      :     1.561286
      dz2     :     0.008769  d :     0.035223
      dxz     :     0.004426
      dyz     :     0.008020
      dx2y2   :     0.007531
      dxy     :     0.006476

 10 O s       :     3.698256  s :     3.698256
      pz      :     1.520615  p :     4.419444
      px      :     1.476886
      py      :     1.421943
      dz2     :     0.011825  d :     0.038270
      dxz     :     0.004836
      dyz     :     0.007935
      dx2y2   :     0.009505
      dxy     :     0.004168

 11 C s       :     3.256843  s :     3.256843
      pz      :     0.811366  p :     2.811323
      px      :     0.983727
      py      :     1.016230
      dz2     :     0.011136  d :     0.052512
      dxz     :     0.015660
      dyz     :     0.008924
      dx2y2   :     0.009125
      dxy     :     0.007667

 12 C s       :     3.359867  s :     3.359867
      pz      :     1.104519  p :     3.142663
      px      :     0.992898
      py      :     1.045245
      dz2     :     0.003480  d :     0.025471
      dxz     :     0.006981
      dyz     :     0.003785
      dx2y2   :     0.005360
      dxy     :     0.005865

 13 S s       :     5.939564  s :     5.939564
      pz      :     3.480180  p :    10.170960
      px      :     3.334046
      py      :     3.356735
      dz2     :     0.017251  d :     0.096265
      dxz     :     0.019915
      dyz     :     0.018043
      dx2y2   :     0.014723
      dxy     :     0.026333

 14 P s       :     5.098098  s :     5.098098
      pz      :     2.821754  p :     8.393540
      px      :     2.794318
      py      :     2.777468
      dz2     :     0.121555  d :     0.710033
      dxz     :     0.108160
      dyz     :     0.190089
      dx2y2   :     0.112878
      dxy     :     0.177350

 15 S s       :     5.895471  s :     5.895471
      pz      :     3.689782  p :    10.547040
      px      :     3.722579
      py      :     3.134679
      dz2     :     0.008926  d :     0.061749
      dxz     :     0.002129
      dyz     :     0.013018
      dx2y2   :     0.025104
      dxy     :     0.012571

 16 O s       :     3.768511  s :     3.768511
      pz      :     1.492391  p :     4.591869
      px      :     1.373257
      py      :     1.726221
      dz2     :     0.014962  d :     0.034108
      dxz     :     0.004654
      dyz     :     0.004145
      dx2y2   :    -0.000342
      dxy     :     0.010690

 17 C s       :     3.344226  s :     3.344226
      pz      :     0.838059  p :     2.920325
      px      :     0.994199
      py      :     1.088067
      dz2     :     0.013450  d :     0.044039
      dxz     :     0.010592
      dyz     :     0.006639
      dx2y2   :     0.007938
      dxy     :     0.005420

 18 O s       :     3.739794  s :     3.739794
      pz      :     1.522272  p :     4.579375
      px      :     1.819834
      py      :     1.237269
      dz2     :     0.005896  d :     0.026001
      dxz     :     0.002423
      dyz     :     0.007888
      dx2y2   :     0.004345
      dxy     :     0.005449

 19 C s       :     3.343919  s :     3.343919
      pz      :     1.132630  p :     2.910158
      px      :     1.125536
      py      :     0.651992
      dz2     :     0.007598  d :     0.042778
      dxz     :     0.004165
      dyz     :     0.007715
      dx2y2   :     0.012215
      dxy     :     0.011084

 20 H s       :     0.807439  s :     0.807439
      pz      :     0.005681  p :     0.018524
      px      :     0.005017
      py      :     0.007826

 21 H s       :     0.809127  s :     0.809127
      pz      :     0.006637  p :     0.018321
      px      :     0.005715
      py      :     0.005968

 22 H s       :     0.808447  s :     0.808447
      pz      :     0.006682  p :     0.018273
      px      :     0.006805
      py      :     0.004787

 23 H s       :     0.803692  s :     0.803692
      pz      :     0.007705  p :     0.017960
      px      :     0.004951
      py      :     0.005304

 24 H s       :     0.800616  s :     0.800616
      pz      :     0.006676  p :     0.017617
      px      :     0.007318
      py      :     0.003624

 25 H s       :     0.762421  s :     0.762421
      pz      :     0.010147  p :     0.017843
      px      :     0.004510
      py      :     0.003186

 26 H s       :     0.745101  s :     0.745101
      pz      :     0.003324  p :     0.018348
      px      :     0.006508
      py      :     0.008515

 27 H s       :     0.803266  s :     0.803266
      pz      :     0.002710  p :     0.017549
      px      :     0.004034
      py      :     0.010805

 28 H s       :     0.804903  s :     0.804903
      pz      :     0.007121  p :     0.017776
      px      :     0.007410
      py      :     0.003245

 29 H s       :     0.801881  s :     0.801881
      pz      :     0.003993  p :     0.018363
      px      :     0.004352
      py      :     0.010019

 30 H s       :     0.809861  s :     0.809861
      pz      :     0.007607  p :     0.018256
      px      :     0.007025
      py      :     0.003624

 31 H s       :     0.806574  s :     0.806574
      pz      :     0.008620  p :     0.018503
      px      :     0.005109
      py      :     0.004774

 32 H s       :     0.804698  s :     0.804698
      pz      :     0.002620  p :     0.017879
      px      :     0.010396
      py      :     0.004863

 33 H s       :     0.809130  s :     0.809130
      pz      :     0.009133  p :     0.017983
      px      :     0.004666
      py      :     0.004184

 34 H s       :     0.805710  s :     0.805710
      pz      :     0.002628  p :     0.018227
      px      :     0.003275
      py      :     0.012324

 35 H s       :     0.799103  s :     0.799103
      pz      :     0.003681  p :     0.017854
      px      :     0.010840
      py      :     0.003333

 36 H s       :     0.798490  s :     0.798490
      pz      :     0.010696  p :     0.017854
      px      :     0.004619
      py      :     0.002539

 37 H s       :     0.803208  s :     0.803208
      pz      :     0.007637  p :     0.018199
      px      :     0.006782
      py      :     0.003780


------------------------
MULLIKEN OVERLAP CHARGES
------------------------
B(  0-C ,  1-C ) :   0.4436 B(  0-C ,  2-O ) :  -0.1006 B(  0-C , 20-H ) :   0.8066 
B(  0-C , 21-H ) :   0.8395 B(  0-C , 22-H ) :   0.8329 B(  0-C , 23-H ) :  -0.0622 
B(  0-C , 24-H ) :  -0.0584 B(  1-C ,  2-O ) :   0.2060 B(  1-C ,  3-C ) :  -0.1491 
B(  1-C , 20-H ) :  -0.0718 B(  1-C , 21-H ) :  -0.0818 B(  1-C , 22-H ) :  -0.0809 
B(  1-C , 23-H ) :   0.8288 B(  1-C , 24-H ) :   0.8198 B(  2-O ,  3-C ) :   0.2008 
B(  2-O ,  4-O ) :  -0.2062 B(  2-O ,  5-C ) :  -0.1406 B(  2-O ,  8-C ) :   0.1615 
B(  2-O , 23-H ) :  -0.0516 B(  2-O , 24-H ) :  -0.0876 B(  3-C ,  4-O ) :   1.0144 
B(  3-C ,  6-C ) :   0.3376 B(  3-C ,  8-C ) :  -0.2338 B(  3-C , 13-S ) :   0.0806 
B(  3-C , 25-H ) :  -0.1457 B(  4-O ,  5-C ) :  -0.1501 B(  5-C ,  6-C ) :  -0.4751 
B(  5-C ,  7-H ) :  -0.0654 B(  5-C ,  8-C ) :   0.2104 B(  5-C , 10-O ) :   0.1347 
B(  5-C , 13-S ) :  -0.0535 B(  5-C , 25-H ) :   0.9347 B(  5-C , 26-H ) :   0.7661 
B(  6-C ,  7-H ) :   0.8326 B(  6-C ,  8-C ) :  -0.1625 B(  6-C ,  9-O ) :  -0.1712 
B(  6-C , 10-O ) :  -0.1127 B(  6-C , 13-S ) :   0.3936 B(  6-C , 14-P ) :  -0.0637 
B(  6-C , 15-S ) :   0.0531 B(  6-C , 25-H ) :  -0.1034 B(  7-H , 13-S ) :  -0.0763 
B(  8-C ,  9-O ) :   0.7122 B(  8-C , 10-O ) :   0.3863 B(  8-C , 11-C ) :  -0.2773 
B(  8-C , 13-S ) :  -0.1914 B(  8-C , 14-P ) :  -0.0507 B(  9-O , 10-O ) :  -0.1705 
B(  9-O , 14-P ) :   0.1014 B(  9-O , 15-S ) :  -0.0697 B( 10-O , 11-C ) :   0.3357 
B( 10-O , 12-C ) :  -0.1297 B( 10-O , 27-H ) :  -0.0895 B( 10-O , 28-H ) :  -0.0605 
B( 11-C , 12-C ) :   0.4299 B( 11-C , 27-H ) :   0.7956 B( 11-C , 28-H ) :   0.8715 
B( 11-C , 29-H ) :  -0.0927 B( 11-C , 30-H ) :  -0.0589 B( 11-C , 31-H ) :  -0.0636 
B( 12-C , 28-H ) :  -0.0896 B( 12-C , 29-H ) :   0.8458 B( 12-C , 30-H ) :   0.8138 
B( 12-C , 31-H ) :   0.7970 B( 13-S , 14-P ) :   0.6036 B( 13-S , 15-S ) :  -0.1132 
B( 13-S , 16-O ) :  -0.1012 B( 13-S , 18-O ) :  -0.0761 B( 14-P , 15-S ) :   1.2719 
B( 14-P , 16-O ) :   0.4027 B( 14-P , 17-C ) :  -0.1666 B( 14-P , 18-O ) :   0.7380 
B( 14-P , 19-C ) :  -0.1959 B( 15-S , 16-O ) :  -0.0958 B( 15-S , 18-O ) :  -0.0922 
B( 16-O , 17-C ) :   0.3590 B( 16-O , 18-O ) :  -0.2490 B( 16-O , 32-H ) :  -0.0876 
B( 16-O , 33-H ) :  -0.0742 B( 16-O , 34-H ) :  -0.0814 B( 17-C , 32-H ) :   0.8012 
B( 17-C , 33-H ) :   0.8014 B( 17-C , 34-H ) :   0.8282 B( 18-O , 19-C ) :   0.3166 
B( 18-O , 35-H ) :  -0.0722 B( 18-O , 36-H ) :  -0.0753 B( 18-O , 37-H ) :  -0.0785 
B( 19-C , 35-H ) :   0.8119 B( 19-C , 36-H ) :   0.7877 B( 19-C , 37-H ) :   0.8103 
B( 21-H , 22-H ) :  -0.0510 B( 33-H , 34-H ) :  -0.0602 B( 35-H , 37-H ) :  -0.0574 



                     *******************************
                     * LOEWDIN POPULATION ANALYSIS *
                     *******************************

----------------------
LOEWDIN ATOMIC CHARGES
----------------------
   0 C :   -0.393155
   1 C :    0.038336
   2 O :   -0.592684
   3 C :    0.358550
   4 O :   -0.466964
   5 C :   -0.190269
   6 C :   -0.188698
   7 H :    0.216100
   8 C :    0.338175
   9 O :   -0.497708
  10 O :   -0.567081
  11 C :    0.041936
  12 C :   -0.391095
  13 S :    0.215460
  14 P :    0.408648
  15 S :   -0.121660
  16 O :   -0.705669
  17 C :   -0.060205
  18 O :   -0.668392
  19 C :   -0.042063
  20 H :    0.167679
  21 H :    0.165767
  22 H :    0.163606
  23 H :    0.193765
  24 H :    0.191318
  25 H :    0.197556
  26 H :    0.214645
  27 H :    0.192443
  28 H :    0.191551
  29 H :    0.165895
  30 H :    0.164570
  31 H :    0.169018
  32 H :    0.187390
  33 H :    0.174815
  34 H :    0.176680
  35 H :    0.180917
  36 H :    0.191542
  37 H :    0.179279

-------------------------------
LOEWDIN REDUCED ORBITAL CHARGES
-------------------------------
  0 C s       :     2.973411  s :     2.973411
      pz      :     1.127838  p :     3.359841
      px      :     1.118468
      py      :     1.113535
      dz2     :     0.002978  d :     0.059903
      dxz     :     0.019471
      dyz     :     0.015841
      dx2y2   :     0.003807
      dxy     :     0.017805

  1 C s       :     2.869643  s :     2.869643
      pz      :     1.041464  p :     2.974161
      px      :     1.020231
      py      :     0.912465
      dz2     :     0.009409  d :     0.117860
      dxz     :     0.026968
      dyz     :     0.031672
      dx2y2   :     0.017630
      dxy     :     0.032180

  2 O s       :     3.453813  s :     3.453813
      pz      :     1.444046  p :     4.634047
      px      :     1.610083
      py      :     1.579918
      dz2     :     0.104127  d :     0.504824
      dxz     :     0.112719
      dyz     :     0.123707
      dx2y2   :     0.076568
      dxy     :     0.087704

  3 C s       :     2.736205  s :     2.736205
      pz      :     0.885743  p :     2.629948
      px      :     0.784249
      py      :     0.959957
      dz2     :     0.089706  d :     0.275297
      dxz     :     0.046524
      dyz     :     0.066454
      dx2y2   :     0.031569
      dxy     :     0.041044

  4 O s       :     3.541922  s :     3.541922
      pz      :     1.612400  p :     4.707566
      px      :     1.546187
      py      :     1.548979
      dz2     :     0.048048  d :     0.217476
      dxz     :     0.028510
      dyz     :     0.059581
      dx2y2   :     0.040243
      dxy     :     0.041094

  5 C s       :     2.919180  s :     2.919180
      pz      :     1.080321  p :     3.198853
      px      :     1.053987
      py      :     1.064545
      dz2     :     0.017472  d :     0.072237
      dxz     :     0.018107
      dyz     :     0.007349
      dx2y2   :     0.007924
      dxy     :     0.021385

  6 C s       :     2.916022  s :     2.916022
      pz      :     1.039103  p :     3.182260
      px      :     1.066583
      py      :     1.076575
      dz2     :     0.020767  d :     0.090416
      dxz     :     0.020608
      dyz     :     0.012796
      dx2y2   :     0.011915
      dxy     :     0.024331

  7 H s       :     0.736133  s :     0.736133
      pz      :     0.010216  p :     0.047766
      px      :     0.015135
      py      :     0.022415

  8 C s       :     2.731246  s :     2.731246
      pz      :     1.000328  p :     2.650517
      px      :     0.813944
      py      :     0.836245
      dz2     :     0.078795  d :     0.280062
      dxz     :     0.052746
      dyz     :     0.055732
      dx2y2   :     0.042640
      dxy     :     0.050149

  9 O s       :     3.531177  s :     3.531177
      pz      :     1.570095  p :     4.661011
      px      :     1.538924
      py      :     1.551992
      dz2     :     0.085291  d :     0.305521
      dxz     :     0.059319
      dyz     :     0.067102
      dx2y2   :     0.038903
      dxy     :     0.054905

 10 O s       :     3.444904  s :     3.444904
      pz      :     1.571726  p :     4.635454
      px      :     1.542068
      py      :     1.521660
      dz2     :     0.104733  d :     0.486723
      dxz     :     0.105671
      dyz     :     0.103275
      dx2y2   :     0.072575
      dxy     :     0.100469

 11 C s       :     2.871825  s :     2.871825
      pz      :     0.887728  p :     2.968737
      px      :     1.031695
      py      :     1.049314
      dz2     :     0.026323  d :     0.117502
      dxz     :     0.036752
      dyz     :     0.018577
      dx2y2   :     0.018720
      dxy     :     0.017130

 12 C s       :     2.972198  s :     2.972198
      pz      :     1.142143  p :     3.359020
      px      :     1.088029
      py      :     1.128849
      dz2     :     0.008363  d :     0.059877
      dxz     :     0.017129
      dyz     :     0.008753
      dx2y2   :     0.011916
      dxy     :     0.013716

 13 S s       :     5.411516  s :     5.411516
      pz      :     3.419888  p :    10.083095
      px      :     3.295499
      py      :     3.367708
      dz2     :     0.048570  d :     0.289929
      dxz     :     0.068201
      dyz     :     0.047694
      dx2y2   :     0.050156
      dxy     :     0.075309

 14 P s       :     4.654611  s :     4.654611
      pz      :     2.761749  p :     8.371275
      px      :     2.723180
      py      :     2.886346
      dz2     :     0.306600  d :     1.565466
      dxz     :     0.280050
      dyz     :     0.346611
      dx2y2   :     0.313195
      dxy     :     0.319011

 15 S s       :     5.552820  s :     5.552820
      pz      :     3.622903  p :    10.433330
      px      :     3.618427
      py      :     3.192000
      dz2     :     0.021908  d :     0.135511
      dxz     :     0.004309
      dyz     :     0.022856
      dx2y2   :     0.062475
      dxy     :     0.023964

 16 O s       :     3.472086  s :     3.472086
      pz      :     1.546431  p :     4.756014
      px      :     1.510609
      py      :     1.698974
      dz2     :     0.110364  d :     0.477569
      dxz     :     0.119458
      dyz     :     0.066501
      dx2y2   :     0.099587
      dxy     :     0.081659

 17 C s       :     2.916871  s :     2.916871
      pz      :     0.913100  p :     3.038275
      px      :     1.027194
      py      :     1.097980
      dz2     :     0.032692  d :     0.105058
      dxz     :     0.024767
      dyz     :     0.015081
      dx2y2   :     0.020483
      dxy     :     0.012035

 18 O s       :     3.466452  s :     3.466452
      pz      :     1.595979  p :     4.735523
      px      :     1.735279
      py      :     1.404266
      dz2     :     0.088409  d :     0.466417
      dxz     :     0.045488
      dyz     :     0.140191
      dx2y2   :     0.096070
      dxy     :     0.096259

 19 C s       :     2.916641  s :     2.916641
      pz      :     1.124489  p :     3.023446
      px      :     1.123401
      py      :     0.775556
      dz2     :     0.018759  d :     0.101977
      dxz     :     0.010161
      dyz     :     0.018991
      dx2y2   :     0.028672
      dxy     :     0.025394

 20 H s       :     0.787676  s :     0.787676
      pz      :     0.013423  p :     0.044645
      px      :     0.012115
      py      :     0.019106

 21 H s       :     0.790167  s :     0.790167
      pz      :     0.016095  p :     0.044066
      px      :     0.013353
      py      :     0.014618

 22 H s       :     0.792250  s :     0.792250
      pz      :     0.016685  p :     0.044143
      px      :     0.016324
      py      :     0.011134

 23 H s       :     0.762749  s :     0.762749
      pz      :     0.020162  p :     0.043486
      px      :     0.011285
      py      :     0.012039

 24 H s       :     0.767753  s :     0.767753
      pz      :     0.015231  p :     0.040929
      px      :     0.016509
      py      :     0.009189

 25 H s       :     0.757838  s :     0.757838
      pz      :     0.026042  p :     0.044606
      px      :     0.010850
      py      :     0.007715

 26 H s       :     0.739148  s :     0.739148
      pz      :     0.007574  p :     0.046207
      px      :     0.016500
      py      :     0.022133

 27 H s       :     0.766897  s :     0.766897
      pz      :     0.006599  p :     0.040660
      px      :     0.009003
      py      :     0.025058

 28 H s       :     0.765950  s :     0.765950
      pz      :     0.016043  p :     0.042499
      px      :     0.018999
      py      :     0.007457

 29 H s       :     0.789526  s :     0.789526
      pz      :     0.009144  p :     0.044579
      px      :     0.010327
      py      :     0.025108

 30 H s       :     0.791440  s :     0.791440
      pz      :     0.018894  p :     0.043990
      px      :     0.016911
      py      :     0.008184

 31 H s       :     0.786325  s :     0.786325
      pz      :     0.021247  p :     0.044657
      px      :     0.011945
      py      :     0.011465

 32 H s       :     0.771655  s :     0.771655
      pz      :     0.005750  p :     0.040955
      px      :     0.023716
      py      :     0.011489

 33 H s       :     0.783147  s :     0.783147
      pz      :     0.020723  p :     0.042039
      px      :     0.011310
      py      :     0.010005

 34 H s       :     0.780597  s :     0.780597
      pz      :     0.005884  p :     0.042723
      px      :     0.007088
      py      :     0.029752

 35 H s       :     0.776938  s :     0.776938
      pz      :     0.008263  p :     0.042145
      px      :     0.026934
      py      :     0.006948

 36 H s       :     0.767331  s :     0.767331
      pz      :     0.025938  p :     0.041127
      px      :     0.010423
      py      :     0.004766

 37 H s       :     0.778107  s :     0.778107
      pz      :     0.018559  p :     0.042614
      px      :     0.016162
      py      :     0.007893


---------------------------------
LOEWDIN BOND ORDERS (THRESH 0.050000)
---------------------------------
B(  0-C ,  1-C ) :   1.0817 B(  0-C ,  2-O ) :   0.1580 B(  0-C , 20-H ) :   0.9138 
B(  0-C , 21-H ) :   0.9158 B(  0-C , 22-H ) :   0.9188 B(  1-C ,  2-O ) :   1.2880 
B(  1-C ,  3-C ) :   0.0832 B(  1-C ,  4-O ) :   0.0649 B(  1-C , 23-H ) :   0.8134 
B(  1-C , 24-H ) :   0.8263 B(  2-O ,  3-C ) :   1.4547 B(  2-O ,  4-O ) :   0.4516 
B(  2-O ,  5-C ) :   0.1713 B(  2-O ,  8-C ) :   0.0594 B(  2-O , 23-H ) :   0.0911 
B(  2-O , 24-H ) :   0.0966 B(  3-C ,  4-O ) :   2.1601 B(  3-C ,  5-C ) :   0.9071 
B(  3-C ,  6-C ) :   0.0689 B(  4-O ,  5-C ) :   0.1829 B(  5-C ,  6-C ) :   1.0314 
B(  5-C ,  8-C ) :   0.0647 B(  5-C , 13-S ) :   0.1129 B(  5-C , 25-H ) :   0.8561 
B(  5-C , 26-H ) :   0.8323 B(  6-C ,  7-H ) :   0.8019 B(  6-C ,  8-C ) :   0.8509 
B(  6-C ,  9-O ) :   0.1784 B(  6-C , 10-O ) :   0.1679 B(  6-C , 13-S ) :   1.2289 
B(  6-C , 14-P ) :   0.0807 B(  7-H , 13-S ) :   0.0555 B(  8-C ,  9-O ) :   2.0537 
B(  8-C , 10-O ) :   1.5042 B(  8-C , 11-C ) :   0.0859 B(  8-C , 13-S ) :   0.1144 
B(  8-C , 15-S ) :   0.0599 B(  9-O , 10-O ) :   0.4357 B(  9-O , 11-C ) :   0.0577 
B(  9-O , 13-S ) :   0.1182 B(  9-O , 14-P ) :   0.1334 B(  9-O , 15-S ) :   0.0849 
B(  9-O , 18-O ) :   0.1015 B( 10-O , 11-C ) :   1.2854 B( 10-O , 12-C ) :   0.1514 
B( 10-O , 27-H ) :   0.0978 B( 10-O , 28-H ) :   0.0915 B( 11-C , 12-C ) :   1.0854 
B( 11-C , 27-H ) :   0.8267 B( 11-C , 28-H ) :   0.8176 B( 11-C , 31-H ) :   0.0509 
B( 12-C , 29-H ) :   0.9141 B( 12-C , 30-H ) :   0.9203 B( 12-C , 31-H ) :   0.9118 
B( 13-S , 14-P ) :   1.1901 B( 13-S , 15-S ) :   0.1388 B( 13-S , 16-O ) :   0.1635 
B( 13-S , 18-O ) :   0.1278 B( 14-P , 15-S ) :   1.9851 B( 14-P , 16-O ) :   1.5118 
B( 14-P , 17-C ) :   0.0976 B( 14-P , 18-O ) :   1.5670 B( 14-P , 19-C ) :   0.0990 
B( 15-S , 16-O ) :   0.1854 B( 15-S , 18-O ) :   0.1521 B( 16-O , 17-C ) :   1.3588 
B( 16-O , 18-O ) :   0.2390 B( 16-O , 32-H ) :   0.1028 B( 16-O , 33-H ) :   0.1039 
B( 16-O , 34-H ) :   0.1033 B( 17-C , 32-H ) :   0.8571 B( 17-C , 33-H ) :   0.8618 
B( 17-C , 34-H ) :   0.8575 B( 18-O , 19-C ) :   1.3296 B( 18-O , 35-H ) :   0.0999 
B( 18-O , 36-H ) :   0.1031 B( 18-O , 37-H ) :   0.1010 B( 19-C , 35-H ) :   0.8614 
B( 19-C , 36-H ) :   0.8557 B( 19-C , 37-H ) :   0.8567 

------------------------------------------
LOEWDIN REDUCED ORBITAL POPULATIONS PER MO
-------------------------------------------
THRESHOLD FOR PRINTING IS 0.1%%
                      0         1         2         3         4         5   
                 -88.57917 -88.52553 -76.92063 -19.01321 -19.00973 -18.99556
                   2.00000   2.00000   2.00000   2.00000   2.00000   2.00000
                  --------  --------  --------  --------  --------  --------
 2 O  s               0.0       0.0       0.0       0.0      99.9       0.0
10 O  s               0.0       0.0       0.0      99.9       0.0       0.0
13 S  s             100.0       0.0       0.0       0.0       0.0       0.0
14 P  s               0.0       0.0     100.0       0.0       0.0       0.0
15 S  s               0.0     100.0       0.0       0.0       0.0       0.0
18 O  s               0.0       0.0       0.0       0.0       0.0      99.9

                      6         7         8         9        10        11   
                 -18.98932 -18.95167 -18.94865 -10.17511 -10.17315 -10.10001
                   2.00000   2.00000   2.00000   2.00000   2.00000   2.00000
                  --------  --------  --------  --------  --------  --------
 2 O  pz              0.0       0.0       0.0       0.0       0.1       0.0
 2 O  dz2             0.0       0.0       0.0       0.0       0.2       0.0
 2 O  dxz             0.0       0.0       0.0       0.0       0.1       0.0
 3 C  s               0.0       0.0       0.0       0.0      98.9       0.0
 4 O  s               0.0      99.9       0.0       0.0       0.0       0.0
 4 O  py              0.0       0.0       0.0       0.0       0.1       0.0
 4 O  dyz             0.0       0.0       0.0       0.0       0.2       0.0
[...]
34 H  py              0.4       0.0       0.0       0.0       0.0       0.0

                    492       493       494       495       496       497   
                  18.95862  19.33011  21.99626  22.01194  22.02525  22.03303
                   0.00000   0.00000   0.00000   0.00000   0.00000   0.00000
                  --------  --------  --------  --------  --------  --------
 0 C  s               0.0       0.0       9.7      12.5      56.2       0.9
 1 C  s               0.0       0.0       3.0       1.1       1.9       1.2
 3 C  s               0.0       0.1       0.1       0.0       0.7       0.0
 5 C  s               0.0       0.0       0.0       0.3       1.9       2.1
 6 C  s               0.0       0.9       0.2       0.1       2.4       0.5
 8 C  s               0.1       0.0       0.0       0.0       0.3       0.1
11 C  s               0.0       0.0       0.6       1.2      14.9       2.7
12 C  s               0.0       0.0      84.7       3.3       4.4       0.2
13 S  s               0.2      98.0       0.0       0.0       0.0       0.0
14 P  s               0.1       0.1       0.0       0.0       0.0       0.0
14 P  py              0.2       0.0       0.0       0.0       0.0       0.0
15 S  s              98.8       0.1       0.0       0.0       0.0       0.0
15 S  py              0.2       0.0       0.0       0.0       0.0       0.0
17 C  s               0.0       0.0       0.3       2.3       6.3      88.1
19 C  s               0.1       0.0       1.1      78.8      10.6       3.7

                    498       499       500       501       502       503   
                  22.07625  22.11939  22.15849  22.23646  22.33393  22.49730
                   0.00000   0.00000   0.00000   0.00000   0.00000   0.00000
                  --------  --------  --------  --------  --------  --------
 0 C  s              18.1       0.9       1.2       0.0       0.0       0.2
 1 C  s               9.3      47.9      31.5       2.5       0.2       1.0
 3 C  s               0.6       0.8       2.7      10.1      82.3       1.7
 4 O  s               0.0       0.0       0.0       0.0       0.2       0.0
 5 C  s               0.8      36.2      43.2      14.7       0.2       0.0
 6 C  s               2.8       0.0      16.1      62.6      13.9       0.6
 8 C  s               0.1       0.5       0.4       0.2       2.4      94.9
 9 O  s               0.0       0.0       0.0       0.0       0.0       0.1
 9 O  pz              0.0       0.0       0.0       0.0       0.0       0.1
10 O  s               0.0       0.0       0.0       0.0       0.0       0.1
11 C  s              62.8       7.8       0.6       8.8       0.0       0.2
12 C  s               2.0       1.7       3.2       0.0       0.0       0.3
13 S  s               0.0       0.0       0.1       0.3       0.0       0.0
17 C  s               1.2       0.6       0.5       0.1       0.0       0.2
19 C  s               2.0       3.2       0.2       0.0       0.0       0.0

                    504       505       506       507       508       509   
                  43.72344  43.78611  43.86621  43.90823  43.93174  44.06576
                   0.00000   0.00000   0.00000   0.00000   0.00000   0.00000
                  --------  --------  --------  --------  --------  --------
 2 O  s              11.5      11.5       7.4      15.5      26.2      27.8
 4 O  s              79.5       2.2       0.6       6.0       9.2       2.3
 8 C  s               0.0       0.0       0.0       0.0       0.0       0.2
 9 O  s               0.3       5.3       5.2      32.6       5.3      51.1
10 O  s               0.0       0.0      46.8      18.7      16.0      18.3
16 O  s               8.5      79.4       0.2       3.4       8.4       0.0
18 O  s               0.0       1.5      39.7      23.8      34.8       0.2



                      *****************************
                      * MAYER POPULATION ANALYSIS *
                      *****************************

  NA   - Mulliken gross atomic population
  ZA   - Total nuclear charge
  QA   - Mulliken gross atomic charge
  VA   - Mayer's total valence
  BVA  - Mayer's bonded valence
  FA   - Mayer's free valence

  ATOM       NA         ZA         QA         VA         BVA        FA
  0 C      6.5073     6.0000    -0.5073     3.7868     3.7868    -0.0000
  1 C      6.1428     6.0000    -0.1428     3.5770     3.5770    -0.0000
  2 O      8.1094     8.0000    -0.1094     1.8799     1.8799     0.0000
  3 C      5.6626     6.0000     0.3374     3.8410     3.8410    -0.0000
  4 O      8.4646     8.0000    -0.4646     1.9149     1.9149    -0.0000
  5 C      6.4561     6.0000    -0.4561     3.8003     3.8003     0.0000
  6 C      5.9839     6.0000     0.0161     3.5653     3.5653    -0.0000
  7 H      0.7353     1.0000     0.2647     0.9133     0.9133    -0.0000
  8 C      5.7180     6.0000     0.2820     3.9027     3.9027     0.0000
  9 O      8.4485     8.0000    -0.4485     1.9163     1.9163    -0.0000
 10 O      8.1560     8.0000    -0.1560     1.9838     1.9838    -0.0000
 11 C      6.1207     6.0000    -0.1207     3.6001     3.6001    -0.0000
 12 C      6.5280     6.0000    -0.5280     3.8049     3.8049     0.0000
 13 S     16.2068    16.0000    -0.2068     2.1670     2.1670    -0.0000
 14 P     14.2017    15.0000     0.7983     5.1204     5.1204     0.0000
 15 S     16.5043    16.0000    -0.5043     2.0028     2.0028    -0.0000
 16 O      8.3945     8.0000    -0.3945     1.8082     1.8082    -0.0000
 17 C      6.3086     6.0000    -0.3086     3.7496     3.7496     0.0000
 18 O      8.3452     8.0000    -0.3452     1.8933     1.8933    -0.0000
 19 C      6.2969     6.0000    -0.2969     3.7071     3.7071     0.0000
 20 H      0.8260     1.0000     0.1740     0.9570     0.9570     0.0000
 21 H      0.8274     1.0000     0.1726     0.9567     0.9567    -0.0000
 22 H      0.8267     1.0000     0.1733     0.9547     0.9547     0.0000
 23 H      0.8217     1.0000     0.1783     0.9541     0.9541    -0.0000
 24 H      0.8182     1.0000     0.1818     0.9471     0.9471    -0.0000
 25 H      0.7803     1.0000     0.2197     0.9387     0.9387     0.0000
 26 H      0.7634     1.0000     0.2366     0.9309     0.9309     0.0000
 27 H      0.8208     1.0000     0.1792     0.9451     0.9451     0.0000
 28 H      0.8227     1.0000     0.1773     0.9543     0.9543     0.0000
 29 H      0.8202     1.0000     0.1798     0.9523     0.9523    -0.0000
 30 H      0.8281     1.0000     0.1719     0.9544     0.9544    -0.0000
 31 H      0.8251     1.0000     0.1749     0.9566     0.9566     0.0000
 32 H      0.8226     1.0000     0.1774     0.9498     0.9498     0.0000
 33 H      0.8271     1.0000     0.1729     0.9506     0.9506    -0.0000
 34 H      0.8239     1.0000     0.1761     0.9535     0.9535     0.0000
 35 H      0.8170     1.0000     0.1830     0.9475     0.9475    -0.0000
 36 H      0.8163     1.0000     0.1837     0.9479     0.9479     0.0000
 37 H      0.8214     1.0000     0.1786     0.9526     0.9526     0.0000

  Mayer bond orders larger than 0.100000
B(  0-C ,  1-C ) :   0.9056 B(  0-C , 20-H ) :   0.9603 B(  0-C , 21-H ) :   0.9693 
B(  0-C , 22-H ) :   0.9673 B(  1-C ,  2-O ) :   0.7606 B(  1-C , 23-H ) :   0.9564 
B(  1-C , 24-H ) :   0.9551 B(  2-O ,  3-C ) :   1.0615 B(  2-O ,  8-C ) :   0.1070 
B(  3-C ,  4-O ) :   1.8320 B(  3-C ,  5-C ) :   0.9356 B(  5-C ,  6-C ) :   0.8293 
B(  5-C , 25-H ) :   0.9845 B(  5-C , 26-H ) :   0.9421 B(  6-C ,  7-H ) :   0.8898 
B(  6-C ,  8-C ) :   0.9093 B(  6-C , 13-S ) :   0.8937 B(  8-C ,  9-O ) :   1.7208 
B(  8-C , 10-O ) :   1.1562 B(  9-O , 14-P ) :   0.1040 B( 10-O , 11-C ) :   0.7864 
B( 11-C , 12-C ) :   0.9139 B( 11-C , 27-H ) :   0.9498 B( 11-C , 28-H ) :   0.9692 
B( 12-C , 29-H ) :   0.9684 B( 12-C , 30-H ) :   0.9653 B( 12-C , 31-H ) :   0.9571 
B( 13-S , 14-P ) :   0.9911 B( 14-P , 15-S ) :   1.7734 B( 14-P , 16-O ) :   0.9976 
B( 14-P , 18-O ) :   1.1807 B( 16-O , 17-C ) :   0.8307 B( 17-C , 32-H ) :   0.9587 
B( 17-C , 33-H ) :   0.9502 B( 17-C , 34-H ) :   0.9548 B( 18-O , 19-C ) :   0.7867 
B( 19-C , 35-H ) :   0.9530 B( 19-C , 36-H ) :   0.9542 B( 19-C , 37-H ) :   0.9483 


-------
TIMINGS
-------

Total SCF time: 0 days 0 hours 1 min 45 sec 

Total time                  ....     105.509 sec
Sum of individual times     ....     105.475 sec  (100.0%)

SCF preparation             ....       0.461 sec  (  0.4%)
Fock matrix formation       ....     103.574 sec  ( 98.2%)
  Startup                   ....       0.019 sec  (  0.0% of F)
  Split-RI-J                ....      25.323 sec  ( 24.4% of F)
  XC integration            ....      47.547 sec  ( 45.9% of F)
    Basis function eval.    ....       7.183 sec  ( 15.1% of XC)
    Density eval.           ....      19.269 sec  ( 40.5% of XC)
    XC-Functional eval.     ....       2.990 sec  (  6.3% of XC)
    XC-Potential eval.      ....      17.377 sec  ( 36.5% of XC)
  CPCM terms                ....      30.487 sec  ( 29.4% of F)
Diagonalization             ....       0.000 sec  (  0.0%)
Density matrix formation    ....       0.103 sec  (  0.1%)
Total Energy calculation    ....       0.017 sec  (  0.0%)
Population analysis         ....       0.301 sec  (  0.3%)
Orbital Transformation      ....       0.129 sec  (  0.1%)
Orbital Orthonormalization  ....       0.000 sec  (  0.0%)
DIIS solution               ....       0.782 sec  (  0.7%)
  MO trafo                  ....       0.000 sec  (  0.0 % of DIIS)
  Orb grad                  ....       0.000 sec  (  0.0 % of DIIS)
  Energy W gradient         ....       0.000 sec  (  0.0 % of DIIS)
  DIIS error                ....       0.125 sec  ( 16.0 % of DIIS)
  DIIS work                 ....       0.587 sec  ( 75.1 % of DIIS)
  Form Q                    ....       0.000 sec  (  0.0 % of DIIS)
  Form QpQm                 ....       0.000 sec  (  0.0 % of DIIS)
  Exp/Cayley                ....       0.000 sec  (  0.0 % of DIIS)
  Orb update                ....       0.000 sec  (  0.0 % of DIIS)
  Wake-sleep                ....       0.004 sec  (  0.6 % of DIIS)
SOSCF solution              ....       0.108 sec  (  0.1%)
  MO trafo                  ....       0.082 sec  ( 75.7 % of SOSCF)
  Orb grad                  ....       0.000 sec  (  0.3 % of SOSCF)
  Rot update                ....       0.000 sec  (  0.1 % of SOSCF)
  Step                      ....       0.026 sec  ( 23.8 % of SOSCF)
Finished LeanSCF after 105.6 sec

Maximum memory used throughout the entire LEANSCF-calculation: 114.9 MB


-------------------------------------------------------------------------------
                          DFT DISPERSION CORRECTION                            
                                                                               
                                DFTD4 V3.4.0                                   
-------------------------------------------------------------------------------
The R2SCAN3C composite method is recognized
Using three-body term ABC
Active option DFTDOPT                   ...         5   

-------------------------   ----------------
Dispersion correction           -0.018497327
-------------------------   ----------------

------------------   -----------------
gCP correction             0.037691899
------------------   -----------------

-------------------------   --------------------
FINAL SINGLE POINT ENERGY     -1981.465832368697
-------------------------   --------------------


------------------------------------------------------------------------------
                              ORCA PROPERTY CALCULATIONS
------------------------------------------------------------------------------

GBWName                                 ... sp_solv.gbw
Number of atoms                         ...     38
Number of basis functions               ...    510
Max core memory                         ...   1024 MB

Electric properties:
Dipole moment                           ... YES
Quadrupole moment                       ...  NO
Static polarizability (Dipole/Dipole)   ...  NO
Static polarizability (Dipole/Quad.)    ...  NO
Static polarizability (Quad./Quad.)     ...  NO
Static polarizability (Velocity)        ...  NO

Atomic electric properties:
Dipole moment                           ...  NO
Quadrupole moment                       ...  NO
Static polarizability                   ...  NO

Choice of electric origin               ... Center of mass
Position of electric origin             ...     0.000000    -0.000001     0.000004

General magnetic properties:
Magnetizability                         ...  NO

EPR properties:
g-Tensor (aka g-matrix)                 ...  NO
Zero-Field splitting spin-orbit         ...  NO
Zero-field splitting spin-spin          ...  NO
Hyperfine couplings                     ...  NO (   0 nuclei)
Quadrupole couplings                    ...  NO (   0 nuclei)
Contact density                         ...  NO (   0 nuclei)

NMR properties:
Chemical shifts                         ...  NO (   0 nuclei)
Spin-rotation constants                 ...  NO (   0 nuclei)
Spin-spin couplings                     ...  NO (   0 nuclei,    0 pairs)

Choice of magnetic origin               ... GIAO
Position of magnetic origin             ...     0.000000     0.000000     0.000000

Properties with geometric perturbations:
SCF Hessian                             ...  NO
IR spectrum                             ...  NO
VCD spectrum                            ...  NO
X-ray spectroscopy properties:
SCF XES/XAS/RIXS spectra                ...  NO


-------------
DIPOLE MOMENT
-------------

Method             : SCF
Type of density    : Electron Density
Multiplicity       :   1
Irrep              :   0
Energy             : -1981.4850269406367715 Eh
Relativity type    : 
Basis              : AO
                                X                 Y                 Z
Electronic contribution:    -12.810173662       6.056389482      -5.070953828
Nuclear contribution   :     14.100385093      -6.366210364       4.972155295
                        -----------------------------------------
Total Dipole Moment    :      1.290211431      -0.309820882      -0.098798533
                        -----------------------------------------
Magnitude (a.u.)       :      1.330562162
Magnitude (Debye)      :      3.382020242



--------------------
Rotational spectrum 
--------------------
 
Rotational constants in cm-1:             0.013759             0.007755             0.006828 
Rotational constants in MHz :           412.481505           232.479878           204.698188 

Dipole components along the rotational axes: 
x,y,z [a.u.] :    -1.305631    -0.175589     0.186791 
x,y,z [Debye]:    -3.318651    -0.446311     0.474785 

 

Dipole moment calculation done in   0.0 sec 

Maximum memory used throughout the entire PROP-calculation: 53.0 MB

--------------------------------
SUGGESTED CITATIONS FOR THIS RUN
--------------------------------

Below you find a list of papers that are relevant to this ORCA run
We neither can nor want to force you to cite these papers, but we appreciate if you do
You receive ORCA, which is the product of decades of hard work by many enthusiastic individuals, for free
The only thing we kindly ask in return is that you cite our papers,
We deeply appreciate it, if you show your appreciation for ORCA by not just citing the generic ORCA reference.

Please note that relegating all ORCA citations to the supporting information does *not* help us.
SI sections are not indexed - citations you put there will not count into any citation statistics
But we need these citations in order to attract the funding resources that allow us to do what we are doing

Therefore, if you are a happy ORCA user, please consider citing a few of the papers listed below in the main body of your paper

In addition to the list printed below, the program has created the file sp_solv.bibtex that contains the list in bibtex format
You can import this file easily into all common literature databanks and citation aid programs


List of essential papers. We consider these as the minimum necessary citations

  1. Neese,F.
     Software update: the ORCA program system, version 5.0
     WIRES Comput. Molec. Sci., 2022 12(1)e1606
     doi.org/10.1002/wcms.1606
  2. Grimme,S.; Hansen,A.; Ehlert,S.; Mewes,J.
     r2SCAN-3c: A 'Swiss army knife' composite electronic-structure method
     J. Chem. Phys., 2021 154 064103
     doi.org/10.1063/5.0040021

List of papers to cite with high priority. The work reported in these papers was absolutely
necessary for this run to complete.
Our perspective: the developers of density functionals and basis sets usually get cited in chemistry papers
Good! But without the algorithms to do something with them, the functionals or basis sets would not do anything.
Hence, in our opinion, the algorithm design and method developments papers are equally worthy of getting cited

  1. Neese,F.
     An improvement of the resolution of the identity approximation for the formation of the Coulomb matrix
     J. Comp. Chem., 2003 24(14)1740-1747
     doi.org/10.1002/jcc.10318
  2. Garcia-Rates,M.; Neese,F.
     Effect of the Solute Cavity on the Solvation Energy and its Derivatives within the Framework of the Gaussian Charge Scheme
     J. Comput. Chem., 2020 41 922-939
     doi.org/10.1002/jcc.26139
  3. Neese,F.
     The SHARK Integral Generation and Digestion System
     J. Comp. Chem., 2022  1-16
     doi.org/10.1002/jcc.26942
  4. Lehtola,S.; Steigemann,C.; Oliveira,M.; Marques,M.
     Recent developments in Libxc - A comprehensive library of functionals for density functional theory
     Software X, 2018 7 
     doi.org/10.1016/j.softx.2017.11.002
  5. Caldeweyher,E.; Bannwarth,C.; Grimme,S.
     Extension of the D3 dispersion coefficient model
     J. Chem. Phys., 2017 147 034112
     doi.org/10.1063/1.4993215
  6. Caldeweyher,E.; Ehlert,S.; Hansen,A.; Neugebauer,H.; Spicher,S.; Bannwarth,C.; Grimme,S.
     A generally applicable atomic-charge dependent London dispersion correction
     J. Chem. Phys., 2019 150 154122
     doi.org/10.1063/1.5090222
  7. Caldeweyher,E.; Mewes,J.; Ehlert,S.; Grimme,S.
     Extension and evaluation of the D4 London-dispersion model for periodic systems
     Phys. Chem. Chem. Phys., 2020 22(16)8499-8512
     doi.org/10.1039/D0CP00502A
  8. Wittmann,L.; Gordiy,I.; Friede,M.; Helmich-Paris,B.; Grimme,S.; Hansen,A.; Bursch,M.
     Extension of the D3 and D4 London Dispersion Corrections to the full Actinides Series
     Phys. Chem. Chem. Phys., 2024 26(32)21379-21394
     doi.org/https://doi.org/10.1039/D4CP01514B 

List of suggested additional citations. These are papers that are important in the 'surrounding' of 
of this run, or papers that preceded the highly important papers. If you like your results we are grateful for a citation.

  1. Neese,F.
     The ORCA program system
     WIRES Comput. Molec. Sci., 2012 2(1)73-78
     doi.org/10.1002/wcms.81
  2. Neese,F.
     Software update: the ORCA program system, version 4.0
     WIRES Comput. Molec. Sci., 2018 8(1)1-6
     doi.org/10.1002/wcms.1327
  3. Neese,F.; Wennmohs,F.; Becker,U.; Riplinger,C.
     The ORCA quantum chemistry program package
     J. Chem. Phys., 2020 152 Art. No. L224108
     doi.org/10.1063/5.0004608

List of optional additional citations

  1. Neese,F.
     Approximate second-order SCF convergence for spin unrestricted wavefunctions
     Chem. Phys. Lett., 2000 325(1-3)93-98
     doi.org/10.1016/s0009-2614(00)00662-x

Timings for individual modules:

Sum of individual times          ...      108.724 sec (=   1.812 min)
Startup calculation              ...        2.712 sec (=   0.045 min)   2.5 %
SCF iterations                   ...      105.901 sec (=   1.765 min)  97.4 %
Property calculations            ...        0.111 sec (=   0.002 min)   0.1 %
                             ****ORCA TERMINATED NORMALLY****
TOTAL RUN TIME: 0 days 0 hours 1 minutes 49 seconds 29 msec
