
                                 *****************
                                 * O   R   C   A *
                                 *****************

                                            #,                                       
                                            ###                                      
                                            ####                                     
                                            #####                                    
                                            ######                                   
                                           ########,                                 
                                     ,,################,,,,,                         
                               ,,#################################,,                 
                          ,,##########################################,,             
                       ,#########################################, ''#####,          
                    ,#############################################,,   '####,        
                  ,##################################################,,,,####,       
                ,###########''''           ''''###############################       
              ,#####''   ,,,,##########,,,,          '''####'''          '####       
            ,##' ,,,,###########################,,,                        '##       
           ' ,,###''''                  '''############,,,                           
         ,,##''                                '''############,,,,        ,,,,,,###''
      ,#''                                            '''#######################'''  
     '                                                          ''''####''''         
             ,#######,   #######,   ,#######,      ##                                
            ,#'     '#,  ##    ##  ,#'     '#,    #''#        ,####,   ,####,        
            ##       ##  ##   ,#'  ##            #'  '#       #'       #'  '#        
            ##       ##  #######   ##           ,######,      #####,   #    #        
            '#,     ,#'  ##    ##  '#,     ,#' ,#      #,     #,   #   #,  ,#        
             '#######'   ##     ##  '#######'  #'      '#     '####' # '####'        



                #########################################################
                #                        -***-                          #
                #          Department of theory and spectroscopy        #
                #                                                       #
                #                      Frank Neese                      #
                #                                                       #
                #     Directorship, Architecture, Infrastructure        #
                #                    SHARK, DRIVERS                     #
                #        Core code/Algorithms in most modules           #
                #                                                       #
                #        Max Planck Institute fuer Kohlenforschung      #
                #                Kaiser Wilhelm Platz 1                 #
                #                 D-45470 Muelheim/Ruhr                 #
                #                      Germany                          #
                #                                                       #
                #                  All rights reserved                  #
                #                        -***-                          #
                #########################################################


                         Program Version 6.0.0  -   RELEASE  -


 With contributions from (in alphabetic order):
   Daniel Aravena         : Magnetic Suceptibility
   Michael Atanasov       : Ab Initio Ligand Field Theory (pilot matlab implementation)
   Alexander A. Auer      : GIAO ZORA, VPT2 properties, NMR spectrum
   Ute Becker             : All parallelization in ORCA, NUMFREQ, NUMCALC
   Giovanni Bistoni       : ED, misc. LED, open-shell LED, HFLD
   Martin Brehm           : Molecular dynamics
   Dmytro Bykov           : pre 5.0 version of the SCF Hessian
   Marcos Casanova-Páez   : Triplet and SCS-CIS(D). UHF-(DLPNO)-IP/EA/STEOM-CCSD. UHF-CVS-IP/STEOM-CCSD
   Vijay G. Chilkuri      : MRCI spin determinant printing, contributions to CSF-ICE
   Pauline Colinet        : FMM embedding
   Dipayan Datta          : RHF DLPNO-CCSD density
   Achintya Kumar Dutta   : EOM-CC, STEOM-CC
   Nicolas Foglia         : Exact transition moments, OPA infrastructure, MCD improvements
   Dmitry Ganyushin       : Spin-Orbit,Spin-Spin,Magnetic field MRCI
   Miquel Garcia          : C-PCM and meta-GGA Hessian, CCSD/C-PCM, Gaussian charge scheme
   Tiago L. C. Gouveia    : GS-ROHF, GS-ROCIS
   Yang Guo               : DLPNO-NEVPT2, F12-NEVPT2, CIM, IAO-localization
   Andreas Hansen         : Spin unrestricted coupled pair/coupled cluster methods
   Ingolf Harden          : AUTO-CI MPn and infrastructure 
   Benjamin Helmich-Paris : MC-RPA, TRAH-(SCF,CASSCF), AVAS, COSX integrals, SCF dyn. polar.
   Lee Huntington         : MR-EOM, pCC
   Robert Izsak           : Overlap fitted RIJCOSX, COSX-SCS-MP3, EOM
   Riya Kayal             : Wick's Theorem for AUTO-CI, AUTO-CI UHF-CCSDT
   Emily Kempfer          : AUTO-CI, RHF CISDT and CCSDT
   Christian Kollmar      : KDIIS, OOCD, Brueckner-CCSD(T), CCSD density, CASPT2, CASPT2-K, improved NEVPT2
   Axel Koslowski         : Symmetry handling
   Simone Kossmann        : Meta GGA functionals, TD-DFT gradient, OOMP2, (MP2 Hessian; deprecated post 5.0)
   Lucas Lang             : DCDCAS
   Marvin Lechner         : AUTO-CI (C++ implementation), FIC-MRCC
   Spencer Leger          : CASSCF response
   Dagmar Lenk            : GEPOL surface, SMD, ORCA-2-JSON
   Dimitrios Liakos       : Extrapolation schemes; Compound Job, initial MDCI parallelization
   Dimitrios Manganas     : Further ROCIS development; embedding schemes. LFT, Crystal Embedding
   Dimitrios Pantazis     : SARC Basis sets
   Anastasios Papadopoulos: AUTO-CI, single reference methods and gradients
   Taras Petrenko         : pre 6.0 DFT Hessian and TD-DFT gradient, (ASA, deprecated), ECA, 1-Electron XAS/XES, NRVS
   Peter Pinski           : DLPNO-MP2, DLPNO-MP2 Gradient
   Christoph Reimann      : Effective Core Potentials
   Marius Retegan         : Local ZFS, SOC
   Christoph Riplinger    : Optimizer, TS searches, QM/MM, DLPNO-CCSD(T), (RO)-DLPNO pert. Triples
   Michael Roemelt        : Original ROCIS implementation
   Masaaki Saitow         : Open-shell DLPNO-CCSD energy and density
   Barbara Sandhoefer     : DKH picture change effects
   Kantharuban Sivalingam : CASSCF convergence/infrastructure, NEVPT2 and variants, FIC-MRCI
   Bernardo de Souza      : ESD, SOC TD-DFT
   Georgi Stoychev        : AutoAux, RI-MP2 NMR, DLPNO-MP2 response, X2C
   Van Anh Tran           : RI-MP2 g-tensors
   Willem Van den Heuvel  : Paramagnetic NMR
   Zikuan Wang            : NOTCH, Electric field optimization 
   Frank Wennmohs         : Technical directorship and infrastructure
   Hang Xu                : AUTO-CI-Response properties 


 We gratefully acknowledge several colleagues who have allowed us to
 interface, adapt or use parts of their codes:
   Stefan Grimme, W. Hujo, H. Kruse, P. Pracht,  : VdW corrections, initial TS optimization,
                  C. Bannwarth, S. Ehlert,         DFT functionals, gCP, sTDA/sTD-DF
                  L. Wittmann, M. Mueller
   Ed Valeev, F. Pavosevic, A. Kumar             : LibInt (2-el integral package), F12 methods
   Garnet Chan, S. Sharma, J. Yang, R. Olivares  : DMRG
   Ulf Ekstrom                                   : XCFun DFT Library
   Mihaly Kallay                                 : mrcc  (arbitrary order and MRCC methods)
   Frank Weinhold                                : gennbo (NPA and NBO analysis)
   Simon Mueller                                 : openCOSMO-RS
   Christopher J. Cramer and Donald G. Truhlar   : smd solvation model
   Lars Goerigk                                  : TD-DFT with DH, B97 family of functionals
   V. Asgeirsson, H. Jonsson                     : NEB implementation
   FAccTs GmbH                                   : IRC, NEB, NEB-TS, DLPNO-Multilevel, CI-OPT
                                                   MM, QMMM, 2- and 3-layer-ONIOM, Crystal-QMMM,
                                                   LR-CPCM, SF, NACMEs, symmetry and pop. for TD-DFT,
                                                   nearIR, NL-DFT gradient (VV10), updates on ESD,
                                                   ML-optimized integration grids, MBIS, APM,
                                                   GOAT, DOCKER, SOLVATOR, interface openCOSMO-RS
   S Lehtola, MJT Oliveira, MAL Marques          : LibXC Library
   Liviu Ungur et al                             : ANISO software


 Your calculation uses the libint2 library for the computation of 2-el integrals
 For citations please refer to: http://libint.valeyev.net

 Your ORCA version has been built with support for libXC version: 6.2.2
 For citations please refer to: https://libxc.gitlab.io

 This ORCA versions uses:
   CBLAS   interface :  Fast vector & matrix operations
   LAPACKE interface :  Fast linear algebra routines
   SCALAPACK package :  Parallel linear algebra routines
   Shared memory     :  Shared parallel matrices
   BLAS/LAPACK       :  OpenBLAS 0.3.27  USE64BITINT DYNAMIC_ARCH NO_AFFINITY SkylakeX SINGLE_THREADED
        Core in use  :  SkylakeX
   Copyright (c) 2011-2014, The OpenBLAS Project


Your calculation utilizes the geometrical counterpoise correction gCP
Please cite in your paper:
H.Kruse, S. Grimme J.Chem.Phys., 136, (2012), 154101 
   

Your calculation utilizes the DFT-NL dispersion correction.
Cite in your paper:
Vydrov, O. A.; Van Voorhis, T. J. Chem. Phys. 2010, 133, 244103
Hujo, W.; Grimme, S. J. Chem. Theory Comput. 2011, 7, 3866 
   

Your calculation utilizes the SMD solvation module
Please cite in your paper:
A.V. Marenich, C.J. Cramer, D.G. Truhlar J. Phys. Chem. B, 113, (2009), 6378 

================================================================================

----- Orbital basis set information -----
Your calculation utilizes the basis: def2-TZVP
   F. Weigend and R. Ahlrichs, Phys. Chem. Chem. Phys. 7, 3297 (2005).

----- AuxJ basis set information -----
Your calculation utilizes the auxiliary basis: def2/J
   F. Weigend, Phys. Chem. Chem. Phys. 8, 1057 (2006).

================================================================================
                                        WARNINGS
                       Please study these warnings very carefully!
================================================================================


================================================================================
                                       INPUT FILE
================================================================================
NAME = sp_solv.inp
|  1> ! wb97x-v def2-tzvp def2/J RIJCOSX DEFGRID2 scfconv7 GCP(DFT/TZ) printgap
|  2> %output
|  3>     printlevel normal
|  4> end
|  5> %cpcm
|  6>     smd true
|  7>     smdsolvent "water"
|  8> end
|  9> * xyz 0 1
| 10> C 3.05173212980399 -1.6611199513346637 -0.47353789871764146
| 11> C 1.707096104714726 -1.0943722831768945 -0.19243295894264506
| 12> C 1.4627125110258288 0.06060657648438479 0.48008350741203526
| 13> C 0.12154983352375523 0.5167238973628675 0.7693407972123867
| 14> O -0.12264173519047959 1.4336484955971835 1.5512139454362524
| 15> N -0.9084673050516715 -0.16731128699272768 0.07276865063906256
| 16> C -0.7009977809135456 -1.4680966973619969 -0.3764941386250139
| 17> O -1.5864027147490276 -2.291698926626643 -0.5909490527184551
| 18> N 0.6201301305923613 -1.8160878059593604 -0.593504457577183
| 19> C -2.3146358549143806 0.43861103079634967 0.002770387919573075
| 20> C -2.2141783330972933 1.9674587424301773 -0.14455381231818934
| 21> C -3.040948343461388 -0.05977028394796388 -1.2592907992544058
| 22> C -3.0907066513823676 0.056732119455069945 1.2604538223684125
| 23> Cl 2.77928004195711 0.995751992311572 1.1313295186243855
| 24> H 2.982538835245705 -2.520615933371975 -1.1415579434552996
| 25> H 3.525681610547869 -1.9787403060635558 0.46077642368425403
| 26> H 3.6953996292302103 -0.9040900643726361 -0.9272305354632211
| 27> H 0.7616301972130614 -2.7480430324321032 -0.963774884853146
| 28> H -3.1978490938537534 2.3287157267618386 -0.45363461967544283
| 29> H -1.9448103406001125 2.47357379708967 0.7785903087827498
| 30> H -1.4959844855647355 2.242409629664104 -0.9238927104301242
| 31> H -3.906550292280439 0.5889798991611064 -1.4112282042058608
| 32> H -3.3976474244019204 -1.0826232705358532 -1.1737695183288506
| 33> H -2.4005930597327114 0.02293940125944848 -2.143384976987884
| 34> H -3.190641597622404 -1.0294065044932788 1.341995562416023
| 35> H -2.5973140151863787 0.43693373599361096 2.1591095658994917
| 36> H -4.093317091958728 0.49248735788461695 1.2070928533116982
| 37> *
| 38> 
| 39>                          ****END OF INPUT****
================================================================================

                       ****************************
                       * Single Point Calculation *
                       ****************************

---------------------------------
CARTESIAN COORDINATES (ANGSTROEM)
---------------------------------
  C      3.051732   -1.661120   -0.473538
  C      1.707096   -1.094372   -0.192433
  C      1.462713    0.060607    0.480084
  C      0.121550    0.516724    0.769341
  O     -0.122642    1.433648    1.551214
  N     -0.908467   -0.167311    0.072769
  C     -0.700998   -1.468097   -0.376494
  O     -1.586403   -2.291699   -0.590949
  N      0.620130   -1.816088   -0.593504
  C     -2.314636    0.438611    0.002770
  C     -2.214178    1.967459   -0.144554
  C     -3.040948   -0.059770   -1.259291
  C     -3.090707    0.056732    1.260454
  Cl     2.779280    0.995752    1.131330
  H      2.982539   -2.520616   -1.141558
  H      3.525682   -1.978740    0.460776
  H      3.695400   -0.904090   -0.927231
  H      0.761630   -2.748043   -0.963775
  H     -3.197849    2.328716   -0.453635
  H     -1.944810    2.473574    0.778590
  H     -1.495984    2.242410   -0.923893
  H     -3.906550    0.588980   -1.411228
  H     -3.397647   -1.082623   -1.173770
  H     -2.400593    0.022939   -2.143385
  H     -3.190642   -1.029407    1.341996
  H     -2.597314    0.436934    2.159110
  H     -4.093317    0.492487    1.207093

----------------------------
CARTESIAN COORDINATES (A.U.)
----------------------------
  NO LB      ZA    FRAG     MASS         X           Y           Z
   0 C     6.0000    0    12.011    5.766938   -3.139062   -0.894857
   1 C     6.0000    0    12.011    3.225944   -2.068064   -0.363646
   2 C     6.0000    0    12.011    2.764126    0.114530    0.907226
   3 C     6.0000    0    12.011    0.229696    0.976467    1.453843
   4 O     8.0000    0    15.999   -0.231759    2.709203    2.931370
   5 N     7.0000    0    14.007   -1.716754   -0.316173    0.137513
   6 C     6.0000    0    12.011   -1.324694   -2.774301   -0.711471
   7 O     8.0000    0    15.999   -2.997867   -4.330683   -1.116732
   8 N     7.0000    0    14.007    1.171876   -3.431909   -1.121561
   9 C     6.0000    0    12.011   -4.374028    0.828855    0.005235
  10 C     6.0000    0    12.011   -4.184191    3.717958   -0.273167
  11 C     6.0000    0    12.011   -5.746560   -0.112949   -2.379715
  12 C     6.0000    0    12.011   -5.840589    0.107208    2.381913
  13 Cl   17.0000    0    35.453    5.252078    1.881699    2.137903
  14 H     1.0000    0     1.008    5.636182   -4.763274   -2.157232
  15 H     1.0000    0     1.008    6.662573   -3.739277    0.870741
  16 H     1.0000    0     1.008    6.983293   -1.708483   -1.752212
  17 H     1.0000    0     1.008    1.439272   -5.193049   -1.821271
  18 H     1.0000    0     1.008   -6.043059    4.400635   -0.857245
  19 H     1.0000    0     1.008   -3.675159    4.674377    1.471322
  20 H     1.0000    0     1.008   -2.827001    4.237540   -1.745904
  21 H     1.0000    0     1.008   -7.382310    1.113011   -2.666835
  22 H     1.0000    0     1.008   -6.420623   -2.045861   -2.218103
  23 H     1.0000    0     1.008   -4.536463    0.043349   -4.050411
  24 H     1.0000    0     1.008   -6.029439   -1.945296    2.536004
  25 H     1.0000    0     1.008   -4.908212    0.825685    4.080126
  26 H     1.0000    0     1.008   -7.735248    0.930666    2.281075

--------------------------------
INTERNAL COORDINATES (ANGSTROEM)
--------------------------------
 C      0   0   0     0.000000000000     0.00000000     0.00000000
 C      1   0   0     1.486024544379     0.00000000     0.00000000
 C      2   1   0     1.358667694709   125.49264987     0.00000000
 C      3   2   1     1.445831981121   122.27963562   182.96037708
 O      4   3   2     1.229514481815   123.14227448   168.01331446
 N      4   3   2     1.419173067169   115.02364177   347.53726265
 C      6   4   3     1.391733933298   120.04938995    25.22848693
 O      7   6   4     1.228109701569   125.14843372   155.47807361
 N      2   1   3     1.365000612360   117.60123828   182.79959374
 C      6   4   3     1.532759473173   119.84922372   195.85159440
 C     10   6   4     1.539211310715   109.70325851    37.60046791
 C     10   6   4     1.539062118979   110.02196797   153.71764360
 C     10   6   4     1.526396084031   109.26344112   275.53851052
 Cl     3   2   1     1.741254828957   120.37561384   358.48136021
 H      1   2   3     1.090766627341   111.03713022   187.65162397
 H      1   2   3     1.094739262601   109.93473006    67.25794845
 H      1   2   3     1.092354845372   110.33086078   308.88568422
 H      9   2   1     1.012750217141   118.86279041     7.07870121
 H     11  10   6     1.092540946497   107.26232000   165.28986941
 H     11  10   6     1.086695280315   113.42017671   284.48588633
 H     11  10   6     1.094883332202   111.12312091    47.65905651
 H     12  10   6     1.092349993778   107.19943246   195.02401990
 H     12  10   6     1.086635337179   113.27772187    75.92729565
 H     12  10   6     1.094768604103   111.20563895   312.67189897
 H     13  10   6     1.093770158343   110.87429409   299.15361737
 H     13  10   6     1.093422017362   111.14758351    60.53585503
 H     13  10   6     1.094512547388   109.02416418   179.91681835

---------------------------
INTERNAL COORDINATES (A.U.)
---------------------------
 C      0   0   0     0.000000000000     0.00000000     0.00000000
 C      1   0   0     2.808179417161     0.00000000     0.00000000
 C      2   1   0     2.567509850007   125.49264987     0.00000000
 C      3   2   1     2.732226479984   122.27963562   182.96037708
 O      4   3   2     2.323445648320   123.14227448   168.01331446
 N      4   3   2     2.681848433586   115.02364177   347.53726265
 C      6   4   3     2.629995985218   120.04938995    25.22848693
 O      7   6   4     2.320790998378   125.14843372   155.47807361
 N      2   1   3     2.579477329994   117.60123828   182.79959374
 C      6   4   3     2.896495633470   119.84922372   195.85159440
 C     10   6   4     2.908687839486   109.70325851    37.60046791
 C     10   6   4     2.908405907963   110.02196797   153.71764360
 C     10   6   4     2.884470570708   109.26344112   275.53851052
 Cl     3   2   1     3.290494756096   120.37561384   358.48136021
 H      1   2   3     2.061250201696   111.03713022   187.65162397
 H      1   2   3     2.068757394367   109.93473006    67.25794845
 H      1   2   3     2.064251498816   110.33086078   308.88568422
 H      9   2   1     1.913820552465   118.86279041     7.07870121
 H     11  10   6     2.064603178974   107.26232000   165.28986941
 H     11  10   6     2.053556470820   113.42017671   284.48588633
 H     11  10   6     2.069029646458   111.12312091    47.65905651
 H     12  10   6     2.064242330631   107.19943246   195.02401990
 H     12  10   6     2.053443194710   113.27772187    75.92729565
 H     12  10   6     2.068812841769   111.20563895   312.67189897
 H     13  10   6     2.066926052725   110.87429409   299.15361737
 H     13  10   6     2.066268161614   111.14758351    60.53585503
 H     13  10   6     2.068328964704   109.02416418   179.91681835

---------------------
BASIS SET INFORMATION
---------------------
There are 5 groups of distinct atoms

 Group   1 Type C   : 11s6p2d1f contracted to 5s3p2d1f pattern {62111/411/11/1}
 Group   2 Type O   : 11s6p2d1f contracted to 5s3p2d1f pattern {62111/411/11/1}
 Group   3 Type N   : 11s6p2d1f contracted to 5s3p2d1f pattern {62111/411/11/1}
 Group   4 Type Cl  : 14s9p3d1f contracted to 5s5p2d1f pattern {73211/51111/21/1}
 Group   5 Type H   : 5s1p contracted to 3s1p pattern {311/1}

Atom   0C    basis set group =>   1
Atom   1C    basis set group =>   1
Atom   2C    basis set group =>   1
Atom   3C    basis set group =>   1
Atom   4O    basis set group =>   2
Atom   5N    basis set group =>   3
Atom   6C    basis set group =>   1
Atom   7O    basis set group =>   2
Atom   8N    basis set group =>   3
Atom   9C    basis set group =>   1
Atom  10C    basis set group =>   1
Atom  11C    basis set group =>   1
Atom  12C    basis set group =>   1
Atom  13Cl   basis set group =>   4
Atom  14H    basis set group =>   5
Atom  15H    basis set group =>   5
Atom  16H    basis set group =>   5
Atom  17H    basis set group =>   5
Atom  18H    basis set group =>   5
Atom  19H    basis set group =>   5
Atom  20H    basis set group =>   5
Atom  21H    basis set group =>   5
Atom  22H    basis set group =>   5
Atom  23H    basis set group =>   5
Atom  24H    basis set group =>   5
Atom  25H    basis set group =>   5
Atom  26H    basis set group =>   5
---------------------------------
AUXILIARY/J BASIS SET INFORMATION
---------------------------------
There are 5 groups of distinct atoms

 Group   1 Type C   : 12s5p4d2f1g contracted to 6s4p3d1f1g pattern {711111/2111/211/2/1}
 Group   2 Type O   : 12s5p4d2f1g contracted to 6s4p3d1f1g pattern {711111/2111/211/2/1}
 Group   3 Type N   : 12s5p4d2f1g contracted to 6s4p3d1f1g pattern {711111/2111/211/2/1}
 Group   4 Type Cl  : 14s5p5d2f1g contracted to 8s4p3d1f1g pattern {71111111/2111/311/2/1}
 Group   5 Type H   : 5s2p1d contracted to 3s1p1d pattern {311/2/1}

Atom   0C    basis set group =>   1
Atom   1C    basis set group =>   1
Atom   2C    basis set group =>   1
Atom   3C    basis set group =>   1
Atom   4O    basis set group =>   2
Atom   5N    basis set group =>   3
Atom   6C    basis set group =>   1
Atom   7O    basis set group =>   2
Atom   8N    basis set group =>   3
Atom   9C    basis set group =>   1
Atom  10C    basis set group =>   1
Atom  11C    basis set group =>   1
Atom  12C    basis set group =>   1
Atom  13Cl   basis set group =>   4
Atom  14H    basis set group =>   5
Atom  15H    basis set group =>   5
Atom  16H    basis set group =>   5
Atom  17H    basis set group =>   5
Atom  18H    basis set group =>   5
Atom  19H    basis set group =>   5
Atom  20H    basis set group =>   5
Atom  21H    basis set group =>   5
Atom  22H    basis set group =>   5
Atom  23H    basis set group =>   5
Atom  24H    basis set group =>   5
Atom  25H    basis set group =>   5
Atom  26H    basis set group =>   5

Checking for AutoStart:
The File: sp_solv.gbw exists
Trying to determine its content:
     ... Fine, the file contains calculation information
     ... Fine, the calculation information was read
     ... Fine, the file contains a basis set
     ... Fine, the basis set was read
     ... Fine, the file contains a geometry
     ... Fine, the geometry was read
     ... Fine, the file contains a set of orbitals
     ... Fine, the orbitals can be read
     => possible old guess file was deleted
     => GBW file was renamed to GES file
     => GES file is set as startup file
     => Guess is set to MORead
     ... now leaving AutoStart

------------------------------------------------------------------------------
                             ORCA STARTUP CALCULATIONS
                           -- RI-GTO INTEGRALS CHOSEN --
------------------------------------------------------------------------------
------------------------------------------------------------------------------
                   ___                                                        
                  /   \      - P O W E R E D   B Y -                         
                 /     \                                                     
                 |  |  |   _    _      __       _____    __    __             
                 |  |  |  | |  | |    /  \     |  _  \  |  |  /  |          
                  \  \/   | |  | |   /    \    | | | |  |  | /  /          
                 / \  \   | |__| |  /  /\  \   | |_| |  |  |/  /          
                |  |  |   |  __  | /  /__\  \  |    /   |      \           
                |  |  |   | |  | | |   __   |  |    \   |  |\   \          
                \     /   | |  | | |  |  |  |  | |\  \  |  | \   \       
                 \___/    |_|  |_| |__|  |__|  |_| \__\ |__|  \__/        
                                                                              
                      - O R C A' S   B I G   F R I E N D -                    
                                      &                                       
                       - I N T E G R A L  F E E D E R -                       
                                                                              
 v1 FN, 2020, v2 2021, v3 2022-2024                                           
------------------------------------------------------------------------------


----------------------
SHARK INTEGRAL PACKAGE
----------------------

Number of atoms                             ...     27
Number of basis functions                   ...    518
Number of shells                            ...    208
Maximum angular momentum                    ...      3
Integral batch strategy                     ... SHARK/LIBINT Hybrid
RI-J (if used) integral strategy            ... SPLIT-RIJ (Revised 2003 algorithm where possible)
Printlevel                                  ...      1
Contraction scheme used                     ... SEGMENTED contraction
Prescreening option                         ... SCHWARTZ
   Thresh                                   ... 3.000e-11
   Tcut                                     ... 1.000e-12
   Tpresel                                  ... 1.000e-12 
Coulomb Range Separation                    ... NOT USED
Exchange Range Separation                   ... Long Range
   Mu parameter                             ... 3.000e-01
   Scaling (regular/separated)              ... 1.670e-01 8.330e-01
Multipole approximations                    ... NOT USED
Finite Nucleus Model                        ... NOT USED
CABS basis                                  ... NOT available
Auxiliary Coulomb fitting basis             ... AVAILABLE
   # of basis functions in Aux-J            ...    831
   # of shells in Aux-J                     ...    277
   Maximum angular momentum in Aux-J        ...      4
Auxiliary J/K fitting basis                 ... NOT available
Auxiliary Correlation fitting basis         ... NOT available
Auxiliary 'external' fitting basis          ... NOT available

Checking pre-screening integrals            ... done (  0.0 sec) Dimension = 208
Check shell pair data                       ... done (  0.0 sec)
Shell pair information
Shell pair cut-off parameter TPreSel        ...   1.0e-12
Total number of shell pairs                 ...     21736
Shell pairs after pre-screening             ...     18055
Total number of primitive shell pairs       ...     67156
Primitive shell pairs kept                  ...     39030
          la=0 lb=0:   4761 shell pairs
          la=1 lb=0:   5196 shell pairs
          la=1 lb=1:   1441 shell pairs
          la=2 lb=0:   2558 shell pairs
          la=2 lb=1:   1386 shell pairs
          la=2 lb=2:    362 shell pairs
          la=3 lb=0:   1233 shell pairs
          la=3 lb=1:    676 shell pairs
          la=3 lb=2:    347 shell pairs
          la=3 lb=3:     95 shell pairs

Calculating one electron integrals          ... done (  0.1 sec)
Calculating RI/J V-Matrix + Cholesky decomp.... done (  0.1 sec)
Calculating Nuclear repulsion               ... done (  0.0 sec) ENN=   1069.156020100857 Eh

Diagonalization of the overlap matrix:
Smallest eigenvalue                        ... 5.016e-05
Time for diagonalization                   ...    0.029 sec
Threshold for overlap eigenvalues          ... 1.000e-07
Number of eigenvalues below threshold      ... 0
Time for construction of square roots      ...    0.055 sec
Total time needed                          ...    0.093 sec

-------------------
DFT GRID GENERATION
-------------------

General Integration Accuracy     IntAcc      ... 4.388
Radial Grid Type                 RadialGrid  ... OptM3 with GC (2021)
Angular Grid (max. ang.)         AngularGrid ... 4 (Lebedev-302)
Angular grid pruning method      GridPruning ... 4 (adaptive)
Weight generation scheme         WeightScheme... mBecke (2022)
Basis function cutoff            BFCut       ... 1.0000e-11
Integration weight cutoff        WCut        ... 1.0000e-14
Partially contracted basis set               ... off
Rotationally invariant grid construction     ... off
Angular grids for H and He will be reduced by one unit

Total number of grid points                  ...   126550
Total number of batches                      ...     1991
Average number of points per batch           ...       63
Average number of grid points per atom       ...     4687

--------------------
COSX GRID GENERATION
--------------------

GRIDX 1
-------
General Integration Accuracy     IntAcc      ... 3.816
Radial Grid Type                 RadialGrid  ... OptM3 with GC (2021)
Angular Grid (max. ang.)         AngularGrid ... 1 (Lebedev-50)
Angular grid pruning method      GridPruning ... 4 (adaptive)
Weight generation scheme         WeightScheme... mBecke (2022)
Basis function cutoff            BFCut       ... 1.0000e-11
Integration weight cutoff        WCut        ... 1.0000e-14
Partially contracted basis set               ... on
Rotationally invariant grid construction     ... off
Angular grids for H and He will be reduced by one unit

Total number of grid points                  ...    17150
Total number of batches                      ...      148
Average number of points per batch           ...      115
Average number of grid points per atom       ...      635
UseSFitting                                  ... on

GRIDX 2
-------
General Integration Accuracy     IntAcc      ... 4.020
Radial Grid Type                 RadialGrid  ... OptM3 with GC (2021)
Angular Grid (max. ang.)         AngularGrid ... 2 (Lebedev-110)
Angular grid pruning method      GridPruning ... 4 (adaptive)
Weight generation scheme         WeightScheme... mBecke (2022)
Basis function cutoff            BFCut       ... 1.0000e-11
Integration weight cutoff        WCut        ... 1.0000e-14
Partially contracted basis set               ... on
Rotationally invariant grid construction     ... off
Angular grids for H and He will be reduced by one unit

Total number of grid points                  ...    34566
Total number of batches                      ...      285
Average number of points per batch           ...      121
Average number of grid points per atom       ...     1280
UseSFitting                                  ... on

GRIDX 3
-------
General Integration Accuracy     IntAcc      ... 4.338
Radial Grid Type                 RadialGrid  ... OptM3 with GC (2021)
Angular Grid (max. ang.)         AngularGrid ... 3 (Lebedev-194)
Angular grid pruning method      GridPruning ... 4 (adaptive)
Weight generation scheme         WeightScheme... mBecke (2022)
Basis function cutoff            BFCut       ... 1.0000e-11
Integration weight cutoff        WCut        ... 1.0000e-14
Partially contracted basis set               ... on
Rotationally invariant grid construction     ... off
Angular grids for H and He will be reduced by one unit

Total number of grid points                  ...    76198
Total number of batches                      ...      608
Average number of points per batch           ...      125
Average number of grid points per atom       ...     2822
UseSFitting                                  ... on
Initializing property integral containers    ... done (  0.0 sec)

SHARK setup successfully completed in   4.6 seconds

Maximum memory used throughout the entire STARTUP-calculation: 90.8 MB
-------------------------------------------------------------------------------
                                 ORCA GUESS
                   Start orbitals & Density for SCF / CASSCF
-------------------------------------------------------------------------------

------------
SCF SETTINGS
------------
Hamiltonian:
 Density Functional     Method          .... DFT(GTOs)
 Exchange Functional    Exchange        .... WB97X-V
 Correlation Functional Correlation     .... WB97X-V
 Gradients option       PostSCFGGA      .... off
 Hybrid DFT is turned on
   Fraction HF Exchange ScalHFX         ....  0.167000
   Scaling of DF-GGA-X  ScalDFX         ....  0.000000
   Scaling of DF-GGA-C  ScalDFC         ....  1.000000
   Scaling of DF-LDA-C  ScalLDAC        ....  1.000000
   Perturbative correction              ....  0.000000
 Long-range corrected/Screened/Range-Separated Hybrid DFT is turned on
   Amount of maximum screened exact exchange              ....  0.833000
   Range separation parameter mu (erf(mu*r12)/r12)        ....  0.300000
   NL short-range parameter             ....  6.000000
   NL long-range parameter              ....  0.010000
 RI-approximation to the Coulomb term is turned on
   Number of AuxJ basis functions       .... 831
   RIJ-COSX (HFX calculated with COS-X)).... on


General Settings:
 Integral files         IntName         .... sp_solv
 Hartree-Fock type      HFTyp           .... RHF
 Total Charge           Charge          ....    0
 Multiplicity           Mult            ....    1
 Number of Electrons    NEL             ....  114
 Basis Dimension        Dim             ....  518
 Nuclear Repulsion      ENuc            ....   1069.1560201009 Eh

Convergence Acceleration:
 AO-DIIS                CNVDIIS         .... on
   Start iteration      DIISMaxIt       ....    12
   Startup error        DIISStart       ....  0.200000
   # of expansion vecs  DIISMaxEq       ....     5
   Bias factor          DIISBfac        ....   1.050
   Max. coefficient     DIISMaxC        ....  10.000
 MO-DIIS                CNVKDIIS        .... off
 Trust-Rad. Augm. Hess. CNVTRAH         .... auto
   Auto Start mean grad. ratio tolernc. ....  1.125000
   Auto Start start iteration           ....     1
   Auto Start num. interpolation iter.  ....    10
   Max. Number of Micro iterations      ....    24
   Max. Number of Macro iterations      .... Maxiter - #DIIS iter
   Number of Davidson start vectors     ....     2
   Converg. threshold    (grad. norm)   ....   1.000e-04
   Grad. Scal. Fac. for Micro threshold ....   0.100
   Minimum threshold for Micro iter.    ....   1.000e-02
   NR start threshold (gradient norm)   ....   1.000e-04
   Initial trust radius                 ....   0.400
   Minimum AH scaling param. (alpha)    ....   1.000
   Maximum AH scaling param. (alpha)    .... 1000.000
   Quad. conv. algorithm                .... NR
   White noise on init. David. guess    .... on
   Maximum white noise                  ....   0.010
   Pseudo random numbers                .... off
   Inactive MOs                         .... canonical
   Orbital update algorithm             .... Taylor
   Preconditioner                       .... Diag
   Full preconditioner red. dimension   ....   250
 SOSCF                  CNVSOSCF        .... on
   Start iteration      SOSCFMaxIt      ....   150
   Startup grad/error   SOSCFStart      ....  0.003300
   Hessian update       SOSCFHessUp     .... L-BFGS
 Level Shifting         CNVShift        .... on
   Level shift para.    LevelShift      ....    0.2500
   Turn off err/grad.   ShiftErr        ....    0.0010
 Zerner damping         CNVZerner       .... off
 Static damping         CNVDamp         .... on
   Fraction old density DampFac         ....    0.7000
   Max. Damping (<1)    DampMax         ....    0.9800
   Min. Damping (>=0)   DampMin         ....    0.0000
   Turn off err/grad.   DampErr         ....    0.1000

SCF Procedure:
 Maximum # iterations   MaxIter         ....   125
 SCF integral mode      SCFMode         .... Direct
   Integral package                     .... SHARK and LIBINT hybrid scheme
 Reset frequency        DirectResetFreq ....    20
 Integral Threshold     Thresh          ....  3.000e-11 Eh
 Primitive CutOff       TCut            ....  1.000e-12 Eh

Convergence Tolerance:
 Convergence Check Mode ConvCheckMode   .... Total+1el-Energy
 Convergence forced     ConvForced      .... 0
 Energy Change          TolE            ....  1.000e-07 Eh
 1-El. energy change                    ....  1.000e-04 Eh
 Orbital Gradient       TolG            ....  1.000e-04
 Orbital Rotation angle TolX            ....  1.000e-04
 DIIS Error             TolErr          ....  1.000e-07

---------------------
INITIAL GUESS: MOREAD
---------------------
Guess MOs are being read from file: sp_solv.ges
Input Geometry matches current geometry (good)
Atom 0: N(Shells)= 11 and 9 - projection required
Input basis set needs projection
NBasis(read)= 359
NBasis(calc)= 518
Basis set overlap was calculated
Using GuessMode=FMatrix for the initial guess
C*T matrix was formed
Effective Fockian was calculated
Effective Fockian was diagonalized
Initial density was built
                      ------------------
                      INITIAL GUESS DONE (   0.2 sec)
                      ------------------
             **** ENERGY FILE WAS UPDATED (sp_solv.en.tmp) ****
Finished Guess after   0.6 sec
Maximum memory used throughout the entire GUESS-calculation: 66.8 MB

-------------------------------------------------------------------------------------------
                                      ORCA LEAN-SCF
                              memory conserving SCF solver
-------------------------------------------------------------------------------------------

--------------------
CPCM SOLVATION MODEL
--------------------
CPCM parameters:
  Epsilon                                         ...      78.3550
  Refrac                                          ...       1.3328
  Rsolv                                           ...       1.3000
  Surface type                                    ... GAUSSIAN VDW
  Discretization scheme                           ... Constant charge density
    Threshold for H atoms                         ...       5.0000 (charges/Ang^2)
    Threshold for non-H atoms                     ...       5.0000 (charges/Ang^2)
  Epsilon function type                           ...         CPCM
Solvent:                                          ... WATER
SMD-CDS solvent descriptors:
  Soln                                            ...       1.3328
  Soln25                                          ...       1.3323
  Sola                                            ...       0.0000
  Solb                                            ...       0.0000
  Solg                                            ...       0.0000
  Solc                                            ...       0.0000
  Solh                                            ...       0.0000
Radii:
  Scheme                                          ... Element-dependent radii
  Radius for C  used is    3.4960 Bohr (=   1.8500 Ang.)
  Radius for O  used is    2.8724 Bohr (=   1.5200 Ang.)
  Radius for N  used is    3.5716 Bohr (=   1.8900 Ang.)
  Radius for Cl used is    4.4975 Bohr (=   2.3800 Ang.)
  Radius for H  used is    2.2677 Bohr (=   1.2000 Ang.)
Calculating surface                               ...        done! (  0.0s)
Cavity surface points                             ...         1997
Cavity Volume                                     ...    1514.1585
Cavity Surface-area                               ...     855.7152
Calculating surface distance matrix               ...        done! (  0.0s)
Performing Cholesky decomposition & store         ...        done! (  0.1s)
Overall time for CPCM initialization              ...                 0.2s

----------------------------------------D-I-I-S--------------------------------------------
Iteration    Energy (Eh)           Delta-E    RMSDP     MaxDP     DIISErr   Damp  Time(sec)
-------------------------------------------------------------------------------------------
               ***  Starting incremental Fock matrix formation  ***
    1    -1071.4006801250095577     0.00e+00  8.58e-04  6.39e-02  4.96e-02  0.700  65.4
    2    -1071.4110874625400811    -1.04e-02  7.18e-04  5.10e-02  3.59e-02  0.700  34.5
                               ***Turning on AO-DIIS***
    3    -1071.4189749866429793    -7.89e-03  5.80e-04  3.90e-02  2.56e-02  0.700  33.7
    4    -1071.4248128877695763    -5.84e-03  1.43e-03  9.37e-02  1.80e-02  0.000  33.4
                              *** Initializing SOSCF ***
---------------------------------------S-O-S-C-F--------------------------------------
Iteration    Energy (Eh)           Delta-E    RMSDP     MaxDP     MaxGrad    Time(sec)
--------------------------------------------------------------------------------------
    5    -1071.4398590854964368    -1.50e-02  6.56e-05  3.44e-03  1.36e-03    35.1
               *** Restarting incremental Fock matrix formation ***
    6    -1071.4399478798097789    -8.88e-05  3.65e-05  2.06e-03  1.26e-03    69.4
    7    -1071.4399849310686932    -3.71e-05  2.82e-05  1.50e-03  5.77e-04    50.0
    8    -1071.4399937189884895    -8.79e-06  5.41e-06  3.19e-04  1.49e-04    43.8
    9    -1071.4399945566331098    -8.38e-07  2.99e-06  1.18e-04  8.19e-05    36.9
   10    -1071.4399948938714715    -3.37e-07  9.06e-07  5.11e-05  2.60e-05    34.4
   11    -1071.4399949044570803    -1.06e-08  5.13e-07  2.02e-05  1.94e-05    29.4
                 **** Energy Check signals convergence ****

               *****************************************************
               *                     SUCCESS                       *
               *           SCF CONVERGED AFTER  11 CYCLES          *
               *****************************************************


------------------
NL GRID GENERATION
------------------

General Integration Accuracy     IntAcc      ... 4.004
Radial Grid Type                 RadialGrid  ... OptM3 with GC (2021)
Angular Grid (max. ang.)         AngularGrid ... 2 (Lebedev-110)
Angular grid pruning method      GridPruning ... 4 (adaptive)
Weight generation scheme         WeightScheme... mBecke (2022)
Basis function cutoff            BFCut       ... 1.0000e-10
Integration weight cutoff        WCut        ... 1.0000e-14
Partially contracted basis set               ... off
Rotationally invariant grid construction     ... off
Angular grids for H and He will be reduced by one unit

Total number of grid points                  ...    39556
Total number of batches                      ...      632
Average number of points per batch           ...       62
Average number of grid points per atom       ...     1465
Final grid set up in    0.4 sec

-------------------------------------------------------------------------------
                    post-SCF DFT-NL dispersion correction                      
-------------------------------------------------------------------------------

SCF Energy:    -1071.439994904 
NL    Energy:      0.429894591 
SC+NL Energy:  -1071.010100313 
NL done in  :              6.1 sec
-------------------------------------------------------------------------------
Recomputing exchange energy using gridx3       ... done (  103.951 sec)
Old exchange energy                            :    -33.101916984 Eh
New exchange energy                            :    -33.101895758 Eh
Exchange energy change after final integration :      0.000021226 Eh
Total energy after final integration           :  -1071.010079087 Eh

SMD CDS free energy correction energy :                 6.14292     Kcal/mol
Total Energy after SMD CDS correction =             -1071.000289718 Eh
             **** ENERGY FILE WAS UPDATED (sp_solv.en.tmp) ****

----------------
TOTAL SCF ENERGY
----------------

Total Energy       :      -1071.00028971770917 Eh          -29143.39951 eV

Components:
Nuclear Repulsion  :       1069.15602010085672 Eh           29093.21438 eV
Electronic Energy  :      -2140.56026393397951 Eh          -58247.60603 eV
One Electron Energy:      -3589.25727465910904 Eh          -97668.65582 eV
Two Electron Energy:       1448.69701072512976 Eh           39421.04979 eV
CPCM Dielectric    :         -0.03575107133487 Eh              -0.97284 eV
SMD CDS (Gcds)     :          0.00978936888409 Eh               0.26638 eV

Virial components:
Potential Energy   :      -2138.81978903085019 Eh          -58200.24530 eV
Kinetic Energy     :       1067.81949931314125 Eh           29056.84580 eV
Virial Ratio       :          2.00297877160570

DFT components:
N(Alpha)           :       57.000080644894 electrons
N(Beta)            :       57.000080644894 electrons
N(Total)           :      114.000161289789 electrons
E(X)               :      -75.284799115192 Eh       
E(C)               :       -4.966842465199 Eh       
NL Energy, E(C,NL) :        0.429894591450 Eh       
E(XC)              :      -79.821746988941 Eh       

CPCM Solvation Model Properties:
Surface-charge          :         -0.04577325343944
Corrected charge        :         -0.00000000000000
Outlying charge corr.   :          0.00013335400203 Eh               0.00363 eV
Free-energy (cav+disp)  :          0.00978936888409 Eh               0.26638 eV

---------------
SCF CONVERGENCE
---------------

  Last Energy change         ...    1.0586e-08  Tolerance :   1.0000e-07
  Last MAX-Density change    ...    2.0167e-05  Tolerance :   1.0000e-05
  Last RMS-Density change    ...    5.1333e-07  Tolerance :   1.0000e-06
  Last DIIS Error            ...    1.3637e-03  Tolerance :   1.0000e-07
  Last Orbital Gradient      ...    1.9428e-05  Tolerance :   1.0000e-04
  Last Orbital Rotation      ...    4.4260e-05  Tolerance :   1.0000e-04


----------------
ORBITAL ENERGIES
----------------

  NO   OCC          E(Eh)            E(eV) 
   0   2.0000    -107.151836     -2915.7497 
   1   2.0000     -21.660999      -589.4258 
   2   2.0000     -21.659968      -589.3977 
   3   2.0000     -16.590354      -451.4465 
   4   2.0000     -16.589716      -451.4291 
   5   2.0000     -12.208410      -332.2077 
   6   2.0000     -12.182559      -331.5043 
   7   2.0000     -12.139767      -330.3399 
   8   2.0000     -12.109342      -329.5120 
   9   2.0000     -12.107433      -329.4600 
  10   2.0000     -12.055664      -328.0513 
  11   2.0000     -12.030702      -327.3721 
  12   2.0000     -12.028454      -327.3109 
  13   2.0000     -12.028015      -327.2989 
  14   2.0000     -11.304656      -307.6153 
  15   2.0000      -9.096394      -247.5255 
  16   2.0000      -9.093567      -247.4485 
  17   2.0000      -9.093525      -247.4474 
  18   2.0000      -1.731368       -47.1129 
  19   2.0000      -1.719598       -46.7926 
  20   2.0000      -1.584926       -43.1280 
  21   2.0000      -1.531164       -41.6651 
  22   2.0000      -1.434706       -39.0403 
  23   2.0000      -1.338465       -36.4215 
  24   2.0000      -1.328156       -36.1410 
  25   2.0000      -1.254286       -34.1309 
  26   2.0000      -1.218097       -33.1461 
  27   2.0000      -1.184595       -32.2345 
  28   2.0000      -1.183382       -32.2015 
  29   2.0000      -1.172834       -31.9144 
  30   2.0000      -1.108267       -30.1575 
  31   2.0000      -1.101778       -29.9809 
  32   2.0000      -1.070872       -29.1399 
  33   2.0000      -1.059529       -28.8312 
  34   2.0000      -1.030312       -28.0362 
  35   2.0000      -0.970139       -26.3988 
  36   2.0000      -0.949365       -25.8335 
  37   2.0000      -0.936835       -25.4926 
  38   2.0000      -0.931304       -25.3421 
  39   2.0000      -0.927746       -25.2453 
  40   2.0000      -0.893953       -24.3257 
  41   2.0000      -0.885864       -24.1056 
  42   2.0000      -0.882859       -24.0238 
  43   2.0000      -0.876247       -23.8439 
  44   2.0000      -0.867965       -23.6185 
  45   2.0000      -0.836193       -22.7540 
  46   2.0000      -0.832725       -22.6596 
  47   2.0000      -0.824547       -22.4371 
  48   2.0000      -0.818712       -22.2783 
  49   2.0000      -0.814594       -22.1662 
  50   2.0000      -0.805856       -21.9285 
  51   2.0000      -0.800548       -21.7840 
  52   2.0000      -0.796890       -21.6845 
  53   2.0000      -0.792802       -21.5732 
  54   2.0000      -0.773521       -21.0486 
  55   2.0000      -0.769585       -20.9415 
  56   2.0000      -0.682484       -18.5713 
  57   0.0000      -0.344532        -9.3752 
  58   0.0000      -0.310752        -8.4560 
  59   0.0000      -0.275906        -7.5078 
  60   0.0000      -0.192677        -5.2430 
  61   0.0000      -0.172969        -4.7067 
  62   0.0000      -0.132965        -3.6182 
  63   0.0000      -0.125941        -3.4270 
  64   0.0000      -0.071855        -1.9553 
  65   0.0000      -0.053744        -1.4625 
  66   0.0000      -0.026539        -0.7222 
  67   0.0000      -0.022190        -0.6038 
*Only the first 10 virtual orbitals were printed.

                    ********************************
                    * MULLIKEN POPULATION ANALYSIS *
                    ********************************

-----------------------
MULLIKEN ATOMIC CHARGES
-----------------------
   0 C :   -0.386401
   1 C :    0.206926
   2 C :   -0.098218
   3 C :    0.267652
   4 O :   -0.472800
   5 N :   -0.039139
   6 C :    0.343131
   7 O :   -0.485958
   8 N :   -0.224396
   9 C :    0.161026
  10 C :   -0.414261
  11 C :   -0.412304
  12 C :   -0.420104
  13 Cl:   -0.096115
  14 H :    0.162176
  15 H :    0.172948
  16 H :    0.167715
  17 H :    0.298721
  18 H :    0.141740
  19 H :    0.143873
  20 H :    0.140802
  21 H :    0.142078
  22 H :    0.143448
  23 H :    0.142313
  24 H :    0.137142
  25 H :    0.136557
  26 H :    0.141449
Sum of atomic charges:    0.0000000

--------------------------------
MULLIKEN REDUCED ORBITAL CHARGES
--------------------------------
  0 C s       :     3.271683  s :     3.271683
      pz      :     1.088794  p :     3.061274
      px      :     0.907194
      py      :     1.065287
      dz2     :     0.006182  d :     0.050115
      dxz     :     0.012272
      dyz     :     0.010035
      dx2y2   :     0.009323
      dxy     :     0.012302
      f0      :     0.000305  f :     0.003329
      f+1     :     0.000434
      f-1     :     0.000306
      f+2     :     0.000472
      f-2     :     0.000548
      f+3     :     0.000731
      f-3     :     0.000532

  1 C s       :     3.123159  s :     3.123159
      pz      :     0.799781  p :     2.463082
      px      :     0.814729
      py      :     0.848572
      dz2     :     0.026999  d :     0.192861
      dxz     :     0.037117
      dyz     :     0.029954
      dx2y2   :     0.055834
      dxy     :     0.042956
      f0      :     0.001167  f :     0.013973
      f+1     :     0.001666
      f-1     :     0.002126
      f+2     :     0.001350
      f-2     :     0.002474
      f+3     :     0.003130
      f-3     :     0.002060

  2 C s       :     3.183382  s :     3.183382
      pz      :     1.057818  p :     2.757490
      px      :     0.801034
      py      :     0.898638
      dz2     :     0.019882  d :     0.146668
      dxz     :     0.026729
      dyz     :     0.018553
      dx2y2   :     0.042284
      dxy     :     0.039221
      f0      :     0.000954  f :     0.010676
      f+1     :     0.001127
      f-1     :     0.002035
      f+2     :     0.001120
      f-2     :     0.001876
      f+3     :     0.002134
      f-3     :     0.001429

  3 C s       :     3.078081  s :     3.078081
      pz      :     0.745763  p :     2.379651
      px      :     0.861408
      py      :     0.772480
      dz2     :     0.065621  d :     0.252945
      dxz     :     0.056051
      dyz     :     0.024977
      dx2y2   :     0.041977
      dxy     :     0.064320
      f0      :     0.001802  f :     0.021671
      f+1     :     0.002523
      f-1     :     0.003641
      f+2     :     0.003419
      f-2     :     0.003935
      f+3     :     0.003452
      f-3     :     0.002899

  4 O s       :     3.811071  s :     3.811071
      pz      :     1.423213  p :     4.629764
      px      :     1.785918
      py      :     1.420633
      dz2     :     0.007582  d :     0.030112
      dxz     :     0.003701
      dyz     :     0.008288
      dx2y2   :     0.005663
      dxy     :     0.004879
      f0      :     0.000205  f :     0.001852
      f+1     :     0.000095
      f-1     :     0.000464
      f+2     :     0.000352
      f-2     :     0.000317
      f+3     :     0.000203
      f-3     :     0.000216

  5 N s       :     3.417078  s :     3.417078
      pz      :     1.404348  p :     3.544145
      px      :     1.067156
      py      :     1.072642
      dz2     :     0.007797  d :     0.073400
      dxz     :     0.013975
      dyz     :     0.011063
      dx2y2   :     0.021347
      dxy     :     0.019218
      f0      :     0.000596  f :     0.004516
      f+1     :     0.000528
      f-1     :     0.000724
      f+2     :     0.000681
      f-2     :     0.000602
      f+3     :     0.000785
      f-3     :     0.000601

  6 C s       :     3.026958  s :     3.026958
      pz      :     0.773749  p :     2.329240
      px      :     0.754456
      py      :     0.801035
      dz2     :     0.020305  d :     0.275031
      dxz     :     0.053176
      dyz     :     0.048208
      dx2y2   :     0.106961
      dxy     :     0.046381
      f0      :     0.002422  f :     0.025641
      f+1     :     0.001922
      f-1     :     0.002510
      f+2     :     0.002720
      f-2     :     0.003706
      f+3     :     0.006644
      f-3     :     0.005717

  7 O s       :     3.815473  s :     3.815473
      pz      :     1.542771  p :     4.639023
      px      :     1.549927
      py      :     1.546325
      dz2     :     0.003269  d :     0.029583
      dxz     :     0.005630
      dyz     :     0.004395
      dx2y2   :     0.007128
      dxy     :     0.009160
      f0      :     0.000180  f :     0.001879
      f+1     :     0.000163
      f-1     :     0.000139
      f+2     :     0.000052
      f-2     :     0.000403
      f+3     :     0.000489
      f-3     :     0.000454

  8 N s       :     3.433567  s :     3.433567
      pz      :     1.497829  p :     3.724915
      px      :     1.048680
      py      :     1.178405
      dz2     :     0.006462  d :     0.061377
      dxz     :     0.012259
      dyz     :     0.005680
      dx2y2   :     0.021947
      dxy     :     0.015029
      f0      :     0.000750  f :     0.004538
      f+1     :     0.000643
      f-1     :     0.000463
      f+2     :     0.000624
      f-2     :     0.000486
      f+3     :     0.000811
      f-3     :     0.000759

  9 C s       :     3.067744  s :     3.067744
      pz      :     0.925431  p :     2.561970
      px      :     0.731590
      py      :     0.904950
      dz2     :     0.041838  d :     0.196803
      dxz     :     0.040874
      dyz     :     0.036151
      dx2y2   :     0.039040
      dxy     :     0.038901
      f0      :     0.002430  f :     0.012457
      f+1     :     0.001566
      f-1     :     0.001238
      f+2     :     0.002032
      f-2     :     0.001395
      f+3     :     0.002155
      f-3     :     0.001641

 10 C s       :     3.276322  s :     3.276322
      pz      :     1.086835  p :     3.078375
      px      :     1.090058
      py      :     0.901482
      dz2     :     0.006265  d :     0.056210
      dxz     :     0.010711
      dyz     :     0.017034
      dx2y2   :     0.010607
      dxy     :     0.011593
      f0      :     0.000365  f :     0.003354
      f+1     :     0.000392
      f-1     :     0.000522
      f+2     :     0.000836
      f-2     :     0.000002
      f+3     :     0.000627
      f-3     :     0.000610

 11 C s       :     3.276091  s :     3.276091
      pz      :     0.951670  p :     3.076822
      px      :     1.045790
      py      :     1.079362
      dz2     :     0.016339  d :     0.056032
      dxz     :     0.012880
      dyz     :     0.006141
      dx2y2   :     0.008412
      dxy     :     0.012260
      f0      :     0.000567  f :     0.003358
      f+1     :     0.001038
      f-1     :     0.000271
      f+2     :     0.000443
      f-2     :     0.000357
      f+3     :     0.000314
      f-3     :     0.000368

 12 C s       :     3.290224  s :     3.290224
      pz      :     0.970540  p :     3.069239
      px      :     1.029508
      py      :     1.069191
      dz2     :     0.017710  d :     0.057236
      dxz     :     0.009497
      dyz     :     0.008881
      dx2y2   :     0.013852
      dxy     :     0.007296
      f0      :     0.000573  f :     0.003405
      f+1     :     0.000934
      f-1     :     0.000476
      f+2     :     0.000375
      f-2     :     0.000346
      f+3     :     0.000072
      f-3     :     0.000629

 13 Cls       :     5.861977  s :     5.861977
      pz      :     3.851515  p :    11.164183
      px      :     3.552960
      py      :     3.759708
      dz2     :     0.010013  d :     0.064077
      dxz     :     0.016236
      dyz     :     0.007296
      dx2y2   :     0.010017
      dxy     :     0.020516
      f0      :     0.000602  f :     0.005877
      f+1     :     0.000760
      f-1     :     0.000457
      f+2     :     0.000549
      f-2     :     0.001284
      f+3     :     0.000899
      f-3     :     0.001325

 14 H s       :     0.816151  s :     0.816151
      pz      :     0.007751  p :     0.021673
      px      :     0.003770
      py      :     0.010152

 15 H s       :     0.805568  s :     0.805568
      pz      :     0.010558  p :     0.021483
      px      :     0.005974
      py      :     0.004952

 16 H s       :     0.810799  s :     0.810799
      pz      :     0.005759  p :     0.021486
      px      :     0.007517
      py      :     0.008209

 17 H s       :     0.664252  s :     0.664252
      pz      :     0.011805  p :     0.037027
      px      :     0.004996
      py      :     0.020226

 18 H s       :     0.836844  s :     0.836844
      pz      :     0.005036  p :     0.021416
      px      :     0.011134
      py      :     0.005246

 19 H s       :     0.833773  s :     0.833773
      pz      :     0.011059  p :     0.022354
      px      :     0.005358
      py      :     0.005938

 20 H s       :     0.838508  s :     0.838508
      pz      :     0.008333  p :     0.020689
      px      :     0.007698
      py      :     0.004658

 21 H s       :     0.836466  s :     0.836466
      pz      :     0.004349  p :     0.021457
      px      :     0.009829
      py      :     0.007279

 22 H s       :     0.834326  s :     0.834326
      pz      :     0.004063  p :     0.022226
      px      :     0.005069
      py      :     0.013094

 23 H s       :     0.837002  s :     0.837002
      pz      :     0.009930  p :     0.020685
      px      :     0.006612
      py      :     0.004143

 24 H s       :     0.841787  s :     0.841787
      pz      :     0.004127  p :     0.021071
      px      :     0.004181
      py      :     0.012763

 25 H s       :     0.842285  s :     0.842285
      pz      :     0.010277  p :     0.021158
      px      :     0.005745
      py      :     0.005137

 26 H s       :     0.837581  s :     0.837581
      pz      :     0.004060  p :     0.020970
      px      :     0.011531
      py      :     0.005379


------------------------
MULLIKEN OVERLAP CHARGES
------------------------
B(  0-C ,  1-C ) :   0.5195 B(  0-C ,  2-C ) :  -0.1256 B(  0-C ,  8-N ) :  -0.0943 
B(  0-C , 14-H ) :   0.8330 B(  0-C , 15-H ) :   0.8037 B(  0-C , 16-H ) :   0.8298 
B(  1-C ,  2-C ) :   0.8880 B(  1-C ,  6-C ) :  -0.1005 B(  1-C ,  8-N ) :   0.8187 
B(  1-C , 13-Cl) :  -0.1617 B(  1-C , 14-H ) :  -0.1028 B(  1-C , 16-H ) :  -0.0649 
B(  1-C , 17-H ) :  -0.0628 B(  2-C ,  3-C ) :   0.5157 B(  2-C ,  4-O ) :  -0.2126 
B(  2-C ,  5-N ) :  -0.2628 B(  2-C ,  8-N ) :  -0.1522 B(  2-C , 13-Cl) :   0.6853 
B(  3-C ,  4-O ) :   1.4015 B(  3-C ,  5-N ) :   0.7993 B(  3-C ,  6-C ) :  -0.0883 
B(  3-C ,  9-C ) :  -0.1044 B(  3-C , 13-Cl) :  -0.0508 B(  4-O ,  5-N ) :  -0.2533 
B(  4-O ,  9-C ) :   0.0649 B(  4-O , 10-C ) :  -0.0735 B(  5-N ,  6-C ) :   0.7449 
B(  5-N ,  7-O ) :  -0.2328 B(  5-N ,  8-N ) :  -0.1900 B(  5-N ,  9-C ) :   0.4621 
B(  5-N , 10-C ) :  -0.0785 B(  5-N , 11-C ) :  -0.0760 B(  6-C ,  7-O ) :   1.3797 
B(  6-C ,  8-N ) :   0.8423 B(  6-C ,  9-C ) :  -0.0819 B(  7-O ,  8-N ) :  -0.2140 
B(  7-O ,  9-C ) :   0.0586 B(  7-O , 11-C ) :  -0.0703 B(  8-N , 17-H ) :   0.7271 
B(  9-C , 10-C ) :   0.5729 B(  9-C , 11-C ) :   0.5713 B(  9-C , 12-C ) :   0.6080 
B(  9-C , 19-H ) :  -0.0609 B(  9-C , 20-H ) :  -0.0825 B(  9-C , 22-H ) :  -0.0599 
B(  9-C , 23-H ) :  -0.0828 B(  9-C , 24-H ) :  -0.0526 B(  9-C , 25-H ) :  -0.0537 
B(  9-C , 26-H ) :  -0.0707 B( 10-C , 11-C ) :  -0.1251 B( 10-C , 12-C ) :  -0.0912 
B( 10-C , 18-H ) :   0.8109 B( 10-C , 19-H ) :   0.8372 B( 10-C , 20-H ) :   0.8246 
B( 11-C , 12-C ) :  -0.0935 B( 11-C , 21-H ) :   0.8150 B( 11-C , 22-H ) :   0.8366 
B( 11-C , 23-H ) :   0.8287 B( 12-C , 24-H ) :   0.8066 B( 12-C , 25-H ) :   0.8061 
B( 12-C , 26-H ) :   0.8333 


                     *******************************
                     * LOEWDIN POPULATION ANALYSIS *
                     *******************************

----------------------
LOEWDIN ATOMIC CHARGES
----------------------
   0 C :   -0.231573
   1 C :   -0.198601
   2 C :   -0.428089
   3 C :   -0.379398
   4 O :    0.017212
   5 N :    0.287343
   6 C :   -0.432280
   7 O :    0.000834
   8 N :    0.229281
   9 C :   -0.304032
  10 C :   -0.259641
  11 C :   -0.259558
  12 C :   -0.253379
  13 Cl:    0.392796
  14 H :    0.142653
  15 H :    0.150962
  16 H :    0.146010
  17 H :    0.229378
  18 H :    0.131711
  19 H :    0.120863
  20 H :    0.129629
  21 H :    0.131919
  22 H :    0.121012
  23 H :    0.129762
  24 H :    0.126102
  25 H :    0.125246
  26 H :    0.133841

-------------------------------
LOEWDIN REDUCED ORBITAL CHARGES
-------------------------------
  0 C s       :     2.812808  s :     2.812808
      pz      :     1.075980  p :     3.160911
      px      :     1.016097
      py      :     1.068834
      dz2     :     0.024847  d :     0.233190
      dxz     :     0.053468
      dyz     :     0.046966
      dx2y2   :     0.048758
      dxy     :     0.059150
      f0      :     0.002881  f :     0.024663
      f+1     :     0.004393
      f-1     :     0.001577
      f+2     :     0.003034
      f-2     :     0.002707
      f+3     :     0.005717
      f-3     :     0.004355

  1 C s       :     2.721307  s :     2.721307
      pz      :     0.824900  p :     2.755915
      px      :     0.958765
      py      :     0.972251
      dz2     :     0.096812  d :     0.640273
      dxz     :     0.123890
      dyz     :     0.091926
      dx2y2   :     0.156888
      dxy     :     0.170756
      f0      :     0.007244  f :     0.081106
      f+1     :     0.009989
      f-1     :     0.006489
      f+2     :     0.009287
      f-2     :     0.014792
      f+3     :     0.019970
      f-3     :     0.013334

  2 C s       :     2.770996  s :     2.770996
      pz      :     1.036654  p :     3.046118
      px      :     0.967415
      py      :     1.042049
      dz2     :     0.071413  d :     0.552177
      dxz     :     0.104699
      dyz     :     0.073774
      dx2y2   :     0.142200
      dxy     :     0.160092
      f0      :     0.005109  f :     0.058798
      f+1     :     0.006701
      f-1     :     0.005278
      f+2     :     0.007967
      f-2     :     0.009955
      f+3     :     0.013916
      f-3     :     0.009871

  3 C s       :     2.731335  s :     2.731335
      pz      :     0.829033  p :     2.644695
      px      :     0.965479
      py      :     0.850183
      dz2     :     0.175745  d :     0.876338
      dxz     :     0.193570
      dyz     :     0.132802
      dx2y2   :     0.159892
      dxy     :     0.214329
      f0      :     0.013166  f :     0.127031
      f+1     :     0.015435
      f-1     :     0.016959
      f+2     :     0.019061
      f-2     :     0.022472
      f+3     :     0.021203
      f-3     :     0.018735

  4 O s       :     3.397455  s :     3.397455
      pz      :     1.419443  p :     4.515445
      px      :     1.643224
      py      :     1.452779
      dz2     :     0.010719  d :     0.064159
      dxz     :     0.008688
      dyz     :     0.021727
      dx2y2   :     0.011359
      dxy     :     0.011665
      f0      :     0.000527  f :     0.005729
      f+1     :     0.000217
      f-1     :     0.001322
      f+2     :     0.001354
      f-2     :     0.001130
      f+3     :     0.000601
      f-3     :     0.000579

  5 N s       :     2.892160  s :     2.892160
      pz      :     1.279828  p :     3.559019
      px      :     1.123162
      py      :     1.156029
      dz2     :     0.025400  d :     0.244937
      dxz     :     0.042257
      dyz     :     0.035642
      dx2y2   :     0.074549
      dxy     :     0.067090
      f0      :     0.001885  f :     0.016540
      f+1     :     0.001490
      f-1     :     0.001848
      f+2     :     0.002746
      f-2     :     0.002211
      f+3     :     0.004028
      f-3     :     0.002332

  6 C s       :     2.718338  s :     2.718338
      pz      :     0.770263  p :     2.607865
      px      :     0.921219
      py      :     0.916383
      dz2     :     0.087124  d :     0.957488
      dxz     :     0.161239
      dyz     :     0.147137
      dx2y2   :     0.333513
      dxy     :     0.228475
      f0      :     0.009790  f :     0.148589
      f+1     :     0.012930
      f-1     :     0.010709
      f+2     :     0.015646
      f-2     :     0.025011
      f+3     :     0.039126
      f-3     :     0.035376

  7 O s       :     3.400214  s :     3.400214
      pz      :     1.447366  p :     4.529451
      px      :     1.553182
      py      :     1.528904
      dz2     :     0.007808  d :     0.063741
      dxz     :     0.009167
      dyz     :     0.007554
      dx2y2   :     0.015470
      dxy     :     0.023742
      f0      :     0.000498  f :     0.005760
      f+1     :     0.000552
      f-1     :     0.000485
      f+2     :     0.000150
      f-2     :     0.000973
      f+3     :     0.001554
      f-3     :     0.001548

  8 N s       :     2.899903  s :     2.899903
      pz      :     1.331177  p :     3.636957
      px      :     1.146028
      py      :     1.159752
      dz2     :     0.018171  d :     0.218541
      dxz     :     0.041655
      dyz     :     0.017795
      dx2y2   :     0.084327
      dxy     :     0.056593
      f0      :     0.001637  f :     0.015317
      f+1     :     0.002431
      f-1     :     0.000812
      f+2     :     0.001635
      f-2     :     0.002296
      f+3     :     0.003859
      f-3     :     0.002648

  9 C s       :     2.709290  s :     2.709290
      pz      :     1.033728  p :     2.855723
      px      :     0.830652
      py      :     0.991343
      dz2     :     0.143914  d :     0.661603
      dxz     :     0.137054
      dyz     :     0.114015
      dx2y2   :     0.141989
      dxy     :     0.124632
      f0      :     0.013936  f :     0.077416
      f+1     :     0.009219
      f-1     :     0.008664
      f+2     :     0.012548
      f-2     :     0.010064
      f+3     :     0.012652
      f-3     :     0.010333

 10 C s       :     2.823941  s :     2.823941
      pz      :     1.078269  p :     3.153618
      px      :     1.074855
      py      :     1.000494
      dz2     :     0.029955  d :     0.258188
      dxz     :     0.041015
      dyz     :     0.076809
      dx2y2   :     0.057520
      dxy     :     0.052889
      f0      :     0.002753  f :     0.023895
      f+1     :     0.001826
      f-1     :     0.004228
      f+2     :     0.004269
      f-2     :     0.001942
      f+3     :     0.004645
      f-3     :     0.004231

 11 C s       :     2.823928  s :     2.823928
      pz      :     1.020563  p :     3.153158
      px      :     1.056617
      py      :     1.075977
      dz2     :     0.075053  d :     0.258551
      dxz     :     0.058725
      dyz     :     0.030393
      dx2y2   :     0.037388
      dxy     :     0.056992
      f0      :     0.003943  f :     0.023920
      f+1     :     0.004531
      f-1     :     0.004105
      f+2     :     0.003822
      f-2     :     0.002980
      f+3     :     0.002125
      f-3     :     0.002416

 12 C s       :     2.821899  s :     2.821899
      pz      :     1.030574  p :     3.150955
      px      :     1.053707
      py      :     1.066674
      dz2     :     0.080507  d :     0.256403
      dxz     :     0.048618
      dyz     :     0.039748
      dx2y2   :     0.057137
      dxy     :     0.030394
      f0      :     0.003630  f :     0.024123
      f+1     :     0.004886
      f-1     :     0.004355
      f+2     :     0.002555
      f-2     :     0.004417
      f+3     :     0.000814
      f-3     :     0.003467

 13 Cls       :     5.532908  s :     5.532908
      pz      :     3.775855  p :    10.956730
      px      :     3.500073
      py      :     3.680803
      dz2     :     0.016494  d :     0.105326
      dxz     :     0.026979
      dyz     :     0.011480
      dx2y2   :     0.018387
      dxy     :     0.031986
      f0      :     0.001058  f :     0.012239
      f+1     :     0.001831
      f-1     :     0.000980
      f+2     :     0.001227
      f-2     :     0.002439
      f+3     :     0.002205
      f-3     :     0.002499

 14 H s       :     0.795380  s :     0.795380
      pz      :     0.022424  p :     0.061967
      px      :     0.011381
      py      :     0.028163

 15 H s       :     0.786983  s :     0.786983
      pz      :     0.031027  p :     0.062054
      px      :     0.016088
      py      :     0.014940

 16 H s       :     0.791719  s :     0.791719
      pz      :     0.017449  p :     0.062271
      px      :     0.019857
      py      :     0.024965

 17 H s       :     0.666880  s :     0.666880
      pz      :     0.033081  p :     0.103742
      px      :     0.014087
      py      :     0.056574

 18 H s       :     0.806914  s :     0.806914
      pz      :     0.015626  p :     0.061375
      px      :     0.031709
      py      :     0.014041

 19 H s       :     0.813840  s :     0.813840
      pz      :     0.032185  p :     0.065297
      px      :     0.016314
      py      :     0.016798

 20 H s       :     0.809068  s :     0.809068
      pz      :     0.025009  p :     0.061303
      px      :     0.022965
      py      :     0.013329

 21 H s       :     0.806663  s :     0.806663
      pz      :     0.012864  p :     0.061418
      px      :     0.026689
      py      :     0.021865

 22 H s       :     0.814001  s :     0.814001
      pz      :     0.012661  p :     0.064987
      px      :     0.015665
      py      :     0.036662

 23 H s       :     0.808937  s :     0.808937
      pz      :     0.027101  p :     0.061301
      px      :     0.020577
      py      :     0.013624

 24 H s       :     0.812429  s :     0.812429
      pz      :     0.012509  p :     0.061470
      px      :     0.013191
      py      :     0.035769

 25 H s       :     0.813063  s :     0.813063
      pz      :     0.027686  p :     0.061692
      px      :     0.018005
      py      :     0.016000

 26 H s       :     0.805202  s :     0.805202
      pz      :     0.012576  p :     0.060958
      px      :     0.031594
      py      :     0.016788


---------------------------------
LOEWDIN BOND ORDERS (THRESH 0.050000)
---------------------------------
B(  0-C ,  1-C ) :   1.2431 B(  0-C ,  2-C ) :   0.1835 B(  0-C ,  8-N ) :   0.1382 
B(  0-C , 14-H ) :   0.8805 B(  0-C , 15-H ) :   0.8717 B(  0-C , 16-H ) :   0.8756 
B(  1-C ,  2-C ) :   1.6621 B(  1-C ,  3-C ) :   0.2365 B(  1-C ,  6-C ) :   0.1848 
B(  1-C ,  8-N ) :   1.4345 B(  1-C , 13-Cl) :   0.1786 B(  1-C , 14-H ) :   0.0898 
B(  1-C , 15-H ) :   0.0925 B(  1-C , 16-H ) :   0.0911 B(  1-C , 17-H ) :   0.0891 
B(  2-C ,  3-C ) :   1.2665 B(  2-C ,  4-O ) :   0.1886 B(  2-C ,  5-N ) :   0.1382 
B(  2-C ,  6-C ) :   0.0542 B(  2-C ,  8-N ) :   0.2032 B(  2-C , 13-Cl) :   1.6034 
B(  3-C ,  4-O ) :   2.4889 B(  3-C ,  5-N ) :   1.2970 B(  3-C ,  6-C ) :   0.1777 
B(  3-C ,  9-C ) :   0.1238 B(  3-C , 13-Cl) :   0.1450 B(  4-O ,  5-N ) :   0.1583 
B(  5-N ,  6-C ) :   1.3755 B(  5-N ,  7-O ) :   0.1569 B(  5-N ,  8-N ) :   0.1193 
B(  5-N ,  9-C ) :   0.9987 B(  5-N , 10-C ) :   0.0945 B(  5-N , 11-C ) :   0.0939 
B(  5-N , 12-C ) :   0.1016 B(  6-C ,  7-O ) :   2.5092 B(  6-C ,  8-N ) :   1.4159 
B(  6-C ,  9-C ) :   0.1335 B(  6-C , 17-H ) :   0.0920 B(  7-O ,  8-N ) :   0.1767 
B(  8-N , 17-H ) :   0.8167 B(  9-C , 10-C ) :   1.1567 B(  9-C , 11-C ) :   1.1569 
B(  9-C , 12-C ) :   1.1859 B(  9-C , 18-H ) :   0.0811 B(  9-C , 19-H ) :   0.0706 
B(  9-C , 20-H ) :   0.0758 B(  9-C , 21-H ) :   0.0813 B(  9-C , 22-H ) :   0.0709 
B(  9-C , 23-H ) :   0.0756 B(  9-C , 24-H ) :   0.0793 B(  9-C , 25-H ) :   0.0789 
B(  9-C , 26-H ) :   0.0816 B( 10-C , 11-C ) :   0.1591 B( 10-C , 12-C ) :   0.1376 
B( 10-C , 18-H ) :   0.8800 B( 10-C , 19-H ) :   0.8943 B( 10-C , 20-H ) :   0.8926 
B( 11-C , 12-C ) :   0.1392 B( 11-C , 21-H ) :   0.8796 B( 11-C , 22-H ) :   0.8943 
B( 11-C , 23-H ) :   0.8923 B( 12-C , 24-H ) :   0.8936 B( 12-C , 25-H ) :   0.8942 
B( 12-C , 26-H ) :   0.8861 

------------------------------------------
LOEWDIN REDUCED ORBITAL POPULATIONS PER MO
-------------------------------------------
THRESHOLD FOR PRINTING IS 0.1%%
                      0         1         2         3         4         5   
                 -107.15184 -21.66100 -21.65997 -16.59035 -16.58972 -12.20841
                   2.00000   2.00000   2.00000   2.00000   2.00000   2.00000
                  --------  --------  --------  --------  --------  --------
 4 O  s               0.0       0.0      99.7       0.0       0.0       0.0
 5 N  s               0.0       0.0       0.0      88.6      10.9       0.0
 6 C  s               0.0       0.0       0.0       0.0       0.0      99.1
 6 C  dx2y2           0.0       0.0       0.0       0.1       0.0       0.0
 7 O  s               0.0      99.7       0.0       0.0       0.0       0.0
 7 O  dxy             0.0       0.0       0.0       0.0       0.0       0.1
 8 N  s               0.0       0.0       0.0      10.9      88.6       0.0
13 Cl s             100.0       0.0       0.0       0.0       0.0       0.0

                      6         7         8         9        10        11   
                 -12.18256 -12.13977 -12.10934 -12.10743 -12.05566 -12.03070
                   2.00000   2.00000   2.00000   2.00000   2.00000   2.00000
                  --------  --------  --------  --------  --------  --------
 0 C  s               0.0       0.0       0.0       0.0      99.5       0.0
 1 C  s               0.0      98.7       0.0       0.2       0.0       0.0
 1 C  dyz             0.0       0.0       0.0       0.2       0.0       0.0
 1 C  dx2y2           0.0       0.0       0.0       0.1       0.1       0.0
 2 C  s               0.0       0.2       0.1      98.7       0.0       0.0
 2 C  dyz             0.0       0.2       0.0       0.0       0.0       0.0
 2 C  dx2y2           0.1       0.1       0.0       0.0       0.0       0.0
 3 C  s              99.0       0.0       0.0       0.0       0.0       0.0
 4 O  dyz             0.1       0.0       0.0       0.0       0.0       0.0
 9 C  s               0.0       0.0      99.1       0.1       0.0       0.0
10 C  s               0.0       0.0       0.0       0.0       0.0       0.3
11 C  s               0.0       0.0       0.0       0.0       0.0       0.4
12 C  s               0.0       0.0       0.0       0.0       0.0      98.9

                     12        13        14        15        16        17   
                 -12.02845 -12.02801 -11.30466  -9.09639  -9.09357  -9.09352
                   2.00000   2.00000   2.00000   2.00000   2.00000   2.00000
                  --------  --------  --------  --------  --------  --------
10 C  s              16.2      83.1       0.0       0.0       0.0       0.0
11 C  s              83.2      16.0       0.0       0.0       0.0       0.0
12 C  s               0.1       0.5       0.0       0.0       0.0       0.0
13 Cl s               0.0       0.0      99.8       0.0       0.0       0.0
13 Cl pz              0.0       0.0       0.0      13.6      72.9      13.5
13 Cl px              0.0       0.0       0.0      58.3      25.4      16.3
13 Cl py              0.0       0.0       0.0      28.1       1.7      70.2

                     18        19        20        21        22        23   
                  -1.73137  -1.71960  -1.58493  -1.53116  -1.43471  -1.33847
                   2.00000   2.00000   2.00000   2.00000   2.00000   2.00000
                  --------  --------  --------  --------  --------  --------
 0 C  s               0.0       0.0       0.5       0.3       0.5       6.0
 0 C  pz              0.0       0.0       0.0       0.0       0.2       0.1
 0 C  px              0.0       0.0       1.0       0.5       0.2       1.7
 0 C  py              0.0       0.0       0.0       0.0       0.5       0.4
 0 C  dx2y2           0.0       0.0       0.2       0.1       0.0       0.1
 0 C  dxy             0.0       0.0       0.0       0.0       0.1       0.3
 1 C  s               0.3       0.0       7.4       3.1       2.8      14.7
 1 C  pz              0.0       0.0       0.2       0.3       1.4       0.3
 1 C  px              0.4       0.0       4.4       1.1       0.4       0.7
 1 C  py              0.0       0.1       0.8       1.1       3.9       0.7
 1 C  dz2             0.0       0.0       0.4       0.1       0.0       0.0
 1 C  dxz             0.0       0.0       0.2       0.2       0.0       0.3
 1 C  dyz             0.0       0.0       0.3       0.1       0.4       0.2
 1 C  dx2y2           0.0       0.0       0.2       0.0       0.4       0.0
 1 C  dxy             0.0       0.0       0.7       0.6       0.0       1.0
 1 C  f-3             0.0       0.0       0.1       0.1       0.0       0.0
 2 C  s               0.2       0.7       1.7       0.0      17.0       5.1
 2 C  pz              0.0       0.3       0.5       0.1       0.9       2.7
 2 C  px              0.2       1.1       0.3       0.6       5.5       2.0
 2 C  py              0.0       0.5       1.2       0.4       1.8       6.9
 2 C  dz2             0.0       0.0       0.1       0.0       0.4       0.0
 2 C  dxz             0.0       0.2       0.1       0.0       0.5       0.6
 2 C  dyz             0.0       0.1       0.2       0.2       0.6       0.1
 2 C  dx2y2           0.0       0.0       0.0       0.6       0.2       0.2
 2 C  dxy             0.0       0.3       0.1       0.0       1.0       1.5
 2 C  f-2             0.0       0.0       0.0       0.0       0.1       0.0
 2 C  f-3             0.0       0.0       0.0       0.0       0.2       0.0
[...]
 0 C  s               1.8      11.3      83.5       0.1       0.9       0.1
 1 C  s               0.0       0.1       0.6       0.0      13.9       0.0
 1 C  pz              0.0       0.0       0.0       0.0       0.1       0.0
 1 C  px              0.0       0.0       0.2       0.0       0.1       0.0
 1 C  py              0.0       0.0       0.1       0.0       0.3       0.0
 1 C  dxy             0.0       0.0       0.1       0.0       0.1       0.0
 2 C  s               0.2       0.0       0.8       0.1      80.5       0.9
 2 C  px              0.0       0.0       0.0       0.0       0.1       0.0
 3 C  s               0.0       0.1       0.0       0.0       0.0       0.8
 3 C  px              0.0       0.0       0.0       0.0       0.2       0.0
 5 N  s               0.0       0.0       0.0       0.0       0.1       0.1
 5 N  px              0.0       0.0       0.0       0.0       0.0       0.2
 6 C  s               0.0       0.0       0.0       0.0       0.5       0.2
 8 N  s               0.0       0.0       0.0       0.0       0.4       0.0
 9 C  s               0.5       0.1       0.1       0.0       0.8      96.2
 9 C  pz              0.0       0.1       0.0       0.0       0.0       0.0
 9 C  py              0.0       0.0       0.0       0.1       0.0       0.0
10 C  s              43.8       3.2       0.0      51.1       0.0       0.1
11 C  s              47.1       3.4       0.2      47.0       0.4       0.2
12 C  s               5.0      80.1      12.9       0.0       0.1       0.1
13 Cl s               0.0       0.0       0.0       0.0       0.2       0.0
14 H  s               0.0       0.0       0.2       0.0       0.0       0.0
15 H  s               0.0       0.0       0.2       0.0       0.0       0.0
16 H  s               0.0       0.0       0.2       0.0       0.0       0.0
18 H  s               0.1       0.0       0.0       0.1       0.0       0.0
19 H  s               0.1       0.0       0.0       0.1       0.0       0.0
20 H  s               0.1       0.0       0.0       0.2       0.0       0.0
21 H  s               0.1       0.0       0.0       0.1       0.0       0.0
22 H  s               0.2       0.0       0.0       0.1       0.0       0.0
23 H  s               0.1       0.0       0.0       0.2       0.0       0.0
24 H  s               0.0       0.2       0.0       0.0       0.0       0.0
25 H  s               0.0       0.2       0.0       0.0       0.0       0.0
26 H  s               0.0       0.2       0.0       0.0       0.0       0.0

                    510       511       512       513       514       515   
                  21.53485  21.77272  21.90853  24.76259  30.59474  31.07829
                   0.00000   0.00000   0.00000   0.00000   0.00000   0.00000
                  --------  --------  --------  --------  --------  --------
 0 C  s               0.2       0.0       0.0       0.1       0.0       0.0
 1 C  s              64.2      18.1       0.0       0.1       0.1       0.0
 1 C  px              0.3       0.0       0.1       0.1       0.0       0.0
 1 C  py              0.1       0.0       0.0       0.1       0.0       0.0
 2 C  s              11.0       3.5       0.7       0.5       0.0       0.0
 2 C  pz              0.1       0.0       0.0       0.1       0.0       0.0
 2 C  px              0.1       0.0       0.0       0.3       0.0       0.0
 2 C  py              0.4       0.0       0.0       0.2       0.0       0.0
 2 C  dxz             0.0       0.0       0.0       0.2       0.0       0.0
 2 C  dx2y2           0.1       0.0       0.0       0.0       0.0       0.0
 2 C  dxy             0.0       0.1       0.0       0.5       0.0       0.0
 3 C  s              21.3      73.5       0.2       0.0       0.0       0.0
 3 C  px              0.0       0.1       0.0       0.1       0.0       0.0
 3 C  dyz             0.0       0.1       0.0       0.0       0.0       0.0
 4 O  s               0.2       0.7       0.0       0.0       0.0       0.0
 4 O  pz              0.1       0.2       0.0       0.0       0.0       0.0
 4 O  py              0.1       0.3       0.0       0.0       0.0       0.0
 5 N  s               0.0       0.2       0.2       0.0       3.9      95.5
 5 N  pz              0.0       0.1       0.0       0.0       0.0       0.0
 5 N  px              0.0       0.2       0.0       0.0       0.0       0.0
 5 N  py              0.0       0.1       0.4       0.0       0.0       0.0
 5 N  dx2y2           0.0       0.0       0.2       0.0       0.0       0.0
 5 N  dxy             0.0       0.1       0.0       0.0       0.0       0.0
 6 C  s               0.0       0.4      94.0       0.1       0.1       0.1
 6 C  dz2             0.0       0.0       0.2       0.0       0.0       0.0
 7 O  s               0.0       0.0       1.0       0.0       0.0       0.0
 7 O  px              0.0       0.0       0.4       0.0       0.0       0.0
 7 O  py              0.0       0.0       0.3       0.0       0.0       0.0
 8 N  s               0.2       0.1       0.4       0.0      95.5       3.9
 8 N  px              0.2       0.1       0.5       0.0       0.0       0.0
 8 N  dx2y2           0.0       0.0       0.2       0.0       0.0       0.0
 9 C  s               0.1       0.7       0.3       0.0       0.0       0.1
13 Cl s               0.2       0.1       0.1      96.6       0.0       0.0
13 Cl px              0.0       0.0       0.0       0.2       0.0       0.0
13 Cl py              0.0       0.0       0.0       0.1       0.0       0.0

                    516       517   
                  41.61371  41.64169
                   0.00000   0.00000
                  --------  --------
 4 O  s               5.2      94.6
 7 O  s              94.6       5.2


                      *****************************
                      * MAYER POPULATION ANALYSIS *
                      *****************************

  NA   - Mulliken gross atomic population
  ZA   - Total nuclear charge
  QA   - Mulliken gross atomic charge
  VA   - Mayer's total valence
  BVA  - Mayer's bonded valence
  FA   - Mayer's free valence

  ATOM       NA         ZA         QA         VA         BVA        FA
  0 C      6.3864     6.0000    -0.3864     3.8739     3.8739    -0.0000
  1 C      5.7931     6.0000     0.2069     3.8235     3.8235     0.0000
  2 C      6.0982     6.0000    -0.0982     3.7794     3.7794     0.0000
  3 C      5.7323     6.0000     0.2677     4.3212     4.3212    -0.0000
  4 O      8.4728     8.0000    -0.4728     2.0342     2.0342     0.0000
  5 N      7.0391     7.0000    -0.0391     3.1123     3.1123    -0.0000
  6 C      5.6569     6.0000     0.3431     4.3793     4.3793    -0.0000
  7 O      8.4860     8.0000    -0.4860     2.0182     2.0182     0.0000
  8 N      7.2244     7.0000    -0.2244     3.2792     3.2792    -0.0000
  9 C      5.8390     6.0000     0.1610     3.7908     3.7908     0.0000
 10 C      6.4143     6.0000    -0.4143     3.8200     3.8200    -0.0000
 11 C      6.4123     6.0000    -0.4123     3.8149     3.8149    -0.0000
 12 C      6.4201     6.0000    -0.4201     3.8744     3.8744     0.0000
 13 Cl    17.0961    17.0000    -0.0961     1.2239     1.2239     0.0000
 14 H      0.8378     1.0000     0.1622     0.9697     0.9697    -0.0000
 15 H      0.8271     1.0000     0.1729     0.9625     0.9625     0.0000
 16 H      0.8323     1.0000     0.1677     0.9675     0.9675    -0.0000
 17 H      0.7013     1.0000     0.2987     0.9255     0.9255    -0.0000
 18 H      0.8583     1.0000     0.1417     0.9712     0.9712     0.0000
 19 H      0.8561     1.0000     0.1439     0.9882     0.9882    -0.0000
 20 H      0.8592     1.0000     0.1408     0.9744     0.9744    -0.0000
 21 H      0.8579     1.0000     0.1421     0.9712     0.9712    -0.0000
 22 H      0.8566     1.0000     0.1434     0.9877     0.9877     0.0000
 23 H      0.8577     1.0000     0.1423     0.9737     0.9737     0.0000
 24 H      0.8629     1.0000     0.1371     0.9808     0.9808    -0.0000
 25 H      0.8634     1.0000     0.1366     0.9833     0.9833    -0.0000
 26 H      0.8586     1.0000     0.1414     0.9699     0.9699     0.0000

  Mayer bond orders larger than 0.100000
B(  0-C ,  1-C ) :   0.9556 B(  0-C , 14-H ) :   0.9685 B(  0-C , 15-H ) :   0.9474 
B(  0-C , 16-H ) :   0.9602 B(  1-C ,  2-C ) :   1.5798 B(  1-C ,  8-N ) :   1.1920 
B(  2-C ,  3-C ) :   1.1000 B(  2-C , 13-Cl) :   1.1075 B(  3-C ,  4-O ) :   1.9556 
B(  3-C ,  5-N ) :   1.1107 B(  5-N ,  6-C ) :   1.1628 B(  5-N ,  9-C ) :   0.8366 
B(  6-C ,  7-O ) :   1.9321 B(  6-C ,  8-N ) :   1.1697 B(  8-N , 17-H ) :   0.8699 
B(  9-C , 10-C ) :   0.9476 B(  9-C , 11-C ) :   0.9442 B(  9-C , 12-C ) :   0.9836 
B( 10-C , 18-H ) :   0.9691 B( 10-C , 19-H ) :   0.9741 B( 10-C , 20-H ) :   0.9759 
B( 11-C , 21-H ) :   0.9697 B( 11-C , 22-H ) :   0.9739 B( 11-C , 23-H ) :   0.9764 
B( 12-C , 24-H ) :   0.9698 B( 12-C , 25-H ) :   0.9701 B( 12-C , 26-H ) :   0.9730 


-------
TIMINGS
-------

Total SCF time: 0 days 0 hours 9 min 37 sec 

Total time                  ....     577.790 sec
Sum of individual times     ....     571.132 sec  ( 98.8%)

SCF preparation             ....       0.560 sec  (  0.1%)
Fock matrix formation       ....     566.865 sec  ( 98.1%)
  Startup                   ....       0.144 sec  (  0.0% of F)
  Split-RI-J                ....      26.070 sec  (  4.6% of F)
  Chain of spheres X        ....     474.579 sec  ( 83.7% of F)
  XC integration            ....      44.262 sec  (  7.8% of F)
    XC Preparation          ....       0.000 sec  (  0.0% of XC)
    Basis function eval.    ....       9.815 sec  ( 22.2% of XC)
    Density eval.           ....      10.312 sec  ( 23.3% of XC)
    XC-Functional eval.     ....       7.886 sec  ( 17.8% of XC)
    XC-Potential eval.      ....      14.706 sec  ( 33.2% of XC)
  CPCM terms                ....      26.246 sec  (  4.6% of F)
Diagonalization             ....       0.000 sec  (  0.0%)
Density matrix formation    ....       0.725 sec  (  0.1%)
Total Energy calculation    ....       0.146 sec  (  0.0%)
Population analysis         ....       0.402 sec  (  0.1%)
Orbital Transformation      ....       0.244 sec  (  0.0%)
Orbital Orthonormalization  ....       0.000 sec  (  0.0%)
DIIS solution               ....       0.919 sec  (  0.2%)
  MO trafo                  ....       0.000 sec  (  0.0 % of DIIS)
  Orb grad                  ....       0.000 sec  (  0.0 % of DIIS)
  Energy W gradient         ....       0.000 sec  (  0.0 % of DIIS)
  DIIS error                ....       0.068 sec  (  7.4 % of DIIS)
  DIIS work                 ....       0.711 sec  ( 77.4 % of DIIS)
  Form Q                    ....       0.000 sec  (  0.0 % of DIIS)
  Form QpQm                 ....       0.000 sec  (  0.0 % of DIIS)
  Exp/Cayley                ....       0.000 sec  (  0.0 % of DIIS)
  Orb update                ....       0.000 sec  (  0.0 % of DIIS)
  Wake-sleep                ....       0.014 sec  (  1.6 % of DIIS)
SOSCF solution              ....       0.840 sec  (  0.1%)
  MO trafo                  ....       0.351 sec  ( 41.8 % of SOSCF)
  Orb grad                  ....       0.014 sec  (  1.6 % of SOSCF)
  Rot update                ....       0.183 sec  ( 21.7 % of SOSCF)
  Step                      ....       0.292 sec  ( 34.8 % of SOSCF)
Grid generation             ....       0.430 sec  (  0.1%)
Finished LeanSCF after 577.9 sec

Maximum memory used throughout the entire LEANSCF-calculation: 92.3 MB
------------------   -----------------
gCP correction             0.018953227
------------------   -----------------

-------------------------   --------------------
FINAL SINGLE POINT ENERGY     -1070.981336490809
-------------------------   --------------------


------------------------------------------------------------------------------
                              ORCA PROPERTY CALCULATIONS
------------------------------------------------------------------------------

GBWName                                 ... sp_solv.gbw
Number of atoms                         ...     27
Number of basis functions               ...    518
Max core memory                         ...   1024 MB

Electric properties:
Dipole moment                           ... YES
Quadrupole moment                       ...  NO
Static polarizability (Dipole/Dipole)   ...  NO
Static polarizability (Dipole/Quad.)    ...  NO
Static polarizability (Quad./Quad.)     ...  NO
Static polarizability (Velocity)        ...  NO

Atomic electric properties:
Dipole moment                           ...  NO
Quadrupole moment                       ...  NO
Static polarizability                   ...  NO

Choice of electric origin               ... Center of mass
Position of electric origin             ...    -0.074180    -0.199121     0.399097

General magnetic properties:
Magnetizability                         ...  NO

EPR properties:
g-Tensor (aka g-matrix)                 ...  NO
Zero-Field splitting spin-orbit         ...  NO
Zero-field splitting spin-spin          ...  NO
Hyperfine couplings                     ...  NO (   0 nuclei)
Quadrupole couplings                    ...  NO (   0 nuclei)
Contact density                         ...  NO (   0 nuclei)

NMR properties:
Chemical shifts                         ...  NO (   0 nuclei)
Spin-rotation constants                 ...  NO (   0 nuclei)
Spin-spin couplings                     ...  NO (   0 nuclei,    0 pairs)

Choice of magnetic origin               ... GIAO
Position of magnetic origin             ...     0.000000     0.000000     0.000000

Properties with geometric perturbations:
SCF Hessian                             ...  NO
IR spectrum                             ...  NO
VCD spectrum                            ...  NO
X-ray spectroscopy properties:
SCF XES/XAS/RIXS spectra                ...  NO


-------------
DIPOLE MOMENT
-------------

Method             : SCF
Type of density    : Electron Density
Multiplicity       :   1
Irrep              :   0
Energy             : -1071.0002897177091654 Eh
Relativity type    : 
Basis              : AO
                                X                 Y                 Z
Electronic contribution:     18.812193155       0.302412530       5.223501776
Nuclear contribution   :    -17.645632229      -1.785916425      -6.801657369
                        -----------------------------------------
Total Dipole Moment    :      1.166560926      -1.483503894      -1.578155593
                        -----------------------------------------
Magnitude (a.u.)       :      2.460126679
Magnitude (Debye)      :      6.253145072



--------------------
Rotational spectrum 
--------------------
 
Rotational constants in cm-1:             0.033389             0.015863             0.011820 
Rotational constants in MHz :          1000.966486           475.562428           354.352432 

Dipole components along the rotational axes: 
x,y,z [a.u.] :     0.982206    -2.082509    -0.866401 
x,y,z [Debye]:     2.496568    -5.293318    -2.202217 

 

Dipole moment calculation done in   0.0 sec 

Maximum memory used throughout the entire PROP-calculation: 59.6 MB

--------------------------------
SUGGESTED CITATIONS FOR THIS RUN
--------------------------------

Below you find a list of papers that are relevant to this ORCA run
We neither can nor want to force you to cite these papers, but we appreciate if you do
You receive ORCA, which is the product of decades of hard work by many enthusiastic individuals, for free
The only thing we kindly ask in return is that you cite our papers,
We deeply appreciate it, if you show your appreciation for ORCA by not just citing the generic ORCA reference.

Please note that relegating all ORCA citations to the supporting information does *not* help us.
SI sections are not indexed - citations you put there will not count into any citation statistics
But we need these citations in order to attract the funding resources that allow us to do what we are doing

Therefore, if you are a happy ORCA user, please consider citing a few of the papers listed below in the main body of your paper

In addition to the list printed below, the program has created the file sp_solv.bibtex that contains the list in bibtex format
You can import this file easily into all common literature databanks and citation aid programs


List of essential papers. We consider these as the minimum necessary citations

  1. Neese,F.
     Software update: the ORCA program system, version 5.0
     WIRES Comput. Molec. Sci., 2022 12(1)e1606
     doi.org/10.1002/wcms.1606

List of papers to cite with high priority. The work reported in these papers was absolutely
necessary for this run to complete.
Our perspective: the developers of density functionals and basis sets usually get cited in chemistry papers
Good! But without the algorithms to do something with them, the functionals or basis sets would not do anything.
Hence, in our opinion, the algorithm design and method developments papers are equally worthy of getting cited

  1. Neese,F.
     An improvement of the resolution of the identity approximation for the formation of the Coulomb matrix
     J. Comp. Chem., 2003 24(14)1740-1747
     doi.org/10.1002/jcc.10318
  2. Neese,F.; Wennmohs,F.; Hansen,A.; Becker,U.
     Efficient, approximate and parallel Hartree-Fock and hybrid DFT calculations. A 'chain-of-spheres' algorithm for the Hartree-Fock exchange
     Chem. Phys., 2009 356(1-3)98-109
     doi.org/10.1016/j.chemphys.2008.10.036
  3. Garcia-Rates,M.; Neese,F.
     Effect of the Solute Cavity on the Solvation Energy and its Derivatives within the Framework of the Gaussian Charge Scheme
     J. Comput. Chem., 2020 41 922-939
     doi.org/10.1002/jcc.26139
  4. Helmich-Paris,B.; de Souza,B.; Neese,F.; Izsák,R.
     An improved chain of spheres for exchange algorithm
     J. Chem. Phys., 2021 155 104109
     doi.org/doi: 10.1063/5.0058766.
  5. Neese,F.
     The SHARK Integral Generation and Digestion System
     J. Comp. Chem., 2022  1-16
     doi.org/10.1002/jcc.26942

List of suggested additional citations. These are papers that are important in the 'surrounding' of 
of this run, or papers that preceded the highly important papers. If you like your results we are grateful for a citation.

  1. Izsak,R.; Neese,F.
     An overlap fitted chain of spheres exchange method
     J. Chem. Phys., 2011 135 144105
     doi.org/10.1063/1.3646921
  2. Izsak,R.; Hansen,A.; Neese,F.
     The resolution of identity and chain of spheres approximations for the LPNO-CCSD singles Fock term
     Molec. Phys., 2012 110 2413-2417
     doi.org/10.1080/00268976.2012.687466
  3. Neese,F.
     The ORCA program system
     WIRES Comput. Molec. Sci., 2012 2(1)73-78
     doi.org/10.1002/wcms.81
  4. Izsak,R.; Neese,F.; Klopper,W.
     Robust fitting techniques in the chain of spheres approximation to the Fock exchange: The role of the complementary space
     J. Chem. Phys., 2013 139 
     doi.org/10.1063/1.4819264
  5. Neese,F.
     Software update: the ORCA program system, version 4.0
     WIRES Comput. Molec. Sci., 2018 8(1)1-6
     doi.org/10.1002/wcms.1327
  6. Neese,F.; Wennmohs,F.; Becker,U.; Riplinger,C.
     The ORCA quantum chemistry program package
     J. Chem. Phys., 2020 152 Art. No. L224108
     doi.org/10.1063/5.0004608

List of optional additional citations

  1. Neese,F.
     Approximate second-order SCF convergence for spin unrestricted wavefunctions
     Chem. Phys. Lett., 2000 325(1-3)93-98
     doi.org/10.1016/s0009-2614(00)00662-x

Timings for individual modules:

Sum of individual times          ...      583.323 sec (=   9.722 min)
Startup calculation              ...        4.610 sec (=   0.077 min)   0.8 %
SCF iterations                   ...      578.574 sec (=   9.643 min)  99.2 %
Property calculations            ...        0.139 sec (=   0.002 min)   0.0 %
                             ****ORCA TERMINATED NORMALLY****
TOTAL RUN TIME: 0 days 0 hours 9 minutes 44 seconds 36 msec
