      -----------------------------------------------------------      
     |                   =====================                   |     
     |                           x T B                           |     
     |                   =====================                   |     
     |                         S. Grimme                         |     
     |          Mulliken Center for Theoretical Chemistry        |     
     |                    University of Bonn                     |     
      -----------------------------------------------------------      

   * xtb version 6.7.1 (edcfbbe) compiled by 'albert@albert-system' on 2024-07-22

   xtb is free software: you can redistribute it and/or modify it under
   the terms of the GNU Lesser General Public License as published by
   the Free Software Foundation, either version 3 of the License, or
   (at your option) any later version.
   
   xtb is distributed in the hope that it will be useful,
   but WITHOUT ANY WARRANTY; without even the implied warranty of
   MERCHANTABILITY or FITNESS FOR A PARTICULAR PURPOSE.  See the
   GNU Lesser General Public License for more details.
   
   Cite this work as:
   * C. Bannwarth, E. Caldeweyher, S. Ehlert, A. Hansen, P. Pracht,
     J. Seibert, S. Spicher, S. Grimme, WIREs Comput. Mol. Sci., 2020, 11,
     e01493. DOI: 10.1002/wcms.1493
   
   for GFN2-xTB:
   * C. Bannwarth, S. Ehlert and S. Grimme., J. Chem. Theory Comput., 2019,
     15, 1652-1671. DOI: 10.1021/acs.jctc.8b01176
   for GFN1-xTB:
   * S. Grimme, C. Bannwarth, P. Shushkov, J. Chem. Theory Comput., 2017,
     13, 1989-2009. DOI: 10.1021/acs.jctc.7b00118
   for GFN0-xTB:
   * P. Pracht, E. Caldeweyher, S. Ehlert, S. Grimme, ChemRxiv, 2019, preprint.
     DOI: 10.26434/chemrxiv.8326202.v1
   for GFN-FF:
   * S. Spicher and S. Grimme, Angew. Chem. Int. Ed., 2020, 59, 15665-15673.
     DOI: 10.1002/anie.202004239
   
   for ALPB and GBSA implicit solvation:
   * S. Ehlert, M. Stahn, S. Spicher, S. Grimme, J. Chem. Theory Comput.,
     2021, 17, 4250-4261. DOI: 10.1021/acs.jctc.1c00471
   
   for ddCOSMO and CPCM-X implicit solvation:
   * M. Stahn, S. Ehlert, S. Grimme, J. Phys. Chem. A,
     2023, XX, XXXX-XXXX. DOI: 10.1021/acs.jpca.3c04382
   
   for DFT-D4:
   * E. Caldeweyher, C. Bannwarth and S. Grimme, J. Chem. Phys., 2017,
     147, 034112. DOI: 10.1063/1.4993215
   * E. Caldeweyher, S. Ehlert, A. Hansen, H. Neugebauer, S. Spicher,
     C. Bannwarth and S. Grimme, J. Chem. Phys., 2019, 150, 154122.
     DOI: 10.1063/1.5090222
   * E. Caldeweyher, J.-M. Mewes, S. Ehlert and S. Grimme, Phys. Chem. Chem. Phys.
     2020, 22, 8499-8512. DOI: 10.1039/D0CP00502A
   
   for sTDA-xTB:
   * S. Grimme and C. Bannwarth, J. Chem. Phys., 2016, 145, 054103.
     DOI: 10.1063/1.4959605
   
   in the mass-spec context:
   * V. Asgeirsson, C. Bauer and S. Grimme, Chem. Sci., 2017, 8, 4879.
     DOI: 10.1039/c7sc00601b
   * J. Koopman and S. Grimme, ACS Omega 2019, 4, 12, 15120-15133.
     DOI: 10.1021/acsomega.9b02011
   
   for metadynamics refer to:
   * S. Grimme, J. Chem. Theory Comput., 2019, 155, 2847-2862
     DOI: 10.1021/acs.jctc.9b00143
   
   for SPH calculations refer to:
   * S. Spicher and S. Grimme, J. Chem. Theory Comput., 2021, 17, 1701-1714
     DOI: 10.1021/acs.jctc.0c01306
   
   for ONIOM refer to:
   * C. Plett, A. Katbashev, S. Ehlert, S. Grimme, M. Bursch,
     Phys. Chem. Chem. Phys., 2023, 25, 17860-17868. DOI: 10.1039/D3CP02178E
   
   for DIPRO refer to:
   * J. Kohn, N. Gildemeister, S. Grimme, D. Fazzi, A. Hansen,
     J. Chem. Phys., 2023, just accepted.
   
   for PTB refer to:
   * S. Grimme, M. Mueller, A. Hansen, J. Chem. Phys., 2023, 158, 124111.
     DOI: 10.1063/5.0137838
   
   with help from (in alphabetical order)
   P. Atkinson, C. Bannwarth, F. Bohle, G. Brandenburg, E. Caldeweyher
   M. Checinski, S. Dohm, S. Ehlert, S. Ehrlich, I. Gerasimov, C. Hölzer
   A. Katbashev, J. Kohn, J. Koopman, C. Lavigne, S. Lehtola, F. März, M. Müller,
   F. Musil, H. Neugebauer, J. Pisarek, C. Plett, P. Pracht, F. Pultar,
   J. Seibert, P. Shushkov, S. Spicher, M. Stahn, M. Steiner, T. Strunk,
   J. Stückrath, T. Rose, and J. Unsleber
   
 * started run on 2025/04/09 at 05:20:51.026     
   ID    Z sym.   atoms
    1    6 C      1, 2, 7, 8, 10, 15, 16, 18, 19
    2    8 O      3, 6, 14, 17
    3   15 P      4, 12
    4   16 S      5, 9, 11, 13
    5    1 H      20-41

           -------------------------------------------------
          |                Calculation Setup                |
           -------------------------------------------------

          program call               : /srv/scratch/z5358697/.xtb/bin/xtb solv.coord --gfn2 --sp --chrg 0 --norestart --parallel 1 --alpb water reference -I xtb_sp-xcontrol-inp
          hostname                   : k163
          coordinate file            : solv.coord
          omp threads                :                     1


           -------------------------------------------------
          |                 G F N 2 - x T B                 |
           -------------------------------------------------

        Reference                      10.1021/acs.jctc.8b01176
      * Hamiltonian:
        H0-scaling (s, p, d)           1.850000    2.230000    2.230000
        zeta-weighting                 0.500000
      * Dispersion:
        s8                             2.700000
        a1                             0.520000
        a2                             5.000000
        s9                             5.000000
      * Repulsion:
        kExp                           1.500000    1.000000
        rExp                           1.000000
      * Coulomb:
        alpha                          2.000000
        third order                    shell-resolved
        anisotropic                    true
        a3                             3.000000
        a5                             4.000000
        cn-shift                       1.200000
        cn-exp                         4.000000
        max-rad                        5.000000

      * Solvation model:               ALPB
        Solvent                        water
        Parameter file                 internal GFN2-xTB/ALPB
        Dielectric constant                8.0200E+01
        Reference state                gsolv=reference [X=1]
        Free energy shift                  2.8945E-03 Eh       1.8164E+00 kcal/mol
        Temperature                        2.9815E+02 K
        Density                            1.0000E+00 kg/L
        Solvent mass                       1.8000E+01 g/mol
        Interaction kernel             P16
        Born radius scaling (c1)           1.4744E+00
        Born radii integrator          GBOBC
        Born offset                        0.0000E+00 a0       0.0000E+00 AA
        H-bond correction              true
        Ion screening                  false
        Surface tension                    1.0000E-05 Eh       1.5569E+01 dyn/cm
        Grid points                               974 per atom

          ...................................................
          :                      SETUP                      :
          :.................................................:
          :  # basis functions                 134          :
          :  # atomic orbitals                 128          :
          :  # shells                           66          :
          :  # electrons                       116          :
          :  max. iterations                   250          :
          :  Hamiltonian                  GFN2-xTB          :
          :  restarted?                      false          :
          :  GBSA solvation                   true          :
          :  PC potential                    false          :
          :  electronic temp.          300.0000000     K    :
          :  accuracy                    1.0000000          :
          :  -> integral cutoff          0.2500000E+02      :
          :  -> integral neglect         0.1000000E-07      :
          :  -> SCF convergence          0.1000000E-05 Eh   :
          :  -> wf. convergence          0.1000000E-03 e    :
          :  Broyden damping             0.4000000          :
          :  net charge                          0          :
          :  unpaired electrons                  0          :
          ...................................................

 iter      E             dE          RMSdq      gap      omega  full diag
   1    -65.4446172 -0.654446E+02  0.641E+00    4.12       0.0  T
   2    -65.5659453 -0.121328E+00  0.368E+00    3.54       1.0  T
   3    -65.5854879 -0.195426E-01  0.106E+00    3.03       1.0  T
   4    -65.5881883 -0.270039E-02  0.499E-01    2.98       1.0  T
   5    -65.5888179 -0.629588E-03  0.263E-01    3.03       1.0  T
   6    -65.5890037 -0.185812E-03  0.125E-01    3.03       1.0  T
   7    -65.5890627 -0.589705E-04  0.453E-02    3.04       1.0  T
   8    -65.5890671 -0.439681E-05  0.184E-02    3.04       1.0  T
   9    -65.5890681 -0.103493E-05  0.568E-03    3.04       2.8  T
  10    -65.5890681 -0.438445E-07  0.293E-03    3.04       5.3  T
  11    -65.5890682 -0.377103E-07  0.979E-04    3.04      16.0  T
  12    -65.5890682 -0.200647E-08  0.472E-04    3.04      33.1  T

   *** convergence criteria satisfied after 12 iterations ***

         #    Occupation            Energy/Eh            Energy/eV
      -------------------------------------------------------------
         1        2.0000           -0.7676485             -20.8888
       ...           ...                  ...                  ...
        52        2.0000           -0.4446226             -12.0988
        53        2.0000           -0.4231920             -11.5156
        54        2.0000           -0.4143665             -11.2755
        55        2.0000           -0.3964862             -10.7889
        56        2.0000           -0.3945963             -10.7375
        57        2.0000           -0.3928172             -10.6891
        58        2.0000           -0.3910001             -10.6397 (HOMO)
        59                         -0.2791915              -7.5972 (LUMO)
        60                         -0.2557025              -6.9580
        61                         -0.2164551              -5.8900
        62                         -0.1884572              -5.1282
        63                         -0.1782363              -4.8501
       ...                                ...                  ...
       128                          1.2943869              35.2221
      -------------------------------------------------------------
                  HL-Gap            0.1118086 Eh            3.0425 eV
             Fermi-level           -0.3350958 Eh           -9.1184 eV

 SCC (total)                   0 d,  0 h,  0 min,  0.060 sec
 SCC setup                      ...        0 min,  0.003 sec (  4.293%)
 Dispersion                     ...        0 min,  0.000 sec (  0.507%)
 classical contributions        ...        0 min,  0.000 sec (  0.103%)
 integral evaluation            ...        0 min,  0.012 sec ( 19.423%)
 iterations                     ...        0 min,  0.024 sec ( 40.582%)
 molecular gradient             ...        0 min,  0.021 sec ( 34.704%)
 printout                       ...        0 min,  0.000 sec (  0.356%)

         :::::::::::::::::::::::::::::::::::::::::::::::::::::
         ::                     SUMMARY                     ::
         :::::::::::::::::::::::::::::::::::::::::::::::::::::
         :: total energy             -65.026793776808 Eh    ::
         :: total w/o Gsasa/hb       -65.030253146104 Eh    ::
         :: gradient norm              0.000181540780 Eh/a0 ::
         :: HOMO-LUMO gap              3.042467663471 eV    ::
         ::.................................................::
         :: SCC energy               -65.588189726946 Eh    ::
         :: -> isotropic ES            0.122764838247 Eh    ::
         :: -> anisotropic ES         -0.014276580497 Eh    ::
         :: -> anisotropic XC          0.030490803152 Eh    ::
         :: -> dispersion             -0.052214236097 Eh    ::
         :: -> Gsolv                  -0.020067778756 Eh    ::
         ::    -> Gelec               -0.023527148053 Eh    ::
         ::    -> Gsasa                0.004453606067 Eh    ::
         ::    -> Ghb                 -0.003888785930 Eh    ::
         ::    -> Gshift               0.002894549160 Eh    ::
         :: repulsion energy           0.561395950138 Eh    ::
         :: add. restraining           0.000000000000 Eh    ::
         :: total charge              -0.000000000000 e     ::
         :::::::::::::::::::::::::::::::::::::::::::::::::::::

           -------------------------------------------------
          |                Property Printout                |
           -------------------------------------------------

    * Orbital Energies and Occupations

         #    Occupation            Energy/Eh            Energy/eV
      -------------------------------------------------------------
         1        2.0000           -0.7676485             -20.8888
       ...           ...                  ...                  ...
        46        2.0000           -0.4681369             -12.7387
        47        2.0000           -0.4634411             -12.6109
        48        2.0000           -0.4596740             -12.5084
        49        2.0000           -0.4569378             -12.4339
        50        2.0000           -0.4545479             -12.3689
        51        2.0000           -0.4476821             -12.1821
        52        2.0000           -0.4446226             -12.0988
        53        2.0000           -0.4231920             -11.5156
        54        2.0000           -0.4143665             -11.2755
        55        2.0000           -0.3964862             -10.7889
        56        2.0000           -0.3945963             -10.7375
        57        2.0000           -0.3928172             -10.6891
        58        2.0000           -0.3910001             -10.6397 (HOMO)
        59                         -0.2791915              -7.5972 (LUMO)
        60                         -0.2557025              -6.9580
        61                         -0.2164551              -5.8900
        62                         -0.1884572              -5.1282
        63                         -0.1782363              -4.8501
        64                         -0.1764780              -4.8022
        65                         -0.1705101              -4.6398
        66                         -0.1551847              -4.2228
        67                         -0.1386561              -3.7730
        68                         -0.1234990              -3.3606
        69                         -0.0549934              -1.4964
       ...                                ...                  ...
       128                          1.2943869              35.2221
      -------------------------------------------------------------
                  HL-Gap            0.1118086 Eh            3.0425 eV
             Fermi-level           -0.3350958 Eh           -9.1184 eV

     #   Z          covCN         q      C6AA      α(0)
     1   6 C        3.752    -0.133    23.125     6.858
     2   6 C        3.876     0.084    19.144     6.221
     3   8 O        1.655    -0.256    18.253     5.767
     4  15 P        3.904     0.376   144.622    21.603
     5  16 S        0.926    -0.466   159.790    21.381
     6   8 O        1.654    -0.258    18.290     5.773
     7   6 C        3.880     0.078    19.242     6.237
     8   6 C        3.751    -0.127    23.005     6.840
     9  16 S        2.022    -0.155   147.585    20.447
    10   6 C        3.830     0.044    19.819     6.334
    11  16 S        2.021    -0.158   147.735    20.457
    12  15 P        3.823     0.369   144.857    21.620
    13  16 S        0.926    -0.448   158.914    21.322
    14   8 O        1.655    -0.253    18.204     5.760
    15   6 C        3.826     0.068    19.419     6.270
    16   6 C        3.751    -0.127    23.009     6.841
    17   8 O        1.654    -0.258    18.293     5.774
    18   6 C        3.851     0.084    19.151     6.224
    19   6 C        3.751    -0.132    23.101     6.854
    20   1 H        0.925     0.072     2.062     2.246
    21   1 H        0.925     0.076     2.025     2.225
    22   1 H        0.925     0.084     1.937     2.176
    23   1 H        0.924     0.060     2.202     2.321
    24   1 H        0.924     0.060     2.196     2.317
    25   1 H        0.924     0.068     2.104     2.268
    26   1 H        0.924     0.090     1.882     2.145
    27   1 H        0.925     0.055     2.258     2.350
    28   1 H        0.925     0.087     1.906     2.159
    29   1 H        0.925     0.073     2.051     2.240
    30   1 H        0.925     0.096     1.819     2.109
    31   1 H        0.925     0.099     1.790     2.092
    32   1 H        0.924     0.099     1.790     2.092
    33   1 H        0.924     0.075     2.030     2.228
    34   1 H        0.925     0.055     2.255     2.348
    35   1 H        0.925     0.066     2.126     2.280
    36   1 H        0.925     0.087     1.912     2.162
    37   1 H        0.924     0.080     1.977     2.199
    38   1 H        0.924     0.061     2.182     2.310
    39   1 H        0.925     0.070     2.089     2.260
    40   1 H        0.925     0.087     1.906     2.159
    41   1 H        0.925     0.067     2.123     2.279

 Mol. C6AA /au·bohr⁶  :      26390.398782
 Mol. C8AA /au·bohr⁸  :     862599.036056
 Mol. α(0) /au        :        257.549503


Wiberg/Mayer (AO) data.
largest (>0.10) Wiberg bond orders for each atom

 ---------------------------------------------------------------------------
     #   Z sym  total        # sym  WBO       # sym  WBO       # sym  WBO
 ---------------------------------------------------------------------------
     1   6 C    3.981 --     2 C    1.018    20 H    0.983    21 H    0.982
                            22 H    0.976
     2   6 C    3.892 --     1 C    1.018    23 H    0.972    24 H    0.966
                             3 O    0.885
     3   8 O    2.407 --     4 P    1.324     2 C    0.885
     4  15 P    5.299 --     5 S    1.513     6 O    1.328     3 O    1.324
                             9 S    0.990
     5  16 S    1.842 --     4 P    1.513     9 S    0.134
     6   8 O    2.398 --     4 P    1.328     7 C    0.871
     7   6 C    3.885 --     8 C    1.024    25 H    0.966    26 H    0.965
                             6 O    0.871
     8   6 C    3.986 --     7 C    1.024    29 H    0.982    27 H    0.975
                            28 H    0.975
     9  16 S    2.290 --     4 P    0.990    10 C    0.985     5 S    0.134
    10   6 C    3.951 --    11 S    0.991     9 S    0.985    31 H    0.953
                            30 H    0.953
    11  16 S    2.276 --    10 C    0.991    12 P    0.943    13 S    0.138
    12  15 P    5.314 --    13 S    1.542    17 O    1.352    14 O    1.334
                            11 S    0.943
    13  16 S    1.864 --    12 P    1.542    11 S    0.138
    14   8 O    2.415 --    12 P    1.334    15 C    0.882
    15   6 C    3.886 --    16 C    1.024    33 H    0.967    32 H    0.963
                            14 O    0.882
    16   6 C    3.987 --    15 C    1.024    35 H    0.982    36 H    0.975
                            34 H    0.974
    17   8 O    2.410 --    12 P    1.352    18 C    0.869
    18   6 C    3.888 --    19 C    1.020    37 H    0.968    38 H    0.965
                            17 O    0.869
    19   6 C    3.984 --    18 C    1.020    39 H    0.983    41 H    0.981
                            40 H    0.975
    20   1 H    0.995 --     1 C    0.983
    21   1 H    0.994 --     1 C    0.982
    22   1 H    0.991 --     1 C    0.976
    23   1 H    0.996 --     2 C    0.972
    24   1 H    0.996 --     2 C    0.966
    25   1 H    0.995 --     7 C    0.966
    26   1 H    0.991 --     7 C    0.965
    27   1 H    0.997 --     8 C    0.975
    28   1 H    0.991 --     8 C    0.975
    29   1 H    0.995 --     8 C    0.982
    30   1 H    0.990 --    10 C    0.953
    31   1 H    0.990 --    10 C    0.953
    32   1 H    0.990 --    15 C    0.963
    33   1 H    0.994 --    15 C    0.967
    34   1 H    0.997 --    16 C    0.974
    35   1 H    0.996 --    16 C    0.982
    36   1 H    0.992 --    16 C    0.975
    37   1 H    0.994 --    18 C    0.968
    38   1 H    0.996 --    18 C    0.965
    39   1 H    0.995 --    19 C    0.983
    40   1 H    0.991 --    19 C    0.975
    41   1 H    0.996 --    19 C    0.981
 ---------------------------------------------------------------------------

Topologies differ in total number of bonds
Writing topology from bond orders to xtbtopo.mol

molecular dipole:
                 x           y           z       tot (Debye)
 q only:        0.277      -1.597       2.702
   full:        0.215      -1.949       2.566       8.207
molecular quadrupole (traceless):
                xx          xy          yy          xz          yz          zz
 q only:        8.895     -22.550      -0.651     -30.733      -6.763      -8.244
  q+dip:        8.338     -18.857       1.275     -31.638      -5.849      -9.613
   full:        8.649     -19.831       0.053     -31.939      -6.141      -8.702


           -------------------------------------------------
          | TOTAL ENERGY              -65.026793776808 Eh   |
          | GRADIENT NORM               0.000181540780 Eh/α |
          | HOMO-LUMO GAP               3.042467663471 eV   |
           -------------------------------------------------

------------------------------------------------------------------------
 * finished run on 2025/04/09 at 05:20:51.176     
------------------------------------------------------------------------
 total:
 * wall-time:     0 d,  0 h,  0 min,  0.149 sec
 *  cpu-time:     0 d,  0 h,  0 min,  0.070 sec
 * ratio c/w:     0.470 speedup
 SCF:
 * wall-time:     0 d,  0 h,  0 min,  0.061 sec
 *  cpu-time:     0 d,  0 h,  0 min,  0.056 sec
 * ratio c/w:     0.930 speedup

