38
 energy: -1981.480834721023 gnorm: 0.001976349610 xtb: 6.7.1 (edcfbbe)
C            3.93373420471457       -3.88945102403178       -1.82631988573913
C            2.65871942541976       -3.16219731727358       -2.18554050981946
O            2.54326857883602       -1.90754127800411       -1.43794792370923
C            2.07019228648693       -1.98358567574022       -0.18583443387820
O            1.74061110220364       -3.02101772681466        0.36109669918229
C            2.00834428876730       -0.62780419894110        0.46817272916645
C            1.19210474561916        0.37584142527611       -0.34541091119997
H            1.71016677217382        0.59834491459467       -1.28843232086945
C            1.08259094250273        1.71284419919104        0.37464157369747
O            1.85688263039823        2.04082729947678        1.25379835856054
O            0.12411473382466        2.49021985639419       -0.11987109041138
C           -0.01251835628242        3.81714943007271        0.49371103262222
C           -1.17686424955069        4.49971362467966       -0.17352777245492
S           -0.41374497820232       -0.33643469268345       -0.95084289538005
P           -1.76077870717363       -0.09085693970377        0.67423844141462
S           -0.99523911427553        0.06200841049301        2.44986829407456
O           -2.71564681102283        1.15494993298020        0.34659520019513
C           -3.29189500028827        1.35174560309155       -0.97818222832338
O           -2.76295256785098       -1.32052426193842        0.38169803586724
C           -2.35087811702984       -2.68105177491704        0.69356070889294
H            3.93598597906091       -4.20031507805280       -0.77841522809905
H            4.01764511286507       -4.78465244959322       -2.45036015872727
H            4.80666721664302       -3.25748808630615       -2.01364542906367
H            1.76803112372354       -3.76536347831513       -1.99150072012692
H            2.65871402321956       -2.84310017223819       -3.22920264193911
H            3.03084821670495       -0.24539582322412        0.56555597867599
H            1.58475749915001       -0.75063743256317        1.46511530628742
H           -0.17589406464200        3.67511272196564        1.56609258546623
H            0.92720861490594        4.35591944616600        0.34183373376471
H           -1.00957708511762        4.60830841275769       -1.24895686303359
H           -2.10630630222565        3.94790618023011       -0.00822305442717
H           -1.29016541258685        5.49862522117414        0.25848506626931
H           -4.04276663229204        2.13217807513334       -0.85499076613501
H           -3.76468501274519        0.43384800154562       -1.33561292459967
H           -2.51543501858503        1.68206234692506       -1.67247553852056
H           -1.41270153276682       -2.92553705978889        0.18628434973806
H           -3.15230294660384       -3.32116507895509        0.32519688818493
H           -2.23994140679548       -2.79596031493555        1.77461574935878
38
 energy: -1981.480845544076 gnorm: 0.000988026511 xtb: 6.7.1 (edcfbbe)
C            3.93400962545382       -3.88857066259490       -1.82793515262029
C            2.65800376808373       -3.16331365862418       -2.18552622862804
O            2.54228748928299       -1.90764560834446       -1.43776803078561
C            2.07159961075673       -1.98448111084927       -0.18425379276516
O            1.74146896447306       -3.02242218788758        0.36217082945603
C            2.00722528371346       -0.62913100869840        0.47008810386757
C            1.19292124536722        0.37559842842655       -0.34451746795013
H            1.71262743133944        0.59556735337540       -1.28715812936726
C            1.08554636239672        1.71333295475692        0.37386861043546
O            1.86106164303130        2.04235899415800        1.25182089134264
O            0.12484694288208        2.48996046693695       -0.11909484408502
C           -0.01341904561746        3.81644009443476        0.49536461743379
C           -1.17743849506388        4.49775834388221       -0.17392052929476
S           -0.41341576194112       -0.33513606615657       -0.95060870716097
P           -1.76154664992944       -0.08934875912191        0.67368332279863
S           -0.99454594244528        0.06427542858490        2.44875473481659
O           -2.71718080622726        1.15592031595450        0.34661814432317
C           -3.29297973388596        1.35352495938483       -0.97902830207754
O           -2.76354012412365       -1.31915789741103        0.38172900280218
C           -2.34988849072337       -2.67981716521690        0.69376807248075
H            3.93820828251869       -4.19901625009161       -0.78002486190768
H            4.01832644284053       -4.78378676226920       -2.45210142855044
H            4.80580670934487       -3.25579424705814       -2.01690256310562
H            1.76811428581254       -3.76667844378100       -1.99005796645664
H            2.65649357481100       -2.84480865761794       -3.22925056820249
H            3.02948971348885       -0.24672925130865        0.56869873577673
H            1.58245722356718       -0.75291144219760        1.46623985178770
H           -0.17803965239256        3.67325063662238        1.56735291812031
H            0.92562541854805        4.35652662628814        0.34474204813141
H           -1.00845104226057        4.60365014471593       -1.24921639254592
H           -2.10667825642041        3.94555827485357       -0.00896596537505
H           -1.29175995321072        5.49751520363553        0.25545567068512
H           -4.04446761739836        2.13319163413324       -0.85586459351697
H           -3.76531329128488        0.43531337440775       -1.33677394230148
H           -2.51659603355105        1.68438728082901       -1.67306341826364
H           -1.41090375882803       -2.92263080219952        0.18714416370088
H           -3.15024777704826       -3.32097872759422        0.32486508723305
H           -2.23941214804691       -2.79425073476706        1.77495259320219
38
 energy: -1981.480854467494 gnorm: 0.001979175104 xtb: 6.7.1 (edcfbbe)
C            3.93530902690464       -3.88606733377587       -1.83130239945746
C            2.65640640493030       -3.16584618231001       -2.18539762564326
O            2.53821447956712       -1.90820267787229       -1.43785810005020
C            2.06877301953806       -1.98636824085883       -0.18322050518202
O            1.74497551715419       -3.02600202043965        0.36437276255141
C            2.00457860387653       -0.63265994087598        0.47386070779986
C            1.19352231473570        0.37399043312989       -0.34236635961087
H            1.71640268874650        0.59013171937815       -1.28412981464963
C            1.08896465358359        1.71216448497102        0.37458948625259
O            1.86966489835363        2.04474959128151        1.24678528109466
O            0.12529792418946        2.48783509098312       -0.11618658162350
C           -0.01538695154511        3.81396263842465        0.49878865870498
C           -1.17849428943320        4.49278673478366       -0.17518127143694
S           -0.41389235635011       -0.33159204669892       -0.95201775846917
P           -1.76126908931731       -0.08470184083055        0.67266295860806
S           -0.99579693568332        0.07076464502457        2.44851244813998
O           -2.71888221447155        1.15896402465263        0.34566864518938
C           -3.29463252476644        1.35712397793140       -0.98122364812223
O           -2.76257647604034       -1.31507219977621        0.38167802269217
C           -2.34615337108359       -2.67585344579725        0.69455516137142
H            3.94444989722082       -4.19587099603829       -0.78332672282931
H            4.02057629266853       -4.78132659583146       -2.45555860243631
H            4.80426514457304       -3.25078106519853       -2.02428873638515
H            1.76847797279450       -3.77045051523246       -1.98656964561417
H            2.65081208957331       -2.84754649900943       -3.22909798779078
H            3.02673496606729       -0.25072075398854        0.57535307438084
H            1.57755850769577       -0.75851251151052        1.46859022520194
H           -0.18333949919251        3.66921427035729        1.57004266880509
H            0.92283519964518        4.35613100774510        0.35140685604301
H           -1.00620409627952        4.59257155667740       -1.25045691835493
H           -2.10774804192146        3.94061647697066       -0.01042981592993
H           -1.29447893491462        5.49467859313529        0.24829581803756
H           -4.04724465394853        2.13545331799203       -0.85729913259089
H           -3.76578137325278        0.43827438518890       -1.33932730162769
H           -2.51812778995355        1.68942121071582       -1.67422455676848
H           -1.40535828369278       -2.91558799331263        0.18994868056796
H           -3.14423305227006       -3.31868259489988        0.32365912317488
H           -2.23792085803139       -2.78947935684764        1.77602496646120
38
 energy: -1981.480860756154 gnorm: 0.001320866329 xtb: 6.7.1 (edcfbbe)
C            3.93591631865485       -3.88445325303763       -1.83315351351280
C            2.65489349594713       -3.16652597376488       -2.18519520402827
O            2.53670548640702       -1.90927839816655       -1.43709871552075
C            2.06941403010381       -1.98831701458895       -0.18204214677022
O            1.74604285319487       -3.02803457073170        0.36498961972371
C            2.00341007455710       -0.63454528271199        0.47488274530983
C            1.19497305257133        0.37350572793941       -0.34210659014727
H            1.71898941406152        0.58957668936740       -1.28324912422011
C            1.09046189603768        1.71208919714916        0.37399812596328
O            1.87083409482620        2.04469273073304        1.24617696843451
O            0.12554585107219        2.48662315481188       -0.11518704567823
C           -0.01639852226917        3.81242439863188        0.49975316984148
C           -1.17894864602564        4.49073787698832       -0.17574885551186
S           -0.41318011475565       -0.33025871495607       -0.95117221270640
P           -1.76199821669425       -0.08278711484765        0.67219932274304
S           -0.99459442491966        0.07385345690414        2.44700255082316
O           -2.71946780547993        1.16071838156187        0.34415626399995
C           -3.29508206254272        1.35815839145045       -0.98260505506158
O           -2.76283035655707       -1.31392069480814        0.38245324313809
C           -2.34463343721812       -2.67398033613312        0.69542823257407
H            3.94776349337991       -4.19424304650643       -0.78509921267863
H            4.02140171887803       -4.77976433927148       -2.45718133660748
H            4.80359158367929       -3.24770062022992       -2.02790607318000
H            1.76829723384474       -3.77276362328203       -1.98429977016060
H            2.64646750371785       -2.84758397803904       -3.22878083485231
H            3.02565581606550       -0.25338899659284        0.57951186272499
H            1.57377379025449       -0.76044660126422        1.46863373937850
H           -0.18562616254716        3.66772585830721        1.57088382099462
H            0.92204782844791        4.35470782149559        0.35375767071972
H           -1.00622431521043        4.58892383739328       -1.25123512399996
H           -2.10854096111847        3.93928820389625       -0.01054903431182
H           -1.29477488902591        5.49338018382367        0.24617597100670
H           -4.04781900544338        2.13645786682280       -0.85837691297879
H           -3.76552300749647        0.43917288790815       -1.34071949959233
H           -2.51817869620915        1.69095437930282       -1.67491302258132
H           -1.40308072565392       -2.91237702055097        0.19165469033583
H           -3.14151632906328       -3.31753026054362        0.32338977580283
H           -2.23746716733325       -2.78758841205668        1.77693120274375
38
 energy: -1981.480866187797 gnorm: 0.001266015662 xtb: 6.7.1 (edcfbbe)
C            3.93695899440410       -3.88132521144905       -1.83689658565862
C            2.65221846808122       -3.16705093595059       -2.18448297370909
O            2.53294144798301       -1.91090258665977       -1.43572932407656
C            2.06939850743306       -1.99123110418108       -0.17994964859016
O            1.74843981483576       -3.03138484297317        0.36733690450685
C            2.00035363829065       -0.63717855437554        0.47659628922645
C            1.19484159242158        0.37191162466721       -0.34147550673103
H            1.72036091526888        0.58828387989047       -1.28169724267127
C            1.09070951784940        1.71088584347395        0.37431445798268
O            1.87191568352721        2.04355374402015        1.24577947359686
O            0.12513883798303        2.48438023919810       -0.11317467603140
C           -0.01769295157069        3.81002145282713        0.50089308452124
C           -1.17918122427203        4.48817018127420       -0.17649848709351
S           -0.41230564986775       -0.33177431077826       -0.95281962673887
P           -1.76047310320797       -0.07948885664978        0.67122024516776
S           -0.99567622435156        0.07936344944356        2.44695617703781
O           -2.71804018376178        1.16344185871378        0.34152896163281
C           -3.29416563720102        1.35952931095359       -0.98467886099408
O           -2.76101066420141       -1.31149873731875        0.38320826844315
C           -2.34161483208064       -2.67059984728190        0.69694904361358
H            3.95300443884274       -4.19059009876088       -0.78865235783643
H            4.02307406942877       -4.77682016879773       -2.46043675697047
H            4.80218231694165       -3.24193343818242       -2.03443815110500
H            1.76857315084179       -3.77693772449553       -1.98054682650627
H            2.63911594509508       -2.84821810965875       -3.22809351330983
H            3.02273749269802       -0.25739793627481        0.58589886547093
H            1.56702751013621       -0.76319173437982        1.46890442696604
H           -0.18878272591133        3.66600613164320        1.57191078206665
H            0.92124969892435        4.35199722034669        0.35660296443034
H           -1.00629897758180        4.58425206689550       -1.25223052372567
H           -2.10944882499939        3.93817641274029       -0.01037571060718
H           -1.29411249338743        5.49177280367142        0.24353687491376
H           -4.04764565487030        2.13727515791198       -0.86086440263520
H           -3.76365279316046        0.44022641879301       -1.34268977094130
H           -2.51794735233739        1.69315858964458       -1.67739067183617
H           -1.39857555737872       -2.90771713297317        0.19535354892588
H           -3.13654346639330       -3.31537277441328        0.32291466031173
H           -2.23677010740816       -2.78430189251858        1.77862853808015
38
 energy: -1981.480870952635 gnorm: 0.000908387445 xtb: 6.7.1 (edcfbbe)
C            3.93813945046708       -3.87767469254042       -1.84082935119182
C            2.64963516519389       -3.16750301143775       -2.18370061640595
O            2.52834089107050       -1.91231523052495       -1.43478404581428
C            2.06691431545464       -1.99340880576737       -0.17852452987751
O            1.75125562549411       -3.03436759901991        0.37062532587876
C            1.99844006993483       -0.63947256177070        0.47883171631305
C            1.19631663428536        0.37071096375969       -0.34066170820149
H            1.72295019188714        0.58687273758978       -1.28033704907335
C            1.09174668678040        1.70964184119731        0.37561310979158
O            1.87414558834162        2.04304135282722        1.24585292438484
O            0.12545855581351        2.48201757036354       -0.11143267850005
C           -0.01840605536486        3.80774109304967        0.50162064660924
C           -1.17899081409487        4.48581816370274       -0.17725050455814
S           -0.41188233989435       -0.33026105555309       -0.95150840495877
P           -1.76166122545081       -0.07745910203738        0.67084225651381
S           -0.99564436946713        0.08420260512597        2.44591037087181
O           -2.71835065548675        1.16543019257853        0.33898646567376
C           -3.29337704580952        1.36072563133453       -0.98739013394920
O           -2.76186072675536       -1.31028127124929        0.38442577824360
C           -2.34013346023560       -2.66816167826967        0.69876491613287
H            3.95866194445102       -4.18608248788616       -0.79240266219436
H            4.02493795069815       -4.77326184687126       -2.46411521638899
H            4.80046772419279       -3.23545504772483       -2.04161850959214
H            1.76917766253982       -3.78100982426051       -1.97688459704151
H            2.63180472834647       -2.84931633134825       -3.22740265647932
H            3.02114375301390       -0.26165717585432        0.59177083940887
H            1.56211618108715       -0.76570027757317        1.46983990268484
H           -0.19114315879881        3.66414059856409        1.57247347279611
H            0.92072168335099        4.34968289620570        0.35864549887016
H           -1.00584388915121        4.57999827005855       -1.25307673650153
H           -2.10988603666178        3.93710564161090       -0.01040619712081
H           -1.29298157242225        5.49019697557530        0.24116112882322
H           -4.04783530077541        2.13772262163172       -0.86481151334651
H           -3.76179029782844        0.44091814554337       -1.34563989188155
H           -2.51742804914035        1.69502031345245       -1.68023685956931
H           -1.39514085974139       -2.90316133549258        0.19961409256152
H           -3.13239837830509       -3.31512139309240        0.32281183661982
H           -2.23731246034898       -2.78183966091965        1.78069221739702
38
 energy: -1981.480870952635 gnorm: 0.000908387445 xtb: 6.7.1 (edcfbbe)
C            3.93813945046708       -3.87767469254042       -1.84082935119182
C            2.64963516519389       -3.16750301143775       -2.18370061640595
O            2.52834089107050       -1.91231523052495       -1.43478404581428
C            2.06691431545464       -1.99340880576737       -0.17852452987751
O            1.75125562549411       -3.03436759901991        0.37062532587876
C            1.99844006993483       -0.63947256177070        0.47883171631305
C            1.19631663428536        0.37071096375969       -0.34066170820149
H            1.72295019188714        0.58687273758978       -1.28033704907335
C            1.09174668678040        1.70964184119731        0.37561310979158
O            1.87414558834162        2.04304135282722        1.24585292438484
O            0.12545855581351        2.48201757036354       -0.11143267850005
C           -0.01840605536486        3.80774109304967        0.50162064660924
C           -1.17899081409487        4.48581816370274       -0.17725050455814
S           -0.41188233989435       -0.33026105555309       -0.95150840495877
P           -1.76166122545081       -0.07745910203738        0.67084225651381
S           -0.99564436946713        0.08420260512597        2.44591037087181
O           -2.71835065548675        1.16543019257853        0.33898646567376
C           -3.29337704580952        1.36072563133453       -0.98739013394920
O           -2.76186072675536       -1.31028127124929        0.38442577824360
C           -2.34013346023560       -2.66816167826967        0.69876491613287
H            3.95866194445102       -4.18608248788616       -0.79240266219436
H            4.02493795069815       -4.77326184687126       -2.46411521638899
H            4.80046772419279       -3.23545504772483       -2.04161850959214
H            1.76917766253982       -3.78100982426051       -1.97688459704151
H            2.63180472834647       -2.84931633134825       -3.22740265647932
H            3.02114375301390       -0.26165717585432        0.59177083940887
H            1.56211618108715       -0.76570027757317        1.46983990268484
H           -0.19114315879881        3.66414059856409        1.57247347279611
H            0.92072168335099        4.34968289620570        0.35864549887016
H           -1.00584388915121        4.57999827005855       -1.25307673650153
H           -2.10988603666178        3.93710564161090       -0.01040619712081
H           -1.29298157242225        5.49019697557530        0.24116112882322
H           -4.04783530077541        2.13772262163172       -0.86481151334651
H           -3.76179029782844        0.44091814554337       -1.34563989188155
H           -2.51742804914035        1.69502031345245       -1.68023685956931
H           -1.39514085974139       -2.90316133549258        0.19961409256152
H           -3.13239837830509       -3.31512139309240        0.32281183661982
H           -2.23731246034898       -2.78183966091965        1.78069221739702
