
                                 *****************
                                 * O   R   C   A *
                                 *****************

                                            #,                                       
                                            ###                                      
                                            ####                                     
                                            #####                                    
                                            ######                                   
                                           ########,                                 
                                     ,,################,,,,,                         
                               ,,#################################,,                 
                          ,,##########################################,,             
                       ,#########################################, ''#####,          
                    ,#############################################,,   '####,        
                  ,##################################################,,,,####,       
                ,###########''''           ''''###############################       
              ,#####''   ,,,,##########,,,,          '''####'''          '####       
            ,##' ,,,,###########################,,,                        '##       
           ' ,,###''''                  '''############,,,                           
         ,,##''                                '''############,,,,        ,,,,,,###''
      ,#''                                            '''#######################'''  
     '                                                          ''''####''''         
             ,#######,   #######,   ,#######,      ##                                
            ,#'     '#,  ##    ##  ,#'     '#,    #''#        ,####,   ,####,        
            ##       ##  ##   ,#'  ##            #'  '#       #'       #'  '#        
            ##       ##  #######   ##           ,######,      #####,   #    #        
            '#,     ,#'  ##    ##  '#,     ,#' ,#      #,     #,   #   #,  ,#        
             '#######'   ##     ##  '#######'  #'      '#     '####' # '####'        



                #########################################################
                #                        -***-                          #
                #          Department of theory and spectroscopy        #
                #                                                       #
                #                      Frank Neese                      #
                #                                                       #
                #     Directorship, Architecture, Infrastructure        #
                #                    SHARK, DRIVERS                     #
                #        Core code/Algorithms in most modules           #
                #                                                       #
                #        Max Planck Institute fuer Kohlenforschung      #
                #                Kaiser Wilhelm Platz 1                 #
                #                 D-45470 Muelheim/Ruhr                 #
                #                      Germany                          #
                #                                                       #
                #                  All rights reserved                  #
                #                        -***-                          #
                #########################################################


                         Program Version 6.0.1  -  RELEASE   -


 With contributions from (in alphabetic order):
[Max-Planck-Institut fuer Kohlenforschung]                               
  Daniel Aravena         : Magnetic Suceptibility                        
  Michael Atanasov       : Ab Initio Ligand Field Theory (pilot matlab implementation)
  Alexander A. Auer      : GIAO ZORA, VPT2 properties, NMR spectrum      
  Ute Becker             : All parallelization in ORCA, NUMFREQ, NUMCALC 
  Giovanni Bistoni       : ED, misc. LED, open-shell LED, HFLD           
  Martin Brehm           : Molecular dynamics                            
  Dmytro Bykov           : pre 5.0 version of the SCF Hessian            
  Marcos Casanova-Páez   : Triplet and SCS-CIS(D). UHF-(DLPNO)-IP/EA/STEOM-CCSD. UHF-CVS-IP/STEOM-CCSD   
  Vijay G. Chilkuri      : MRCI spin determinant printing, contributions to CSF-ICE 
  Pauline Colinet        : FMM embedding                                 
  Dipayan Datta          : RHF DLPNO-CCSD density                        
  Achintya Kumar Dutta   : EOM-CC, STEOM-CC                              
  Nicolas Foglia         : Exact transition moments, OPA infrastructure, MCD improvements    
  Dmitry Ganyushin       : Spin-Orbit,Spin-Spin,Magnetic field MRCI      
  Miquel Garcia-Rates    : C-PCM and meta-GGA Hessian, CCSD/C-PCM, Gaussian charge scheme 
  Tiago L. C. Gouveia    : GS-ROHF, GS-ROCIS                             
  Yang Guo               : DLPNO-NEVPT2, F12-NEVPT2, CIM, IAO-localization        
  Andreas Hansen         : Spin unrestricted coupled pair/coupled cluster methods 
  Ingolf Harden          : AUTO-CI MPn and infrastructure                
  Benjamin Helmich-Paris : MC-RPA, TRAH-(SCF,CASSCF), AVAS, COSX integrals, SCF dyn. polar. 
  Lee Huntington         : MR-EOM, pCC                                   
  Robert Izsak           : Overlap fitted RIJCOSX, COSX-SCS-MP3, EOM     
  Riya Kayal             : Wick's Theorem for AUTO-CI, AUTO-CI UHF-CCSDT 
  Emily Kempfer          : AUTO-CI, RHF CISDT and CCSDT                  
  Christian Kollmar      : KDIIS, OOCD, Brueckner-CCSD(T), CCSD density, CASPT2, CASPT2-K, improved NEVPT2 
  Axel Koslowski         : Symmetry handling                             
  Simone Kossmann        : meta-GGA functionals, TD-DFT gradient, OOMP2, (MP2 Hessian; deprecated post 5.0) 
  Lucas Lang             : DCDCAS                                        
  Marvin Lechner         : AUTO-CI (C++ implementation), FIC-MRCC        
  Spencer Leger          : CASSCF response                               
  Dagmar Lenk            : GEPOL surface, SMD, ORCA-2-JSON               
  Dimitrios Liakos       : Extrapolation schemes; Compound Job, initial MDCI parallelization 
  Dimitrios Manganas     : Further ROCIS development; embedding schemes. LFT, Crystal Embedding 
  Dimitrios Pantazis     : SARC Basis sets                               
  Anastasios Papadopoulos: AUTO-CI, single reference methods and gradients 
  Taras Petrenko         : pre 6.0 DFT Hessian and TD-DFT gradient, (ASA, deprecated), ECA, 1-Electron XAS/XES, NRVS 
  Peter Pinski           : DLPNO-MP2, DLPNO-MP2 Gradient                 
  Christoph Reimann      : Effective Core Potentials                     
  Marius Retegan         : Local ZFS, SOC                                
  Christoph Riplinger    : Optimizer, TS searches, QM/MM, DLPNO-CCSD(T), (RO)-DLPNO pert. Triples 
  Michael Roemelt        : Original ROCIS implementation                 
  Masaaki Saitow         : Open-shell DLPNO-CCSD energy and density      
  Barbara Sandhoefer     : DKH picture change effects                    
  Kantharuban Sivalingam : CASSCF convergence/infrastructure, NEVPT2 and variants, FIC-MRCI 
  Bernardo de Souza      : ESD, SOC TD-DFT                               
  Georgi L. Stoychev     : AutoAux, RI-MP2 NMR, DLPNO-MP2 response, X2C  
  Van Anh Tran           : RI-MP2 g-tensors                              
  Willem Van den Heuvel  : Paramagnetic NMR                              
  Zikuan Wang            : NOTCH, Electric field optimization            
  Frank Wennmohs         : Technical directorship and infrastructure     
  Hang Xu                : AUTO-CI-Response properties                   
                                                                         
[FACCTs GmbH]                                                            
  Markus Bursch, Miquel Garcia-Rates, Christoph Riplinger, Bernardo de Souza, Georgi L. Stoychev 
                                                                 
  APM, Basis sets (HGBS, AHGBS, def-TZVP (Ac-Lr), def2-XVPD (La-Lu)), CI-OPT, improved COSX, DLPNO-Multilevel,           
  DOCKER, DRACO, updates on ESD, GOAT, IRC, LR-CPCM, MBIS, meta-GGA TD-DFT gradient, ML-optimized integration grids, 
  MM, NACMEs, nearIR, NEB, NEB-TS, NL-DFT gradient (VV10), 2- and 3-layer-ONIOM, interface openCOSMO-RS, QMMM,   
  Crystal-QMMM, SF, symmetry and pop. for TD-DFT, r2SCAN hybrids, SOLVATOR                                   
                                                                         
[Other institutions]                                                     
  V. Asgeirsson          : NEB                                           
  Christoph Bannwarth    : sTDA-DFT, sTD-DFT, PBEh-3c, B97-3c, D3        
  Sebastian Ehlert       : rSCAN, r2SCAN, r2SCAN-3c, D4, dhf basis sets  
  Marvin Friede          : D4 for Fr, Ra, Ac-Lr                          
  Lars Goerigk           : TD-DFT with DH, B97 family of functionals     
  Stefan Grimme          : VdW corrections, initial TS optimization, DFT functionals, gCP, sTDA/sTD-DF 
  Waldemar Hujo          : DFT-NL                                        
  H. Jonsson             : NEB                                           
  Holger Kruse           : gCP                                           
  Marcel Mueller         : wB97X-3c, vDZP basis set                      
  Hagen Neugebauer       : wr2SCAN                                       
  Tobias Risthaus        : range-separated hybrid DFT                    
  Lukas Wittmann         : regularized MP2, r2SCAN double-hybrids, wr2SCAN        
                                                                         
We gratefully acknowledge several colleagues who have allowed us to      
interface, adapt or use parts of their codes:                            
  Ed Valeev, F. Pavosevic, A. Kumar             : LibInt (2-el integral package), F12 methods 
  Garnet Chan, S. Sharma, J. Yang, R. Olivares  : DMRG                   
  Ulf Ekstrom                                   : XCFun DFT Library      
  Mihaly Kallay                                 : mrcc  (arbitrary order and MRCC methods)
  Frank Weinhold                                : gennbo (NPA and NBO analysis)           
  Simon Mueller                                 : openCOSMO-RS                            
  Christopher J. Cramer and Donald G. Truhlar   : smd solvation model                     
  S Lehtola, MJT Oliveira, MAL Marques          : LibXC Library                           
  Liviu Ungur et al                             : ANISO software                          


 Your calculation uses the libint2 library for the computation of 2-el integrals
 For citations please refer to: http://libint.valeyev.net

 Your ORCA version has been built with support for libXC version: 6.2.2
 For citations please refer to: https://libxc.gitlab.io

 This ORCA versions uses:
   CBLAS   interface :  Fast vector & matrix operations
   LAPACKE interface :  Fast linear algebra routines
   SCALAPACK package :  Parallel linear algebra routines
   Shared memory     :  Shared parallel matrices
   BLAS/LAPACK       :  OpenBLAS 0.3.27  USE64BITINT DYNAMIC_ARCH NO_AFFINITY Zen SINGLE_THREADED
        Core in use  :  Zen
   Copyright (c) 2011-2014, The OpenBLAS Project


Your calculation utilizes the geometrical counterpoise correction gCP
Please cite in your paper:
H.Kruse, S. Grimme J.Chem.Phys., 136, (2012), 154101 
   

Your calculation utilizes the atom-pairwise dispersion correction
based on EEQ partial charges (D4)


================================================================================

----- Orbital basis set information -----
Your calculation utilizes the basis: def2-SV(P)
   F. Weigend and R. Ahlrichs, Phys. Chem. Chem. Phys. 7, 3297 (2005).

----- AuxJ basis set information -----
Your calculation utilizes the auxiliary basis: def2/J
   F. Weigend, Phys. Chem. Chem. Phys. 8, 1057 (2006).

================================================================================
                                        WARNINGS
                       Please study these warnings very carefully!
================================================================================

WARNING: Old DensityContainer found on disk!
         Will remove this file - 
         If you want to keep old densities, please start your calculation with a different basename. 


================================================================================
                                       INPUT FILE
================================================================================
NAME = sp.inp
|  1> ! pbe def2-sv(p) def2/J RI DEFGRID1 loosescf d4 GCP(DFT/SV(P)) printgap
|  2> %output
|  3>     printlevel normal
|  4> end
|  5> * xyz 0 1
|  6> C 3.1227924996 -4.5214374532 -1.1391722939
|  7> C 3.897528911 -3.2809976433 -1.5549407605
|  8> O 3.5720867414 -2.1672412995 -0.7010069067
|  9> C 2.5302999657 -1.4216359834 -1.0120786428
| 10> O 1.8359538158 -1.578002301 -1.9911421612
| 11> C 2.3284954281 -0.317299071 0.00960382
| 12> C 0.8973227748 0.191151517 -0.0437715189
| 13> H 0.617446358 0.3793800458 -1.0889770954
| 14> C 0.6530874962 1.4695706183 0.7286172455
| 15> O -0.3654285571 1.6445355253 1.3700993831
| 16> O 1.6194397787 2.3327706509 0.6005061539
| 17> C 1.4445982572 3.6487363533 1.173819636
| 18> C 0.707139987 4.5541677211 0.2015699689
| 19> S -0.2645794491 -1.0692694265 0.601417185
| 20> P -2.0679049935 0.0055549186 0.3090504636
| 21> S -2.1212915978 1.4078867173 -1.0704371363
| 22> O -3.0442483581 -1.2160477691 -0.0519321596
| 23> C -2.9093536782 -1.9198903389 -1.2877054289
| 24> O -2.7620362978 0.2825626824 1.705307598
| 25> C -3.0070217477 1.5715226476 2.2732674468
| 26> H 2.0551744586 -4.3520818724 -1.2607738048
| 27> H 3.4209498811 -5.3580585754 -1.7622898306
| 28> H 3.3250513598 -4.7580380914 -0.0983384312
| 29> H 3.6667041257 -3.0084588771 -2.5886271242
| 30> H 4.9710634544 -3.419929446 -1.4272379365
| 31> H 3.00860647 0.5024697038 -0.2324840992
| 32> H 2.5784954243 -0.7018621001 0.9977991854
| 33> H 0.8938437113 3.5510618022 2.1125354761
| 34> H 2.45977437 3.9993709227 1.3574224838
| 35> H 0.5933241682 5.5391350125 0.6415247041
| 36> H 1.2607642272 4.6378329644 -0.7293215554
| 37> H -0.2793208025 4.148824497 -0.0175516247
| 38> H -1.9602477742 -2.4574482462 -1.3200206161
| 39> H -2.9630611268 -1.2210104523 -2.1250217588
| 40> H -3.7430133086 -2.6163385237 -1.3201040518
| 41> H -3.9959879865 1.5181863418 2.7233260212
| 42> H -2.9818223276 2.3405745155 1.4995934465
| 43> H -2.247056403 1.7802489813 3.0235236541
| 44> *
| 45> 
| 46>                          ****END OF INPUT****
================================================================================

                       ****************************
                       * Single Point Calculation *
                       ****************************

---------------------------------
CARTESIAN COORDINATES (ANGSTROEM)
---------------------------------
  C      3.122792   -4.521437   -1.139172
  C      3.897529   -3.280998   -1.554941
  O      3.572087   -2.167241   -0.701007
  C      2.530300   -1.421636   -1.012079
  O      1.835954   -1.578002   -1.991142
  C      2.328495   -0.317299    0.009604
  C      0.897323    0.191152   -0.043772
  H      0.617446    0.379380   -1.088977
  C      0.653087    1.469571    0.728617
  O     -0.365429    1.644536    1.370099
  O      1.619440    2.332771    0.600506
  C      1.444598    3.648736    1.173820
  C      0.707140    4.554168    0.201570
  S     -0.264579   -1.069269    0.601417
  P     -2.067905    0.005555    0.309050
  S     -2.121292    1.407887   -1.070437
  O     -3.044248   -1.216048   -0.051932
  C     -2.909354   -1.919890   -1.287705
  O     -2.762036    0.282563    1.705308
  C     -3.007022    1.571523    2.273267
  H      2.055174   -4.352082   -1.260774
  H      3.420950   -5.358059   -1.762290
  H      3.325051   -4.758038   -0.098338
  H      3.666704   -3.008459   -2.588627
  H      4.971063   -3.419929   -1.427238
  H      3.008606    0.502470   -0.232484
  H      2.578495   -0.701862    0.997799
  H      0.893844    3.551062    2.112535
  H      2.459774    3.999371    1.357422
  H      0.593324    5.539135    0.641525
  H      1.260764    4.637833   -0.729322
  H     -0.279321    4.148824   -0.017552
  H     -1.960248   -2.457448   -1.320021
  H     -2.963061   -1.221010   -2.125022
  H     -3.743013   -2.616339   -1.320104
  H     -3.995988    1.518186    2.723326
  H     -2.981822    2.340575    1.499593
  H     -2.247056    1.780249    3.023524

----------------------------
CARTESIAN COORDINATES (A.U.)
----------------------------
  NO LB      ZA    FRAG     MASS         X           Y           Z
   0 C     6.0000    0    12.011    5.901223   -8.544279   -2.152724
   1 C     6.0000    0    12.011    7.365262   -6.200187   -2.938412
   2 O     8.0000    0    15.999    6.750266   -4.095493   -1.324711
   3 C     6.0000    0    12.011    4.781574   -2.686503   -1.912551
   4 O     8.0000    0    15.999    3.469450   -2.981992   -3.762713
   5 C     6.0000    0    12.011    4.400219   -0.599608    0.018149
   6 C     6.0000    0    12.011    1.695694    0.361224   -0.082716
   7 H     1.0000    0     1.008    1.166805    0.716924   -2.057868
   8 C     6.0000    0    12.011    1.234157    2.777086    1.376887
   9 O     8.0000    0    15.999   -0.690560    3.107722    2.589113
  10 O     8.0000    0    15.999    3.060298    4.408298    1.134792
  11 C     6.0000    0    12.011    2.729895    6.895112    2.218198
  12 C     6.0000    0    12.011    1.336301    8.606130    0.380912
  13 S    16.0000    0    32.060   -0.499983   -2.020626    1.136514
  14 P    15.0000    0    30.974   -3.907774    0.010497    0.584021
  15 S    16.0000    0    32.060   -4.008660    2.660520   -2.022833
  16 O     8.0000    0    15.999   -5.752796   -2.297997   -0.098138
  17 C     6.0000    0    12.011   -5.497882   -3.628067   -2.433411
  18 O     8.0000    0    15.999   -5.219492    0.533966    3.222564
  19 C     6.0000    0    12.011   -5.682448    2.969747    4.295853
  20 H     1.0000    0     1.008    3.883717   -8.224243   -2.382517
  21 H     1.0000    0     1.008    6.464658  -10.125263   -3.330245
  22 H     1.0000    0     1.008    6.283436   -8.991389   -0.185833
  23 H     1.0000    0     1.008    6.929067   -5.685163   -4.891796
  24 H     1.0000    0     1.008    9.393949   -6.462730   -2.697089
  25 H     1.0000    0     1.008    5.685442    0.949530   -0.439331
  26 H     1.0000    0     1.008    4.872650   -1.326327    1.885567
  27 H     1.0000    0     1.008    1.689120    6.710534    3.992113
  28 H     1.0000    0     1.008    4.648300    7.557716    2.565157
  29 H     1.0000    0     1.008    1.121220   10.467448    1.212306
  30 H     1.0000    0     1.008    2.382499    8.764234   -1.378218
  31 H     1.0000    0     1.008   -0.527840    7.840142   -0.033168
  32 H     1.0000    0     1.008   -3.704331   -4.643904   -2.494477
  33 H     1.0000    0     1.008   -5.599374   -2.307375   -4.015709
  34 H     1.0000    0     1.008   -7.073270   -4.944163   -2.494635
  35 H     1.0000    0     1.008   -7.551323    2.868956    5.146340
  36 H     1.0000    0     1.008   -5.634828    4.423045    2.833821
  37 H     1.0000    0     1.008   -4.246321    3.364183    5.713632

--------------------------------
INTERNAL COORDINATES (ANGSTROEM)
--------------------------------
 C      0   0   0     0.000000000000     0.00000000     0.00000000
 C      1   0   0     1.520450869628     0.00000000     0.00000000
 O      2   1   0     1.440683457868   110.70264210     0.00000000
 C      3   2   1     1.318337057971   118.41622961   273.13223654
 O      4   3   2     1.210426525743   124.82693102   357.89912802
 C      4   3   2     1.517932851703   110.95931587   178.99064217
 C      6   4   3     1.519745403281   110.17953547   201.00239511
 H      7   6   4     1.098278418654   109.31388812   312.29372803
 C      7   6   4     1.513469746395   114.62319475   191.62510000
 O      9   7   6     1.216341647059   121.72088363   219.21729744
 O      9   7   6     1.302061243554   112.95502690    40.53804143
 C     11   9   7     1.446037218156   118.33139624   173.60817589
 C     12  11   9     1.519513105326   110.32054596   274.65673543
 S      7   6   4     1.831651221264   110.78002122    69.89866529
 P     14   7   6     2.119601068996    98.17296634   181.16739178
 S     15  14   7     1.967833997430   118.75994676    24.67561264
 O     15  14   7     1.604951072914    99.35876601   145.75170487
 C     17  15  14     1.428539992735   120.80656398   290.30894874
 O     15  14   7     1.583693642779   109.87594315   243.18760761
 C     19  15  14     1.429690194553   125.66489138   117.25861163
 H      1   2   3     1.087785144994   110.03000455    63.15346142
 H      1   2   3     1.084946169539   109.39177746   182.86900598
 H      1   2   3     1.086380982100   110.16961080   303.08723278
 H      2   1   3     1.093647547928   110.74577698   239.41301460
 H      2   1   3     1.089993794905   111.45835455   115.94596639
 H      6   4   3     1.092327072847   108.30327925    81.72425568
 H      6   4   3     1.089458031155   108.85655639   323.52465146
 H     12  11   9     1.092729754430   108.67425108    36.55982848
 H     12  11   9     1.089604123973   104.30061807   154.68105226
 H     13  12  11     1.084746410348   109.41887667   180.59405299
 H     13  12  11     1.086305068702   110.29505342   300.90381066
 H     13  12  11     1.088771000407   110.28276126    60.77737647
 H     18  17  15     1.091244606874   110.51515257    66.01734856
 H     18  17  15     1.091978123520   110.08045659   304.81800382
 H     18  17  15     1.086774182724   105.61045539   185.57104077
 H     20  19  15     1.087865664222   106.01714659   139.49350274
 H     20  19  15     1.091167835410   110.47463702    19.84780063
 H     20  19  15     1.088116898186   109.09733989   259.14570703

---------------------------
INTERNAL COORDINATES (A.U.)
---------------------------
 C      0   0   0     0.000000000000     0.00000000     0.00000000
 C      1   0   0     2.873235743679     0.00000000     0.00000000
 O      2   1   0     2.722497181041   110.70264210     0.00000000
 C      3   2   1     2.491295991765   118.41622961   273.13223654
 O      4   3   2     2.287374638888   124.82693102   357.89912802
 C      4   3   2     2.868477379400   110.95931587   178.99064217
 C      6   4   3     2.871902605487   110.17953547   201.00239511
 H      7   6   4     2.075445430053   109.31388812   312.29372803
 C      7   6   4     2.860043332662   114.62319475   191.62510000
 O      9   7   6     2.298552598225   121.72088363   219.21729744
 O      9   7   6     2.460539159909   112.95502690    40.53804143
 C     11   9   7     2.732614321771   118.33139624   173.60817589
 C     12  11   9     2.871463625971   110.32054596   274.65673543
 S      7   6   4     3.461319181051   110.78002122    69.89866529
 P     14   7   6     4.005465533568    98.17296634   181.16739178
 S     15  14   7     3.718667332162   118.75994676    24.67561264
 O     15  14   7     3.032917986150    99.35876601   145.75170487
 C     17  15  14     2.699549357624   120.80656398   290.30894874
 O     15  14   7     2.992747264884   109.87594315   243.18760761
 C     19  15  14     2.701722924057   125.66489138   117.25861163
 H      1   2   3     2.055616016587   110.03000455    63.15346142
 H      1   2   3     2.050251130475   109.39177746   182.86900598
 H      1   2   3     2.052962533270   110.16961080   303.08723278
 H      2   1   3     2.066694352619   110.74577698   239.41301460
 H      2   1   3     2.059789760045   111.45835455   115.94596639
 H      6   4   3     2.064199016348   108.30327925    81.72425568
 H      6   4   3     2.058777313284   108.85655639   323.52465146
 H     12  11   9     2.064959974260   108.67425108    36.55982848
 H     12  11   9     2.059053388700   104.30061807   154.68105226
 H     13  12  11     2.049873640311   109.41887667   180.59405299
 H     13  12  11     2.052819077737   110.29505342   300.90381066
 H     13  12  11     2.057479013324   110.28276126    60.77737647
 H     18  17  15     2.062153452111   110.51515257    66.01734856
 H     18  17  15     2.063539597686   110.08045659   304.81800382
 H     18  17  15     2.053705574765   105.61045539   185.57104077
 H     20  19  15     2.055768175876   106.01714659   139.49350274
 H     20  19  15     2.062008375069   110.47463702    19.84780063
 H     20  19  15     2.056242939263   109.09733989   259.14570703

---------------------
BASIS SET INFORMATION
---------------------
There are 5 groups of distinct atoms

 Group   1 Type C   : 7s4p1d contracted to 3s2p1d pattern {511/31/1}
 Group   2 Type O   : 7s4p1d contracted to 3s2p1d pattern {511/31/1}
 Group   3 Type H   : 4s contracted to 2s pattern {31}
 Group   4 Type S   : 10s7p1d contracted to 4s3p1d pattern {5311/511/1}
 Group   5 Type P   : 10s7p1d contracted to 4s3p1d pattern {5311/511/1}

Atom   0C    basis set group =>   1
Atom   1C    basis set group =>   1
Atom   2O    basis set group =>   2
Atom   3C    basis set group =>   1
Atom   4O    basis set group =>   2
Atom   5C    basis set group =>   1
Atom   6C    basis set group =>   1
Atom   7H    basis set group =>   3
Atom   8C    basis set group =>   1
Atom   9O    basis set group =>   2
Atom  10O    basis set group =>   2
Atom  11C    basis set group =>   1
Atom  12C    basis set group =>   1
Atom  13S    basis set group =>   4
Atom  14P    basis set group =>   5
Atom  15S    basis set group =>   4
Atom  16O    basis set group =>   2
Atom  17C    basis set group =>   1
Atom  18O    basis set group =>   2
Atom  19C    basis set group =>   1
Atom  20H    basis set group =>   3
Atom  21H    basis set group =>   3
Atom  22H    basis set group =>   3
Atom  23H    basis set group =>   3
Atom  24H    basis set group =>   3
Atom  25H    basis set group =>   3
Atom  26H    basis set group =>   3
Atom  27H    basis set group =>   3
Atom  28H    basis set group =>   3
Atom  29H    basis set group =>   3
Atom  30H    basis set group =>   3
Atom  31H    basis set group =>   3
Atom  32H    basis set group =>   3
Atom  33H    basis set group =>   3
Atom  34H    basis set group =>   3
Atom  35H    basis set group =>   3
Atom  36H    basis set group =>   3
Atom  37H    basis set group =>   3
---------------------------------
AUXILIARY/J BASIS SET INFORMATION
---------------------------------
There are 5 groups of distinct atoms

 Group   1 Type C   : 12s5p4d2f1g contracted to 6s4p3d1f1g pattern {711111/2111/211/2/1}
 Group   2 Type O   : 12s5p4d2f1g contracted to 6s4p3d1f1g pattern {711111/2111/211/2/1}
 Group   3 Type H   : 5s2p1d contracted to 3s1p1d pattern {311/2/1}
 Group   4 Type S   : 14s5p5d2f1g contracted to 8s4p3d1f1g pattern {71111111/2111/311/2/1}
 Group   5 Type P   : 14s5p5d2f1g contracted to 8s4p3d1f1g pattern {71111111/2111/311/2/1}

Atom   0C    basis set group =>   1
Atom   1C    basis set group =>   1
Atom   2O    basis set group =>   2
Atom   3C    basis set group =>   1
Atom   4O    basis set group =>   2
Atom   5C    basis set group =>   1
Atom   6C    basis set group =>   1
Atom   7H    basis set group =>   3
Atom   8C    basis set group =>   1
Atom   9O    basis set group =>   2
Atom  10O    basis set group =>   2
Atom  11C    basis set group =>   1
Atom  12C    basis set group =>   1
Atom  13S    basis set group =>   4
Atom  14P    basis set group =>   5
Atom  15S    basis set group =>   4
Atom  16O    basis set group =>   2
Atom  17C    basis set group =>   1
Atom  18O    basis set group =>   2
Atom  19C    basis set group =>   1
Atom  20H    basis set group =>   3
Atom  21H    basis set group =>   3
Atom  22H    basis set group =>   3
Atom  23H    basis set group =>   3
Atom  24H    basis set group =>   3
Atom  25H    basis set group =>   3
Atom  26H    basis set group =>   3
Atom  27H    basis set group =>   3
Atom  28H    basis set group =>   3
Atom  29H    basis set group =>   3
Atom  30H    basis set group =>   3
Atom  31H    basis set group =>   3
Atom  32H    basis set group =>   3
Atom  33H    basis set group =>   3
Atom  34H    basis set group =>   3
Atom  35H    basis set group =>   3
Atom  36H    basis set group =>   3
Atom  37H    basis set group =>   3

Checking for AutoStart:
The File: sp.gbw exists
Trying to determine its content:
     ... Fine, the file contains calculation information
     ... Fine, the calculation information was read
     ... Fine, the file contains a basis set
     ... Fine, the basis set was read
     ... Fine, the file contains a geometry
     ... Fine, the geometry was read
     ... Fine, the file contains a set of orbitals
     ... Fine, the orbitals can be read
     => possible old guess file was deleted
     => GBW file was renamed to GES file
     => GES file is set as startup file
     => Guess is set to MORead
     ... now leaving AutoStart

------------------------------------------------------------------------------
                             ORCA STARTUP CALCULATIONS
                           -- RI-GTO INTEGRALS CHOSEN --
------------------------------------------------------------------------------
------------------------------------------------------------------------------
                   ___                                                        
                  /   \      - P O W E R E D   B Y -                         
                 /     \                                                     
                 |  |  |   _    _      __       _____    __    __             
                 |  |  |  | |  | |    /  \     |  _  \  |  |  /  |          
                  \  \/   | |  | |   /    \    | | | |  |  | /  /          
                 / \  \   | |__| |  /  /\  \   | |_| |  |  |/  /          
                |  |  |   |  __  | /  /__\  \  |    /   |      \           
                |  |  |   | |  | | |   __   |  |    \   |  |\   \          
                \     /   | |  | | |  |  |  |  | |\  \  |  | \   \       
                 \___/    |_|  |_| |__|  |__|  |_| \__\ |__|  \__/        
                                                                              
                      - O R C A' S   B I G   F R I E N D -                    
                                      &                                       
                       - I N T E G R A L  F E E D E R -                       
                                                                              
 v1 FN, 2020, v2 2021, v3 2022-2024                                           
------------------------------------------------------------------------------


----------------------
SHARK INTEGRAL PACKAGE
----------------------

Number of atoms                             ...     38
Number of basis functions                   ...    316
Number of shells                            ...    158
Maximum angular momentum                    ...      2
Integral batch strategy                     ... SHARK/LIBINT Hybrid
RI-J (if used) integral strategy            ... SPLIT-RIJ (Revised 2003 algorithm where possible)
Printlevel                                  ...      1
Contraction scheme used                     ... SEGMENTED contraction
Prescreening option                         ... SCHWARTZ
   Thresh                                   ... 1.000e-09
   Tcut                                     ... 1.000e-10
   Tpresel                                  ... 1.000e-10 
Coulomb Range Separation                    ... NOT USED
Exchange Range Separation                   ... NOT USED
Multipole approximations                    ... NOT USED
Finite Nucleus Model                        ... NOT USED
CABS basis                                  ... NOT available
Auxiliary Coulomb fitting basis             ... AVAILABLE
   # of basis functions in Aux-J            ...   1146
   # of shells in Aux-J                     ...    386
   Maximum angular momentum in Aux-J        ...      4
Auxiliary J/K fitting basis                 ... NOT available
Auxiliary Correlation fitting basis         ... NOT available
Auxiliary 'external' fitting basis          ... NOT available

Checking pre-screening integrals            ... done (  0.0 sec) Dimension = 158
Check shell pair data                       ... done (  0.0 sec)
Shell pair information
Shell pair cut-off parameter TPreSel        ...   1.0e-10
Total number of shell pairs                 ...     12561
Shell pairs after pre-screening             ...      8791
Total number of primitive shell pairs       ...     52337
Primitive shell pairs kept                  ...     21622
          la=0 lb=0:   3277 shell pairs
          la=1 lb=0:   2988 shell pairs
          la=1 lb=1:    705 shell pairs
          la=2 lb=0:   1170 shell pairs
          la=2 lb=1:    544 shell pairs
          la=2 lb=2:    107 shell pairs

Calculating one electron integrals          ... done (  0.1 sec)
Calculating RI/J V-Matrix + Cholesky decomp.... done (  0.1 sec)
Calculating Nuclear repulsion               ... done (  0.0 sec) ENN=   2127.320933701872 Eh

Diagonalization of the overlap matrix:
Smallest eigenvalue                        ... 9.612e-04
Time for diagonalization                   ...    0.009 sec
Threshold for overlap eigenvalues          ... 1.000e-07
Number of eigenvalues below threshold      ... 0
Time for construction of square roots      ...    0.007 sec
Total time needed                          ...    0.017 sec

-------------------
DFT GRID GENERATION
-------------------

General Integration Accuracy     IntAcc      ... 4.159
Radial Grid Type                 RadialGrid  ... OptM3 with GC (2021)
Angular Grid (max. ang.)         AngularGrid ... 3 (Lebedev-194)
Angular grid pruning method      GridPruning ... 4 (adaptive)
Weight generation scheme         WeightScheme... mBecke (2022)
Basis function cutoff            BFCut       ... 1.0000e-10
Integration weight cutoff        WCut        ... 1.0000e-14
Partially contracted basis set               ... off
Rotationally invariant grid construction     ... off
Angular grids for H and He will be reduced by one unit

Total number of grid points                  ...    90990
Total number of batches                      ...     1438
Average number of points per batch           ...       63
Average number of grid points per atom       ...     2394
Initializing property integral containers    ... done (  0.0 sec)

SHARK setup successfully completed in   1.1 seconds

Maximum memory used throughout the entire STARTUP-calculation: 48.4 MB
-------------------------------------------------------------------------------
                                 ORCA GUESS
                   Start orbitals & Density for SCF / CASSCF
-------------------------------------------------------------------------------

------------
SCF SETTINGS
------------
Hamiltonian:
 Density Functional     Method          .... DFT(GTOs)
 Exchange Functional    Exchange        .... PBE
   PBE kappa parameter   XKappa         ....  0.804000
   PBE mue parameter    XMuePBE         ....  0.219520
 Correlation Functional Correlation     .... PBE
   PBE beta parameter  CBetaPBE         ....  0.066725
 LDA part of GGA corr.  LDAOpt          .... PW91-LDA
 Gradients option       PostSCFGGA      .... off
   NL short-range parameter             ....  6.400000
 RI-approximation to the Coulomb term is turned on
   Number of AuxJ basis functions       .... 1146


General Settings:
 Integral files         IntName         .... sp
 Hartree-Fock type      HFTyp           .... RHF
 Total Charge           Charge          ....    0
 Multiplicity           Mult            ....    1
 Number of Electrons    NEL             ....  174
 Basis Dimension        Dim             ....  316
 Nuclear Repulsion      ENuc            ....   2127.3209337019 Eh

Convergence Acceleration:
 AO-DIIS                CNVDIIS         .... on
   Start iteration      DIISMaxIt       ....    12
   Startup error        DIISStart       ....  0.200000
   # of expansion vecs  DIISMaxEq       ....     5
   Bias factor          DIISBfac        ....   1.050
   Max. coefficient     DIISMaxC        ....  10.000
 MO-DIIS                CNVKDIIS        .... off
 Trust-Rad. Augm. Hess. CNVTRAH         .... auto
   Auto Start mean grad. ratio tolernc. ....  1.125000
   Auto Start start iteration           ....     1
   Auto Start num. interpolation iter.  ....    10
   Max. Number of Micro iterations      ....    24
   Max. Number of Macro iterations      .... Maxiter - #DIIS iter
   Number of Davidson start vectors     ....     2
   Converg. threshold    (grad. norm)   ....   1.000e-04
   Grad. Scal. Fac. for Micro threshold ....   0.100
   Minimum threshold for Micro iter.    ....   1.000e-02
   NR start threshold (gradient norm)   ....   1.000e-04
   Initial trust radius                 ....   0.400
   Minimum AH scaling param. (alpha)    ....   1.000
   Maximum AH scaling param. (alpha)    .... 1000.000
   Quad. conv. algorithm                .... NR
   White noise on init. David. guess    .... on
   Maximum white noise                  ....   0.010
   Pseudo random numbers                .... off
   Inactive MOs                         .... canonical
   Orbital update algorithm             .... Taylor
   Preconditioner                       .... Diag
   Full preconditioner red. dimension   ....   250
 SOSCF                  CNVSOSCF        .... on
   Start iteration      SOSCFMaxIt      ....   150
   Startup grad/error   SOSCFStart      ....  0.003300
   Hessian update       SOSCFHessUp     .... L-BFGS
 Level Shifting         CNVShift        .... on
   Level shift para.    LevelShift      ....    0.2500
   Turn off err/grad.   ShiftErr        ....    0.0010
 Zerner damping         CNVZerner       .... off
 Static damping         CNVDamp         .... on
   Fraction old density DampFac         ....    0.7000
   Max. Damping (<1)    DampMax         ....    0.9800
   Min. Damping (>=0)   DampMin         ....    0.0000
   Turn off err/grad.   DampErr         ....    0.1000

SCF Procedure:
 Maximum # iterations   MaxIter         ....   125
 SCF integral mode      SCFMode         .... Direct
   Integral package                     .... SHARK and LIBINT hybrid scheme
 Reset frequency        DirectResetFreq ....    20
 Integral Threshold     Thresh          ....  1.000e-09 Eh
 Primitive CutOff       TCut            ....  1.000e-10 Eh

Convergence Tolerance:
 Convergence Check Mode ConvCheckMode   .... Total+1el-Energy
 Convergence forced     ConvForced      .... 0
 Energy Change          TolE            ....  1.000e-05 Eh
 1-El. energy change                    ....  1.000e-02 Eh
 Orbital Gradient       TolG            ....  1.000e-04
 Orbital Rotation angle TolX            ....  1.000e-04
 DIIS Error             TolErr          ....  5.000e-04

---------------------
INITIAL GUESS: MOREAD
---------------------
Guess MOs are being read from file: sp.ges
Input Geometry matches current geometry (good)
Input basis set matches current basis set (good)
Occupation numbers will be reassigned to an Aufbau configuration
MOs were renormalized
MOs were reorthogonalized (Cholesky)
                      ------------------
                      INITIAL GUESS DONE (   0.0 sec)
                      ------------------
             **** ENERGY FILE WAS UPDATED (sp.en.tmp) ****
Finished Guess after   0.1 sec
Maximum memory used throughout the entire GUESS-calculation: 24.1 MB

-------------------------------------------------------------------------------------------
                                      ORCA LEAN-SCF
                              memory conserving SCF solver
-------------------------------------------------------------------------------------------

----------------------------------------D-I-I-S--------------------------------------------
Iteration    Energy (Eh)           Delta-E    RMSDP     MaxDP     DIISErr   Damp  Time(sec)
-------------------------------------------------------------------------------------------
               ***  Starting incremental Fock matrix formation  ***
                              *** Initializing SOSCF ***
---------------------------------------S-O-S-C-F--------------------------------------
Iteration    Energy (Eh)           Delta-E    RMSDP     MaxDP     MaxGrad    Time(sec)
--------------------------------------------------------------------------------------
    1    -1979.1496457746993656     0.00e+00  9.87e-06  4.06e-04  4.13e-05     1.8
               *** Restarting incremental Fock matrix formation ***
    2    -1979.1496457567968719     1.79e-08  1.73e-05  8.42e-04  1.01e-04     1.7
    3    -1979.1496423422281623     3.41e-06  1.29e-05  6.66e-04  3.38e-04     1.5
                 **** Energy Check signals convergence ****

               *****************************************************
               *                     SUCCESS                       *
               *           SCF CONVERGED AFTER   3 CYCLES          *
               *****************************************************

             **** ENERGY FILE WAS UPDATED (sp.en.tmp) ****

----------------
TOTAL SCF ENERGY
----------------

Total Energy       :      -1979.14964234222816 Eh          -53855.39972 eV

Components:
Nuclear Repulsion  :       2127.32093370187204 Eh           57887.34554 eV
Electronic Energy  :      -4106.47057604410020 Eh         -111742.74527 eV
One Electron Energy:      -6958.89865503642704 Eh         -189361.25934 eV
Two Electron Energy:       2852.42807899232685 Eh           77618.51408 eV

Virial components:
Potential Energy   :      -3949.31094376582178 Eh         -107466.21426 eV
Kinetic Energy     :       1970.16130142359361 Eh           53610.81453 eV
Virial Ratio       :          2.00456223605252

DFT components:
N(Alpha)           :       87.000199311141 electrons
N(Beta)            :       87.000199311141 electrons
N(Total)           :      174.000398622281 electrons
E(X)               :     -180.018380000492 Eh       
E(C)               :       -6.125817159086 Eh       
E(XC)              :     -186.144197159578 Eh       

---------------
SCF CONVERGENCE
---------------

  Last Energy change         ...   -3.4146e-06  Tolerance :   1.0000e-05
  Last MAX-Density change    ...    6.6589e-04  Tolerance :   1.0000e-03
  Last RMS-Density change    ...    1.2885e-05  Tolerance :   1.0000e-04
  Last DIIS Error            ...    2.1686e-04  Tolerance :   5.0000e-04
  Last Orbital Gradient      ...    3.3794e-04  Tolerance :   1.0000e-04
  Last Orbital Rotation      ...    3.5817e-04  Tolerance :   1.0000e-04


----------------
ORBITAL ENERGIES
----------------

  NO   OCC          E(Eh)            E(eV) 
   0   2.0000     -88.031626     -2395.4623 
   1   2.0000     -87.971681     -2393.8311 
   2   2.0000     -76.415934     -2079.3833 
   3   2.0000     -18.825336      -512.2634 
   4   2.0000     -18.808758      -511.8123 
   5   2.0000     -18.776952      -510.9468 
   6   2.0000     -18.769616      -510.7472 
   7   2.0000     -18.755651      -510.3672 
   8   2.0000     -18.746587      -510.1206 
   9   2.0000     -10.027793      -272.8701 
  10   2.0000     -10.017307      -272.5848 
  11   2.0000      -9.961014      -271.0530 
  12   2.0000      -9.953060      -270.8365 
  13   2.0000      -9.945146      -270.6212 
  14   2.0000      -9.930546      -270.2239 
  15   2.0000      -9.926089      -270.1026 
  16   2.0000      -9.919864      -269.9332 
  17   2.0000      -9.891957      -269.1738 
  18   2.0000      -9.890696      -269.1395 
  19   2.0000      -7.676682      -208.8931 
  20   2.0000      -7.616767      -207.2628 
  21   2.0000      -6.411698      -174.4712 
  22   2.0000      -5.704572      -155.2293 
  23   2.0000      -5.701486      -155.1453 
  24   2.0000      -5.693380      -154.9247 
  25   2.0000      -5.645842      -153.6312 
  26   2.0000      -5.637621      -153.4075 
  27   2.0000      -5.636508      -153.3772 
  28   2.0000      -4.633998      -126.0975 
  29   2.0000      -4.633882      -126.0943 
  30   2.0000      -4.632335      -126.0523 
  31   2.0000      -1.033841       -28.1322 
  32   2.0000      -1.017236       -27.6804 
  33   2.0000      -0.969396       -26.3786 
  34   2.0000      -0.936507       -25.4836 
  35   2.0000      -0.923569       -25.1316 
  36   2.0000      -0.923405       -25.1271 
  37   2.0000      -0.765974       -20.8432 
  38   2.0000      -0.717557       -19.5257 
  39   2.0000      -0.712299       -19.3826 
  40   2.0000      -0.687495       -18.7077 
  41   2.0000      -0.654562       -17.8115 
  42   2.0000      -0.628438       -17.1007 
  43   2.0000      -0.619260       -16.8509 
  44   2.0000      -0.607085       -16.5196 
  45   2.0000      -0.600428       -16.3385 
  46   2.0000      -0.566831       -15.4243 
  47   2.0000      -0.512191       -13.9374 
  48   2.0000      -0.504218       -13.7205 
  49   2.0000      -0.501019       -13.6334 
  50   2.0000      -0.482668       -13.1341 
  51   2.0000      -0.466185       -12.6855 
  52   2.0000      -0.458208       -12.4685 
  53   2.0000      -0.451636       -12.2896 
  54   2.0000      -0.442838       -12.0502 
  55   2.0000      -0.434277       -11.8173 
  56   2.0000      -0.425352       -11.5744 
  57   2.0000      -0.418225       -11.3805 
  58   2.0000      -0.411181       -11.1888 
  59   2.0000      -0.405598       -11.0369 
  60   2.0000      -0.398923       -10.8552 
  61   2.0000      -0.397128       -10.8064 
  62   2.0000      -0.389876       -10.6091 
  63   2.0000      -0.380482       -10.3534 
  64   2.0000      -0.376395       -10.2422 
  65   2.0000      -0.373091       -10.1523 
  66   2.0000      -0.363665        -9.8958 
  67   2.0000      -0.359066        -9.7707 
  68   2.0000      -0.349584        -9.5127 
  69   2.0000      -0.341991        -9.3060 
  70   2.0000      -0.338269        -9.2048 
  71   2.0000      -0.334522        -9.1028 
  72   2.0000      -0.328984        -8.9521 
  73   2.0000      -0.309804        -8.4302 
  74   2.0000      -0.304757        -8.2928 
  75   2.0000      -0.299126        -8.1396 
  76   2.0000      -0.291359        -7.9283 
  77   2.0000      -0.281924        -7.6715 
  78   2.0000      -0.275303        -7.4914 
  79   2.0000      -0.267092        -7.2680 
  80   2.0000      -0.257664        -7.0114 
  81   2.0000      -0.244216        -6.6454 
  82   2.0000      -0.239641        -6.5210 
  83   2.0000      -0.232662        -6.3311 
  84   2.0000      -0.212371        -5.7789 
  85   2.0000      -0.193612        -5.2685 
  86   2.0000      -0.185382        -5.0445 
  87   0.0000      -0.045982        -1.2512 
  88   0.0000      -0.035371        -0.9625 
  89   0.0000      -0.023079        -0.6280 
  90   0.0000       0.012385         0.3370 
  91   0.0000       0.033217         0.9039 
  92   0.0000       0.039690         1.0800 
  93   0.0000       0.043203         1.1756 
  94   0.0000       0.051691         1.4066 
  95   0.0000       0.061574         1.6755 
  96   0.0000       0.067047         1.8244 
  97   0.0000       0.071138         1.9358 
*Only the first 10 virtual orbitals were printed.

                    ********************************
                    * MULLIKEN POPULATION ANALYSIS *
                    ********************************

-----------------------
MULLIKEN ATOMIC CHARGES
-----------------------
   0 C :   -0.305029
   1 C :   -0.013961
   2 O :   -0.229561
   3 C :    0.135356
   4 O :   -0.194882
   5 C :   -0.125356
   6 C :   -0.310893
   7 H :    0.167399
   8 C :    0.243621
   9 O :   -0.193838
  10 O :   -0.221501
  11 C :   -0.014062
  12 C :   -0.310858
  13 S :   -0.098536
  14 P :    0.629135
  15 S :   -0.355465
  16 O :   -0.373255
  17 C :   -0.101049
  18 O :   -0.366763
  19 C :   -0.084604
  20 H :    0.130536
  21 H :    0.115072
  22 H :    0.116076
  23 H :    0.110884
  24 H :    0.104873
  25 H :    0.139436
  26 H :    0.117075
  27 H :    0.112968
  28 H :    0.107896
  29 H :    0.115493
  30 H :    0.118113
  31 H :    0.141725
  32 H :    0.113152
  33 H :    0.113238
  34 H :    0.118854
  35 H :    0.117722
  36 H :    0.115090
  37 H :    0.115897
Sum of atomic charges:   -0.0000000

--------------------------------
MULLIKEN REDUCED ORBITAL CHARGES
--------------------------------
  0 C s       :     3.103130  s :     3.103130
      pz      :     1.072136  p :     3.174046
      px      :     1.082453
      py      :     1.019456
      dz2     :     0.007416  d :     0.027853
      dxz     :     0.001911
      dyz     :     0.006615
      dx2y2   :     0.007549
      dxy     :     0.004362

  1 C s       :     3.076445  s :     3.076445
      pz      :     0.980233  p :     2.878936
      px      :     1.057106
      py      :     0.841596
      dz2     :     0.013328  d :     0.058581
      dxz     :     0.004566
      dyz     :     0.015623
      dx2y2   :     0.016109
      dxy     :     0.008955

  2 O s       :     3.728328  s :     3.728328
      pz      :     1.616621  p :     4.484858
      px      :     1.484842
      py      :     1.383394
      dz2     :     0.002696  d :     0.016375
      dxz     :     0.002809
      dyz     :     0.003903
      dx2y2   :     0.003702
      dxy     :     0.003265

  3 C s       :     3.036674  s :     3.036674
      pz      :     0.953446  p :     2.695148
      px      :     0.822348
      py      :     0.919354
      dz2     :     0.029550  d :     0.132823
      dxz     :     0.024466
      dyz     :     0.029016
      dx2y2   :     0.024993
      dxy     :     0.024797

  4 O s       :     3.755154  s :     3.755154
      pz      :     1.361374  p :     4.421875
      px      :     1.461982
      py      :     1.598520
      dz2     :     0.005424  d :     0.017853
      dxz     :     0.005739
      dyz     :     0.003076
      dx2y2   :     0.001796
      dxy     :     0.001818

  5 C s       :     2.994613  s :     2.994613
      pz      :     1.051694  p :     3.098304
      px      :     0.994586
      py      :     1.052024
      dz2     :     0.006818  d :     0.032439
      dxz     :     0.005359
      dyz     :     0.007263
      dx2y2   :     0.004923
      dxy     :     0.008076

  6 C s       :     3.139140  s :     3.139140
      pz      :     1.125671  p :     3.130108
      px      :     1.035686
      py      :     0.968751
      dz2     :     0.008961  d :     0.041645
      dxz     :     0.006730
      dyz     :     0.008357
      dx2y2   :     0.008297
      dxy     :     0.009301

  7 H s       :     0.832601  s :     0.832601

  8 C s       :     3.007428  s :     3.007428
      pz      :     0.893394  p :     2.616324
      px      :     0.828507
      py      :     0.894424
      dz2     :     0.019234  d :     0.132627
      dxz     :     0.023552
      dyz     :     0.018959
      dx2y2   :     0.030801
      dxy     :     0.040082

  9 O s       :     3.757008  s :     3.757008
      pz      :     1.401781  p :     4.419633
      px      :     1.335888
      py      :     1.681964
      dz2     :     0.003221  d :     0.017196
      dxz     :     0.005621
      dyz     :     0.001339
      dx2y2   :     0.003853
      dxy     :     0.003162

 10 O s       :     3.729352  s :     3.729352
      pz      :     1.657333  p :     4.475245
      px      :     1.550550
      py      :     1.267362
      dz2     :     0.002178  d :     0.016904
      dxz     :     0.002527
      dyz     :     0.003217
      dx2y2   :     0.003949
      dxy     :     0.005033

 11 C s       :     3.079682  s :     3.079682
      pz      :     1.053007  p :     2.876272
      px      :     1.066436
      py      :     0.756829
      dz2     :     0.011041  d :     0.058108
      dxz     :     0.007756
      dyz     :     0.012807
      dx2y2   :     0.016315
      dxy     :     0.010189

 12 C s       :     3.105857  s :     3.105857
      pz      :     1.047673  p :     3.177299
      px      :     1.093607
      py      :     1.036019
      dz2     :     0.005502  d :     0.027702
      dxz     :     0.006366
      dyz     :     0.005409
      dx2y2   :     0.006744
      dxy     :     0.003680

 13 S s       :     5.888257  s :     5.888257
      pz      :     3.733055  p :    10.139282
      px      :     3.052515
      py      :     3.353712
      dz2     :     0.009477  d :     0.070997
      dxz     :     0.009262
      dyz     :     0.010296
      dx2y2   :     0.012928
      dxy     :     0.029034

 14 P s       :     5.233347  s :     5.233347
      pz      :     2.833485  p :     8.557558
      px      :     2.869811
      py      :     2.854262
      dz2     :     0.135259  d :     0.579960
      dxz     :     0.113082
      dyz     :     0.102867
      dx2y2   :     0.100237
      dxy     :     0.128516

 15 S s       :     5.919469  s :     5.919469
      pz      :     3.349537  p :    10.394172
      px      :     3.679011
      py      :     3.365624
      dz2     :     0.008024  d :     0.041823
      dxz     :     0.004689
      dyz     :     0.017647
      dx2y2   :     0.006672
      dxy     :     0.004790

 16 O s       :     3.760985  s :     3.760985
      pz      :     1.461149  p :     4.598963
      px      :     1.649574
      py      :     1.488239
      dz2     :     0.003531  d :     0.013308
      dxz     :     0.002425
      dyz     :     0.002179
      dx2y2   :     0.001900
      dxy     :     0.003271

 17 C s       :     3.117801  s :     3.117801
      pz      :     0.826786  p :     2.930528
      px      :     1.096980
      py      :     1.006762
      dz2     :     0.016217  d :     0.052720
      dxz     :     0.005924
      dyz     :     0.015757
      dx2y2   :     0.003782
      dxy     :     0.011040

 18 O s       :     3.743264  s :     3.743264
      pz      :     1.461122  p :     4.610617
      px      :     1.693592
      py      :     1.455902
      dz2     :     0.003429  d :     0.012882
      dxz     :     0.002741
      dyz     :     0.002201
      dx2y2   :     0.002812
      dxy     :     0.001700

 19 C s       :     3.118608  s :     3.118608
      pz      :     1.044569  p :     2.913349
      px      :     1.075344
      py      :     0.793436
      dz2     :     0.005326  d :     0.052646
      dxz     :     0.009374
      dyz     :     0.015133
      dx2y2   :     0.015131
      dxy     :     0.007683

 20 H s       :     0.869464  s :     0.869464

 21 H s       :     0.884928  s :     0.884928

 22 H s       :     0.883924  s :     0.883924

 23 H s       :     0.889116  s :     0.889116

 24 H s       :     0.895127  s :     0.895127

 25 H s       :     0.860564  s :     0.860564

 26 H s       :     0.882925  s :     0.882925

 27 H s       :     0.887032  s :     0.887032

 28 H s       :     0.892104  s :     0.892104

 29 H s       :     0.884507  s :     0.884507

 30 H s       :     0.881887  s :     0.881887

 31 H s       :     0.858275  s :     0.858275

 32 H s       :     0.886848  s :     0.886848

 33 H s       :     0.886762  s :     0.886762

 34 H s       :     0.881146  s :     0.881146

 35 H s       :     0.882278  s :     0.882278

 36 H s       :     0.884910  s :     0.884910

 37 H s       :     0.884103  s :     0.884103


------------------------
MULLIKEN OVERLAP CHARGES
------------------------
B(  0-C ,  1-C ) :   0.9465 B(  0-C ,  2-O ) :  -0.0776 B(  0-C , 20-H ) :   0.7473 
B(  0-C , 21-H ) :   0.7162 B(  0-C , 22-H ) :   0.7423 B(  0-C , 23-H ) :  -0.0581 
B(  0-C , 24-H ) :  -0.0537 B(  1-C ,  2-O ) :   0.5202 B(  1-C ,  3-C ) :  -0.0633 
B(  1-C , 23-H ) :   0.7087 B(  1-C , 24-H ) :   0.7373 B(  2-O ,  3-C ) :   0.7979 
B(  2-O ,  4-O ) :  -0.1565 B(  2-O ,  5-C ) :  -0.2771 B(  2-O , 23-H ) :  -0.0634 
B(  2-O , 24-H ) :  -0.0533 B(  3-C ,  4-O ) :   1.3774 B(  3-C ,  5-C ) :   0.3016 
B(  4-O ,  5-C ) :  -0.2758 B(  5-C ,  6-C ) :   0.2831 B(  5-C , 13-S ) :  -0.1150 
B(  5-C , 25-H ) :   0.5669 B(  5-C , 26-H ) :   0.6104 B(  6-C ,  7-H ) :   0.5128 
B(  6-C ,  8-C ) :   0.1697 B(  6-C ,  9-O ) :  -0.2555 B(  6-C , 10-O ) :  -0.2789 
B(  6-C , 13-S ) :   0.4797 B(  6-C , 14-P ) :  -0.0512 B(  7-H , 13-S ) :  -0.0519 
B(  7-H , 15-S ) :   0.0609 B(  8-C ,  9-O ) :   1.2981 B(  8-C , 10-O ) :   0.8056 
B(  8-C , 11-C ) :  -0.0738 B(  8-C , 13-S ) :  -0.1031 B(  9-O , 10-O ) :  -0.1476 
B(  9-O , 14-P ) :   0.0662 B( 10-O , 11-C ) :   0.5186 B( 10-O , 12-C ) :  -0.0780 
B( 10-O , 27-H ) :  -0.0597 B( 10-O , 28-H ) :  -0.0528 B( 11-C , 12-C ) :   0.9534 
B( 11-C , 27-H ) :   0.7083 B( 11-C , 28-H ) :   0.7346 B( 12-C , 27-H ) :  -0.0556 
B( 12-C , 29-H ) :   0.7125 B( 12-C , 30-H ) :   0.7432 B( 12-C , 31-H ) :   0.7329 
B( 13-S , 14-P ) :   0.4891 B( 13-S , 15-S ) :  -0.0865 B( 13-S , 16-O ) :  -0.0749 
B( 13-S , 18-O ) :  -0.0543 B( 14-P , 15-S ) :   0.9041 B( 14-P , 16-O ) :   0.6550 
B( 14-P , 17-C ) :  -0.0973 B( 14-P , 18-O ) :   0.6909 B( 14-P , 19-C ) :  -0.1002 
B( 15-S , 16-O ) :  -0.0681 B( 15-S , 18-O ) :  -0.0560 B( 15-S , 33-H ) :   0.0624 
B( 15-S , 36-H ) :   0.0727 B( 16-O , 17-C ) :   0.6003 B( 16-O , 18-O ) :  -0.0892 
B( 16-O , 32-H ) :  -0.0653 B( 16-O , 33-H ) :  -0.0711 B( 16-O , 34-H ) :  -0.0561 
B( 17-C , 32-H ) :   0.7368 B( 17-C , 33-H ) :   0.7301 B( 17-C , 34-H ) :   0.7568 
B( 18-O , 19-C ) :   0.5945 B( 18-O , 35-H ) :  -0.0584 B( 18-O , 36-H ) :  -0.0620 
B( 18-O , 37-H ) :  -0.0618 B( 19-C , 35-H ) :   0.7534 B( 19-C , 36-H ) :   0.7303 
B( 19-C , 37-H ) :   0.7628 B( 20-H , 22-H ) :  -0.0515 B( 23-H , 24-H ) :  -0.0624 
B( 27-H , 28-H ) :  -0.0633 B( 32-H , 33-H ) :  -0.0607 B( 32-H , 34-H ) :  -0.0511 
B( 35-H , 37-H ) :  -0.0626 B( 36-H , 37-H ) :  -0.0518 


                     *******************************
                     * LOEWDIN POPULATION ANALYSIS *
                     *******************************

----------------------
LOEWDIN ATOMIC CHARGES
----------------------
   0 C :   -0.355191
   1 C :   -0.110568
   2 O :   -0.059418
   3 C :    0.030983
   4 O :   -0.157864
   5 C :   -0.254562
   6 C :   -0.268141
   7 H :    0.151645
   8 C :    0.026415
   9 O :   -0.157710
  10 O :   -0.036421
  11 C :   -0.105991
  12 C :   -0.357021
  13 S :    0.100411
  14 P :    0.590362
  15 S :   -0.343057
  16 O :   -0.258460
  17 C :   -0.222127
  18 O :   -0.237250
  19 C :   -0.207136
  20 H :    0.132286
  21 H :    0.131683
  22 H :    0.125873
  23 H :    0.120955
  24 H :    0.118697
  25 H :    0.155307
  26 H :    0.139622
  27 H :    0.121997
  28 H :    0.120221
  29 H :    0.132381
  30 H :    0.127547
  31 H :    0.134739
  32 H :    0.104981
  33 H :    0.108382
  34 H :    0.118947
  35 H :    0.116530
  36 H :    0.108274
  37 H :    0.112679

-------------------------------
LOEWDIN REDUCED ORBITAL CHARGES
-------------------------------
  0 C s       :     2.951542  s :     2.951542
      pz      :     1.126111  p :     3.335019
      px      :     1.126898
      py      :     1.082010
      dz2     :     0.018461  d :     0.068631
      dxz     :     0.004516
      dyz     :     0.015786
      dx2y2   :     0.018137
      dxy     :     0.011730

  1 C s       :     2.925798  s :     2.925798
      pz      :     1.035249  p :     3.054374
      px      :     1.101550
      py      :     0.917574
      dz2     :     0.031551  d :     0.130396
      dxz     :     0.008828
      dyz     :     0.034004
      dx2y2   :     0.035465
      dxy     :     0.020548

  2 O s       :     3.446158  s :     3.446158
      pz      :     1.638715  p :     4.580066
      px      :     1.526971
      py      :     1.414379
      dz2     :     0.004917  d :     0.033194
      dxz     :     0.005059
      dyz     :     0.007522
      dx2y2   :     0.007097
      dxy     :     0.008600

  3 C s       :     2.842499  s :     2.842499
      pz      :     0.993401  p :     2.824419
      px      :     0.907440
      py      :     0.923577
      dz2     :     0.062597  d :     0.302099
      dxz     :     0.061134
      dyz     :     0.067076
      dx2y2   :     0.055713
      dxy     :     0.055580

  4 O s       :     3.549112  s :     3.549112
      pz      :     1.458110  p :     4.577211
      px      :     1.517169
      py      :     1.601931
      dz2     :     0.008816  d :     0.031541
      dxz     :     0.012328
      dyz     :     0.004720
      dx2y2   :     0.003062
      dxy     :     0.002614

  5 C s       :     2.918072  s :     2.918072
      pz      :     1.099132  p :     3.251717
      px      :     1.060165
      py      :     1.092421
      dz2     :     0.018256  d :     0.084773
      dxz     :     0.011415
      dyz     :     0.020191
      dx2y2   :     0.014595
      dxy     :     0.020316

  6 C s       :     2.948712  s :     2.948712
      pz      :     1.131388  p :     3.219409
      px      :     1.055666
      py      :     1.032356
      dz2     :     0.021103  d :     0.100019
      dxz     :     0.013564
      dyz     :     0.021083
      dx2y2   :     0.021479
      dxy     :     0.022789

  7 H s       :     0.848355  s :     0.848355

  8 C s       :     2.840773  s :     2.840773
      pz      :     0.905471  p :     2.827472
      px      :     0.954462
      py      :     0.967539
      dz2     :     0.039846  d :     0.305340
      dxz     :     0.054415
      dyz     :     0.043608
      dx2y2   :     0.074476
      dxy     :     0.092995

  9 O s       :     3.546608  s :     3.546608
      pz      :     1.443596  p :     4.579949
      px      :     1.446228
      py      :     1.690125
      dz2     :     0.004194  d :     0.031153
      dxz     :     0.011707
      dyz     :     0.002172
      dx2y2   :     0.007777
      dxy     :     0.005302

 10 O s       :     3.435533  s :     3.435533
      pz      :     1.652935  p :     4.566645
      px      :     1.597162
      py      :     1.316548
      dz2     :     0.004412  d :     0.034244
      dxz     :     0.003421
      dyz     :     0.006306
      dx2y2   :     0.008315
      dxy     :     0.011790

 11 C s       :     2.928341  s :     2.928341
      pz      :     1.083169  p :     3.048715
      px      :     1.125331
      py      :     0.840215
      dz2     :     0.023330  d :     0.128935
      dxz     :     0.018719
      dyz     :     0.030183
      dx2y2   :     0.034345
      dxy     :     0.022358

 12 C s       :     2.951732  s :     2.951732
      pz      :     1.105145  p :     3.336948
      px      :     1.132071
      py      :     1.099732
      dz2     :     0.012896  d :     0.068341
      dxz     :     0.016019
      dyz     :     0.014188
      dx2y2   :     0.015754
      dxy     :     0.009484

 13 S s       :     5.638224  s :     5.638224
      pz      :     3.733558  p :    10.171558
      px      :     3.053082
      py      :     3.384917
      dz2     :     0.011799  d :     0.089807
      dxz     :     0.011858
      dyz     :     0.012434
      dx2y2   :     0.015299
      dxy     :     0.038417

 14 P s       :     5.073237  s :     5.073237
      pz      :     2.826845  p :     8.534838
      px      :     2.855271
      py      :     2.852723
      dz2     :     0.188915  d :     0.801563
      dxz     :     0.155659
      dyz     :     0.140293
      dx2y2   :     0.133403
      dxy     :     0.183293

 15 S s       :     5.768304  s :     5.768304
      pz      :     3.405142  p :    10.518423
      px      :     3.684466
      py      :     3.428815
      dz2     :     0.009417  d :     0.056331
      dxz     :     0.005114
      dyz     :     0.027239
      dx2y2   :     0.009161
      dxy     :     0.005399

 16 O s       :     3.505743  s :     3.505743
      pz      :     1.507720  p :     4.728544
      px      :     1.679685
      py      :     1.541139
      dz2     :     0.006911  d :     0.024173
      dxz     :     0.003687
      dyz     :     0.004315
      dx2y2   :     0.002837
      dxy     :     0.006424

 17 C s       :     2.970339  s :     2.970339
      pz      :     0.911843  p :     3.135386
      px      :     1.153479
      py      :     1.070064
      dz2     :     0.036082  d :     0.116401
      dxz     :     0.010912
      dyz     :     0.035270
      dx2y2   :     0.007492
      dxy     :     0.026646

 18 O s       :     3.483960  s :     3.483960
      pz      :     1.522531  p :     4.729915
      px      :     1.703908
      py      :     1.503476
      dz2     :     0.006724  d :     0.023375
      dxz     :     0.005132
      dyz     :     0.003904
      dx2y2   :     0.004911
      dxy     :     0.002704

 19 C s       :     2.969771  s :     2.969771
      pz      :     1.101204  p :     3.121379
      px      :     1.137304
      py      :     0.882870
      dz2     :     0.010176  d :     0.115986
      dxz     :     0.022550
      dyz     :     0.034100
      dx2y2   :     0.034027
      dxy     :     0.015133

 20 H s       :     0.867714  s :     0.867714

 21 H s       :     0.868317  s :     0.868317

 22 H s       :     0.874127  s :     0.874127

 23 H s       :     0.879045  s :     0.879045

 24 H s       :     0.881303  s :     0.881303

 25 H s       :     0.844693  s :     0.844693

 26 H s       :     0.860378  s :     0.860378

 27 H s       :     0.878003  s :     0.878003

 28 H s       :     0.879779  s :     0.879779

 29 H s       :     0.867619  s :     0.867619

 30 H s       :     0.872453  s :     0.872453

 31 H s       :     0.865261  s :     0.865261

 32 H s       :     0.895019  s :     0.895019

 33 H s       :     0.891618  s :     0.891618

 34 H s       :     0.881053  s :     0.881053

 35 H s       :     0.883470  s :     0.883470

 36 H s       :     0.891726  s :     0.891726

 37 H s       :     0.887321  s :     0.887321


---------------------------------
LOEWDIN BOND ORDERS (THRESH 0.050000)
---------------------------------
B(  0-C ,  1-C ) :   1.1512 B(  0-C ,  2-O ) :   0.0531 B(  0-C , 20-H ) :   0.9345 
B(  0-C , 21-H ) :   0.9294 B(  0-C , 22-H ) :   0.9382 B(  1-C ,  2-O ) :   1.0643 
B(  1-C ,  3-C ) :   0.0763 B(  1-C , 23-H ) :   0.9076 B(  1-C , 24-H ) :   0.9204 
B(  2-O ,  3-C ) :   1.4259 B(  2-O ,  4-O ) :   0.2075 B(  2-O ,  5-C ) :   0.0749 
B(  3-C ,  4-O ) :   2.1984 B(  3-C ,  5-C ) :   1.0398 B(  3-C ,  6-C ) :   0.0624 
B(  4-O ,  5-C ) :   0.0966 B(  5-C ,  6-C ) :   1.0663 B(  5-C ,  8-C ) :   0.0588 
B(  5-C , 13-S ) :   0.0503 B(  5-C , 25-H ) :   0.8685 B(  5-C , 26-H ) :   0.8883 
B(  6-C ,  7-H ) :   0.8397 B(  6-C ,  8-C ) :   1.0276 B(  6-C ,  9-O ) :   0.0939 
B(  6-C , 10-O ) :   0.0682 B(  6-C , 13-S ) :   1.1038 B(  8-C ,  9-O ) :   2.1157 
B(  8-C , 10-O ) :   1.4608 B(  8-C , 11-C ) :   0.0772 B(  8-C , 13-S ) :   0.0763 
B(  9-O , 10-O ) :   0.1964 B(  9-O , 14-P ) :   0.0925 B( 10-O , 11-C ) :   1.0474 
B( 10-O , 12-C ) :   0.0517 B( 11-C , 12-C ) :   1.1533 B( 11-C , 27-H ) :   0.9082 
B( 11-C , 28-H ) :   0.9205 B( 12-C , 29-H ) :   0.9278 B( 12-C , 30-H ) :   0.9375 
B( 12-C , 31-H ) :   0.9283 B( 13-S , 14-P ) :   1.0425 B( 13-S , 15-S ) :   0.1265 
B( 13-S , 16-O ) :   0.0660 B( 13-S , 18-O ) :   0.0548 B( 14-P , 15-S ) :   1.6705 
B( 14-P , 16-O ) :   1.2346 B( 14-P , 17-C ) :   0.0663 B( 14-P , 18-O ) :   1.2937 
B( 14-P , 19-C ) :   0.0644 B( 15-S , 16-O ) :   0.0826 B( 15-S , 18-O ) :   0.0864 
B( 16-O , 17-C ) :   1.1417 B( 16-O , 18-O ) :   0.0513 B( 17-C , 32-H ) :   0.9438 
B( 17-C , 33-H ) :   0.9407 B( 17-C , 34-H ) :   0.9505 B( 18-O , 19-C ) :   1.1243 
B( 19-C , 35-H ) :   0.9490 B( 19-C , 36-H ) :   0.9381 B( 19-C , 37-H ) :   0.9498 


------------------------------------------
LOEWDIN REDUCED ORBITAL POPULATIONS PER MO
-------------------------------------------
THRESHOLD FOR PRINTING IS 0.1%%
                      0         1         2         3         4         5   
                 -88.03163 -87.97168 -76.41593 -18.82534 -18.80876 -18.77695
                   2.00000   2.00000   2.00000   2.00000   2.00000   2.00000
                  --------  --------  --------  --------  --------  --------
 2 O  s               0.0       0.0       0.0       0.0      99.9       0.0
10 O  s               0.0       0.0       0.0      99.9       0.0       0.0
13 S  s             100.0       0.0       0.0       0.0       0.0       0.0
14 P  s               0.0       0.0     100.0       0.0       0.0       0.0
15 S  s               0.0     100.0       0.0       0.0       0.0       0.0
18 O  s               0.0       0.0       0.0       0.0       0.0      99.9

                      6         7         8         9        10        11   
                 -18.76962 -18.75565 -18.74659 -10.02779 -10.01731  -9.96101
                   2.00000   2.00000   2.00000   2.00000   2.00000   2.00000
                  --------  --------  --------  --------  --------  --------
 2 O  px              0.0       0.0       0.0       0.0       0.1       0.0
 3 C  s               0.0       0.0       0.0       0.0      99.3       0.0
 4 O  s               0.0       0.0      99.9       0.0       0.0       0.0
 4 O  pz              0.0       0.0       0.0       0.0       0.2       0.0
 8 C  s               0.0       0.0       0.0      99.3       0.0       0.0
 9 O  s               0.0      99.9       0.0       0.0       0.0       0.0
 9 O  px              0.0       0.0       0.0       0.2       0.0       0.0
10 O  px              0.0       0.0       0.0       0.1       0.0       0.0
11 C  s               0.0       0.0       0.0       0.0       0.0      99.7
16 O  s              99.9       0.0       0.0       0.0       0.0       0.0

                     12        13        14        15        16        17   
                  -9.95306  -9.94515  -9.93055  -9.92609  -9.91986  -9.89196
                   2.00000   2.00000   2.00000   2.00000   2.00000   2.00000
                  --------  --------  --------  --------  --------  --------
 1 C  s              99.7       0.0       0.0       0.0       0.0       0.0
 5 C  s               0.0       0.0       0.0       0.0      99.6       0.0
 5 C  px              0.0       0.1       0.0       0.0       0.0       0.0
 6 C  s               0.0      99.6       0.0       0.0       0.0       0.0
12 C  s               0.0       0.0       0.0       0.0       0.0      99.7
17 C  s               0.0       0.0       0.0      99.7       0.0       0.0
19 C  s               0.0       0.0      99.7       0.0       0.0       0.0

                     18        19        20        21        22        23   
                  -9.89070  -7.67668  -7.61677  -6.41170  -5.70457  -5.70149
                   2.00000   2.00000   2.00000   2.00000   2.00000   2.00000
                  --------  --------  --------  --------  --------  --------
 0 C  s              99.7       0.0       0.0       0.0       0.0       0.0
13 S  s               0.0      99.8       0.0       0.0       0.0       0.0
13 S  pz              0.0       0.0       0.0       0.0       3.3      13.7
13 S  px              0.0       0.0       0.0       0.0      93.8       5.2
13 S  py              0.0       0.0       0.0       0.0       2.9      81.1
14 P  s               0.0       0.0       0.0      99.4       0.0       0.0
15 S  s               0.0       0.0      99.9       0.0       0.0       0.0
16 O  py              0.0       0.0       0.0       0.1       0.0       0.0
18 O  pz              0.0       0.0       0.0       0.2       0.0       0.0

                     24        25        26        27        28        29   
                  -5.69338  -5.64584  -5.63762  -5.63651  -4.63400  -4.63388
                   2.00000   2.00000   2.00000   2.00000   2.00000   2.00000
                  --------  --------  --------  --------  --------  --------
13 S  pz             83.0       0.0       0.0       0.0       0.0       0.0
13 S  px              1.0       0.0       0.0       0.0       0.0       0.0
13 S  py             16.0       0.0       0.0       0.0       0.0       0.0
14 P  pz              0.0       0.0       0.0       0.0       0.0      81.5
14 P  px              0.0       0.0       0.0       0.0      68.5       6.0
14 P  py              0.0       0.0       0.0       0.0      31.4      12.3
15 S  pz              0.0      51.5      27.0      21.5       0.0       0.0
15 S  px              0.0       1.9      57.6      40.5       0.0       0.0
15 S  py              0.0      46.5      15.4      38.1       0.0       0.0

                     30        31        32        33        34        35   
                  -4.63234  -1.03384  -1.01724  -0.96940  -0.93651  -0.92357
                   2.00000   2.00000   2.00000   2.00000   2.00000   2.00000
                  --------  --------  --------  --------  --------  --------
 0 C  s               0.0       0.0       0.2       0.0       0.0       0.1
 0 C  py              0.0       0.0       0.5       0.0       0.0       0.1
 1 C  s               0.0       0.0       4.5       0.0       0.0       1.1
 1 C  pz              0.0       0.0       1.5       0.0       0.0       0.4
 1 C  px              0.0       0.0       0.6       0.0       0.0       0.0
 1 C  py              0.0       0.0       3.3       0.0       0.0       0.4
 1 C  dyz             0.0       0.0       0.3       0.0       0.0       0.1
 2 O  s               0.0       0.0      41.1       0.0       0.0       8.2
 2 O  pz              0.0       0.0       1.4       0.0       0.0       0.1
 2 O  px              0.0       0.0       1.8       0.0       0.0       0.1
 2 O  py              0.0       0.0       0.1       0.0       0.0       0.1
 3 C  s               0.0       0.0      19.0       0.0       0.0       2.6
 3 C  pz              0.0       0.0       0.4       0.0       0.0       5.8
 3 C  px              0.0       0.0       1.6       0.0       0.0       7.1
 3 C  py              0.0       0.0       3.1       0.0       0.0       0.3
 3 C  dz2             0.0       0.0       0.0       0.0       0.0       0.4
 3 C  dxz             0.0       0.0       0.5       0.0       0.0       0.3
 3 C  dx2y2           0.0       0.0       0.1       0.0       0.0       0.0
 3 C  dxy             0.0       0.0       0.5       0.0       0.0       0.2
 4 O  s               0.0       0.0      11.3       0.0       0.0      21.8
 4 O  pz              0.0       0.0       1.6       0.0       0.0       1.6
 4 O  px              0.0       0.0       1.2       0.0       0.0       0.7
 5 C  s               0.0       0.1       1.0       0.0       0.0       0.2
 5 C  pz              0.0       0.0       0.7       0.0       0.0       0.2
 5 C  py              0.0       0.1       1.1       0.0       0.0       0.0
 6 C  s               0.0       1.1       0.1       0.0       0.4       0.1
 6 C  pz              0.0       0.4       0.0       0.0       0.3       0.0
 6 C  px              0.0       0.0       0.1       0.0       0.4       0.0
 6 C  py              0.0       1.4       0.1       0.0       0.1       0.0
 7 H  s               0.0       0.2       0.0       0.0       0.0       0.1
 8 C  s               0.0      18.8       0.0       0.0       4.9       0.1
 8 C  pz              0.0       0.2       0.0       0.0       4.0       0.0
 8 C  px              0.0       0.8       0.0       0.3      19.2       0.2
 8 C  py              0.0       4.3       0.0       0.0       0.8       0.0
 8 C  dz2             0.0       0.3       0.0       0.0       0.0       0.0
 8 C  dxz             0.0       0.3       0.0       0.0       0.7       0.0
 8 C  dx2y2           0.0       0.1       0.0       0.0       0.4       0.0
 8 C  dxy             0.0       0.5       0.0       0.0       0.6       0.0
 9 O  s               0.0      10.2       0.0       0.4      40.8       0.4
 9 O  pz              0.0       0.6       0.0       0.0       1.3       0.0
 9 O  px              0.0       1.9       0.0       0.0       2.7       0.0
 9 O  py              0.0       0.0       0.0       0.0       0.2       0.0
10 O  s               0.0      42.1       0.0       0.3      13.4       0.2
10 O  pz              0.0       0.5       0.0       0.0       0.0       0.0
10 O  px              0.0       2.9       0.0       0.0       0.2       0.0
10 O  py              0.0       0.1       0.0       0.0       0.3       0.0
11 C  s               0.0       4.3       0.0       0.0       1.7       0.0
11 C  pz              0.0       0.7       0.0       0.0       0.3       0.0
11 C  px              0.0       0.0       0.0       0.0       0.1       0.0
11 C  py              0.0       4.7       0.0       0.0       1.0       0.0
11 C  dyz             0.0       0.2       0.0       0.0       0.1       0.0
11 C  dx2y2           0.0       0.2       0.0       0.0       0.1       0.0
12 C  s               0.0       0.2       0.0       0.0       0.1       0.0
12 C  py              0.0       0.3       0.0       0.0       0.1       0.0
13 S  s               0.0       0.1       0.0       0.3       0.1       0.0
13 S  px              0.0       0.0       0.0       0.3       0.0       0.0
14 P  s               0.0       0.1       0.0      13.9       0.0       0.0
14 P  pz             18.4       0.0       0.0       1.7       0.1       2.4
14 P  px             25.4       0.0       0.0       2.8       0.5       0.0
14 P  py             56.2       0.0       0.0       0.7       0.5       2.0
14 P  dz2             0.0       0.0       0.0       0.1       0.0       0.6
14 P  dxz             0.0       0.0       0.0       0.2       0.0       0.4
14 P  dyz             0.0       0.0       0.0       0.3       0.0       0.0
14 P  dxy             0.0       0.0       0.0       0.3       0.0       0.5
15 S  s               0.0       0.0       0.0       0.3       0.0       0.0
15 S  pz              0.0       0.0       0.0       0.2       0.0       0.0
15 S  py              0.0       0.0       0.0       0.2       0.0       0.0
16 O  s               0.0       0.0       0.0      23.9       2.4      15.3
16 O  pz              0.0       0.0       0.0       0.1       0.0       0.5
16 O  px              0.0       0.0       0.0       0.9       0.0       0.3
16 O  py              0.0       0.0       0.0       0.5       0.0       0.0
17 C  s               0.0       0.0       0.0       2.8       0.3       2.5
17 C  pz              0.0       0.0       0.0       2.2       0.2       1.6
17 C  py              0.0       0.0       0.0       0.9       0.1       0.6
17 C  dyz             0.0       0.0       0.0       0.2       0.0       0.1
18 O  s               0.0       0.0       0.0      33.0       0.0      12.7
18 O  pz              0.0       0.0       0.0       1.1       0.0       0.0
18 O  px              0.0       0.0       0.0       0.2       0.0       0.0
18 O  py              0.0       0.0       0.0       0.3       0.0       0.5
19 C  s               0.0       0.0       0.0       3.8       0.0       2.0
19 C  pz              0.0       0.0       0.0       0.9       0.0       0.3
19 C  px              0.0       0.0       0.0       0.2       0.1       0.1
19 C  py              0.0       0.0       0.0       3.2       0.0       1.4
19 C  dyz             0.0       0.0       0.0       0.2       0.0       0.1
19 C  dx2y2           0.0       0.0       0.0       0.2       0.0       0.1
23 H  s               0.0       0.0       0.8       0.0       0.0       0.0
24 H  s               0.0       0.0       0.5       0.0       0.0       0.2
25 H  s               0.0       0.1       0.1       0.0       0.0       0.0
26 H  s               0.0       0.0       0.2       0.0       0.0       0.0
27 H  s               0.0       0.7       0.0       0.0       0.1       0.0
28 H  s               0.0       0.5       0.0       0.0       0.3       0.0
[...]
19 C  dx2y2           0.1       0.0       2.6       0.9       0.0       0.0
19 C  dxy             0.0       0.0       0.8       0.1       0.0       0.0

                    312       313       314       315   
                   3.48532   3.50955   3.56223   3.58021
                   0.00000   0.00000   0.00000   0.00000
                  --------  --------  --------  --------
 1 C  s               0.2       0.1       0.0       0.0
 1 C  py              0.1       0.1       0.0       0.0
 1 C  dz2             0.1       0.0       0.2       0.0
 1 C  dxz             0.2       0.1       0.0       0.0
 1 C  dyz             0.1       0.1       0.3       0.2
 1 C  dx2y2           0.1       0.1       0.0       0.0
 1 C  dxy             0.2       0.1       0.0       0.0
 2 O  s               0.6       0.2       0.5       0.0
 2 O  pz              0.1       0.0       0.1       0.0
 2 O  px              1.1       0.6       0.1       0.0
 2 O  py              1.4       0.7       0.2       0.0
 2 O  dz2             5.2       2.0       3.2       0.4
 2 O  dxz             1.0       0.8       1.0       0.7
 2 O  dyz             4.4       3.1       0.3       0.5
 2 O  dx2y2           2.4       1.7       0.3       0.4
 2 O  dxy            10.9       3.9       7.4       1.0
 3 C  s               0.2       0.1       5.0       1.4
 3 C  pz              0.7       0.8       1.8       0.8
 3 C  px              1.5       1.2       0.5       0.4
 3 C  py              0.2       0.1       0.2       0.0
 3 C  dz2             2.7       2.1       0.1       0.3
 3 C  dxz             0.4       0.0       7.0       2.2
 3 C  dyz             3.7       2.2       1.3       0.1
 3 C  dx2y2           1.3       0.4       2.7       0.5
 3 C  dxy             3.9       2.2       0.2       0.0
 4 O  s               0.5       0.8       2.8       1.2
 4 O  pz              0.1       0.2       1.7       0.6
 4 O  px              0.4       0.5       0.4       0.2
 4 O  py              0.2       0.1       0.3       0.1
 4 O  dz2             0.1       0.2      13.5       3.9
 4 O  dxz             6.8       8.9      14.2       6.2
 4 O  dyz             4.0       1.5       6.4       1.3
 4 O  dx2y2           3.7       3.1       0.3       0.4
 4 O  dxy             0.8       0.2       2.5       0.6
 5 C  dz2             0.1       0.0       0.1       0.1
 5 C  dxz             0.2       0.3       0.0       0.0
 5 C  dyz             0.1       0.2       0.3       0.0
 5 C  dx2y2           0.1       0.3       0.2       0.0
 5 C  dxy             0.3       0.2       0.0       0.1
 6 C  py              0.1       0.2       0.0       0.1
 6 C  dxz             0.0       0.3       0.0       0.1
 6 C  dyz             0.1       0.2       0.0       0.2
 6 C  dx2y2           0.4       0.4       0.1       0.2
 6 C  dxy             0.0       0.3       0.1       0.2
 8 C  s               0.0       0.5       1.6       5.0
 8 C  pz              0.2       0.2       0.4       1.0
 8 C  px              1.7       1.5       1.0       1.8
 8 C  py              0.2       0.4       0.0       0.2
 8 C  dz2             0.7       1.3       0.0       0.3
 8 C  dxz             0.2       0.0       1.2       3.5
 8 C  dyz             1.2       1.9       0.0       0.6
 8 C  dx2y2           0.2       0.8       1.1       5.8
 8 C  dxy             4.6       8.8       0.1       0.4
 9 O  s               0.5       0.3       1.3       3.5
 9 O  pz              0.0       0.0       0.3       0.9
 9 O  px              0.6       0.4       0.8       1.8
 9 O  py              0.1       0.3       0.0       0.3
 9 O  dz2             0.5       0.6       0.0       0.0
 9 O  dxz             2.7       0.7       8.1      21.6
 9 O  dyz             1.2       3.4       0.3       2.8
 9 O  dx2y2           5.5       4.5       4.2       7.8
 9 O  dxy             1.4       4.0       1.1       6.8
10 O  s               0.3       0.9       0.0       0.3
10 O  px              0.4       0.7       0.0       0.1
10 O  py              1.1       2.0       0.0       0.1
10 O  dz2             1.9       3.7       0.1       1.3
10 O  dxz             0.0       0.0       0.2       0.8
10 O  dyz             1.1       1.2       0.5       0.6
10 O  dx2y2           0.5       0.2       1.4       4.1
10 O  dxy            11.0      19.3       0.0       2.9
11 C  s               0.1       0.2       0.0       0.0
11 C  py              0.1       0.2       0.0       0.0
11 C  dyz             0.0       0.0       0.1       0.2
11 C  dx2y2           0.3       0.4       0.0       0.0
11 C  dxy             0.0       0.1       0.0       0.3


                      *****************************
                      * MAYER POPULATION ANALYSIS *
                      *****************************

  NA   - Mulliken gross atomic population
  ZA   - Total nuclear charge
  QA   - Mulliken gross atomic charge
  VA   - Mayer's total valence
  BVA  - Mayer's bonded valence
  FA   - Mayer's free valence

  ATOM       NA         ZA         QA         VA         BVA        FA
  0 C      6.3050     6.0000    -0.3050     4.0162     4.0162    -0.0000
  1 C      6.0140     6.0000    -0.0140     4.0409     4.0409    -0.0000
  2 O      8.2296     8.0000    -0.2296     2.2800     2.2800    -0.0000
  3 C      5.8646     6.0000     0.1354     4.3717     4.3717    -0.0000
  4 O      8.1949     8.0000    -0.1949     2.3056     2.3056    -0.0000
  5 C      6.1254     6.0000    -0.1254     3.8785     3.8785     0.0000
  6 C      6.3109     6.0000    -0.3109     3.8988     3.8988    -0.0000
  7 H      0.8326     1.0000     0.1674     0.9956     0.9956    -0.0000
  8 C      5.7564     6.0000     0.2436     4.2308     4.2308     0.0000
  9 O      8.1938     8.0000    -0.1938     2.3070     2.3070    -0.0000
 10 O      8.2215     8.0000    -0.2215     2.3133     2.3133     0.0000
 11 C      6.0141     6.0000    -0.0141     4.0275     4.0275     0.0000
 12 C      6.3109     6.0000    -0.3109     4.0074     4.0074    -0.0000
 13 S     16.0985    16.0000    -0.0985     2.2493     2.2493    -0.0000
 14 P     14.3709    15.0000     0.6291     4.9645     4.9645    -0.0000
 15 S     16.3555    16.0000    -0.3555     2.0146     2.0146     0.0000
 16 O      8.3733     8.0000    -0.3733     2.1664     2.1664    -0.0000
 17 C      6.1010     6.0000    -0.1010     3.8150     3.8150    -0.0000
 18 O      8.3668     8.0000    -0.3668     2.1976     2.1976    -0.0000
 19 C      6.0846     6.0000    -0.0846     3.8205     3.8205     0.0000
 20 H      0.8695     1.0000     0.1305     0.9661     0.9661    -0.0000
 21 H      0.8849     1.0000     0.1151     0.9545     0.9545    -0.0000
 22 H      0.8839     1.0000     0.1161     0.9564     0.9564    -0.0000
 23 H      0.8891     1.0000     0.1109     0.9767     0.9767    -0.0000
 24 H      0.8951     1.0000     0.1049     0.9499     0.9499    -0.0000
 25 H      0.8606     1.0000     0.1394     0.9714     0.9714    -0.0000
 26 H      0.8829     1.0000     0.1171     0.9756     0.9756    -0.0000
 27 H      0.8870     1.0000     0.1130     0.9754     0.9754    -0.0000
 28 H      0.8921     1.0000     0.1079     0.9491     0.9491     0.0000
 29 H      0.8845     1.0000     0.1155     0.9541     0.9541     0.0000
 30 H      0.8819     1.0000     0.1181     0.9561     0.9561    -0.0000
 31 H      0.8583     1.0000     0.1417     0.9832     0.9832     0.0000
 32 H      0.8868     1.0000     0.1132     0.9758     0.9758    -0.0000
 33 H      0.8868     1.0000     0.1132     0.9908     0.9908    -0.0000
 34 H      0.8811     1.0000     0.1189     0.9548     0.9548     0.0000
 35 H      0.8823     1.0000     0.1177     0.9500     0.9500     0.0000
 36 H      0.8849     1.0000     0.1151     1.0011     1.0011    -0.0000
 37 H      0.8841     1.0000     0.1159     0.9652     0.9652    -0.0000

  Mayer bond orders larger than 0.100000
B(  0-C ,  1-C ) :   1.1750 B(  0-C , 20-H ) :   0.9457 B(  0-C , 21-H ) :   0.9439 
B(  0-C , 22-H ) :   0.9488 B(  1-C ,  2-O ) :   0.9111 B(  1-C , 23-H ) :   0.9135 
B(  1-C , 24-H ) :   0.9371 B(  2-O ,  3-C ) :   1.2444 B(  3-C ,  4-O ) :   2.0410 
B(  3-C ,  5-C ) :   0.9954 B(  5-C ,  6-C ) :   1.0914 B(  5-C , 25-H ) :   0.8683 
B(  5-C , 26-H ) :   0.9032 B(  6-C ,  7-H ) :   0.8272 B(  6-C ,  8-C ) :   0.9080 
B(  6-C , 13-S ) :   1.0238 B(  8-C ,  9-O ) :   1.9482 B(  8-C , 10-O ) :   1.2793 
B(  9-O , 14-P ) :   0.1018 B( 10-O , 11-C ) :   0.8958 B( 11-C , 12-C ) :   1.1784 
B( 11-C , 27-H ) :   0.9141 B( 11-C , 28-H ) :   0.9361 B( 12-C , 29-H ) :   0.9419 
B( 12-C , 30-H ) :   0.9480 B( 12-C , 31-H ) :   0.9357 B( 13-S , 14-P ) :   0.9347 
B( 13-S , 15-S ) :   0.1157 B( 14-P , 15-S ) :   1.5641 B( 14-P , 16-O ) :   1.0888 
B( 14-P , 18-O ) :   1.1415 B( 16-O , 17-C ) :   0.9449 B( 17-C , 32-H ) :   0.9404 
B( 17-C , 33-H ) :   0.9369 B( 17-C , 34-H ) :   0.9593 B( 18-O , 19-C ) :   0.9274 
B( 19-C , 35-H ) :   0.9544 B( 19-C , 36-H ) :   0.9348 B( 19-C , 37-H ) :   0.9539 


-------
TIMINGS
-------

Total SCF time: 0 days 0 hours 0 min 14 sec 

Total time                  ....      14.007 sec
Sum of individual times     ....      13.976 sec  ( 99.8%)

SCF preparation             ....       1.913 sec  ( 13.7%)
Fock matrix formation       ....       4.892 sec  ( 34.9%)
  Startup                   ....       0.009 sec  (  0.2% of F)
  Split-RI-J                ....       2.936 sec  ( 60.0% of F)
  XC integration            ....       1.699 sec  ( 34.7% of F)
    Basis function eval.    ....       0.694 sec  ( 40.8% of XC)
    Density eval.           ....       0.414 sec  ( 24.4% of XC)
    XC-Functional eval.     ....       0.100 sec  (  5.9% of XC)
    XC-Potential eval.      ....       0.405 sec  ( 23.8% of XC)
Diagonalization             ....       0.000 sec  (  0.0%)
Density matrix formation    ....       0.014 sec  (  0.1%)
Total Energy calculation    ....       0.001 sec  (  0.0%)
Population analysis         ....       7.063 sec  ( 50.4%)
Orbital Transformation      ....       0.019 sec  (  0.1%)
Orbital Orthonormalization  ....       0.000 sec  (  0.0%)
DIIS solution               ....       0.025 sec  (  0.2%)
  MO trafo                  ....       0.000 sec  (  0.0 % of DIIS)
  Orb grad                  ....       0.000 sec  (  0.0 % of DIIS)
  Energy W gradient         ....       0.000 sec  (  0.0 % of DIIS)
  DIIS error                ....       0.004 sec  ( 14.9 % of DIIS)
  DIIS work                 ....       0.021 sec  ( 84.0 % of DIIS)
  Form Q                    ....       0.000 sec  (  0.0 % of DIIS)
  Form QpQm                 ....       0.000 sec  (  0.0 % of DIIS)
  Exp/Cayley                ....       0.000 sec  (  0.0 % of DIIS)
  Orb update                ....       0.000 sec  (  0.0 % of DIIS)
  Wake-sleep                ....       0.000 sec  (  1.1 % of DIIS)
SOSCF solution              ....       0.048 sec  (  0.3%)
  MO trafo                  ....       0.030 sec  ( 62.3 % of SOSCF)
  Orb grad                  ....       0.000 sec  (  0.7 % of SOSCF)
  Rot update                ....       0.002 sec  (  4.2 % of SOSCF)
  Step                      ....       0.016 sec  ( 32.3 % of SOSCF)
Finished LeanSCF after  21.6 sec

Maximum memory used throughout the entire LEANSCF-calculation: 32.5 MB


-------------------------------------------------------------------------------
                          DFT DISPERSION CORRECTION                            
                                                                               
                                DFTD4 V3.4.0                                   
-------------------------------------------------------------------------------
The PBE functional is recognized
Active option DFTDOPT                   ...         5   

-------------------------   ----------------
Dispersion correction           -0.050190823
-------------------------   ----------------

------------------   -----------------
gCP correction             0.181913138
------------------   -----------------

-------------------------   --------------------
FINAL SINGLE POINT ENERGY     -1979.017920027219
-------------------------   --------------------


------------------------------------------------------------------------------
                              ORCA PROPERTY CALCULATIONS
------------------------------------------------------------------------------

GBWName                                 ... sp.gbw
Number of atoms                         ...     38
Number of basis functions               ...    316
Max core memory                         ...   1024 MB

Electric properties:
Dipole moment                           ... YES
Quadrupole moment                       ...  NO
Static polarizability (Dipole/Dipole)   ...  NO
Static polarizability (Dipole/Quad.)    ...  NO
Static polarizability (Quad./Quad.)     ...  NO
Static polarizability (Velocity)        ...  NO

Atomic electric properties:
Dipole moment                           ...  NO
Quadrupole moment                       ...  NO
Static polarizability                   ...  NO

Choice of electric origin               ... Center of mass
Position of electric origin             ...     0.000001     0.000002    -0.000003

General magnetic properties:
Magnetizability                         ...  NO

EPR properties:
g-Tensor (aka g-matrix)                 ...  NO
Zero-Field splitting spin-orbit         ...  NO
Zero-field splitting spin-spin          ...  NO
Hyperfine couplings                     ...  NO (   0 nuclei)
Quadrupole couplings                    ...  NO (   0 nuclei)
Contact density                         ...  NO (   0 nuclei)

NMR properties:
Chemical shifts                         ...  NO (   0 nuclei)
Spin-rotation constants                 ...  NO (   0 nuclei)
Spin-spin couplings                     ...  NO (   0 nuclei,    0 pairs)

Choice of magnetic origin               ... GIAO
Position of magnetic origin             ...     0.000000     0.000000     0.000000

Properties with geometric perturbations:
SCF Hessian                             ...  NO
IR spectrum                             ...  NO
VCD spectrum                            ...  NO
X-ray spectroscopy properties:
SCF XES/XAS/RIXS spectra                ...  NO


-------------
DIPOLE MOMENT
-------------

Method             : SCF
Type of density    : Electron Density
Multiplicity       :   1
Irrep              :   0
Energy             : -1979.1496423422281623 Eh
Relativity type    : 
Basis              : AO
                                X                 Y                 Z
Electronic contribution:    -10.227646338      -0.239137364       2.314950553
Nuclear contribution   :     11.949743885       0.447551642      -1.763928596
                        -----------------------------------------
Total Dipole Moment    :      1.722097547       0.208414278       0.551021956
                        -----------------------------------------
Magnitude (a.u.)       :      1.820077380
Magnitude (Debye)      :      4.626269044



--------------------
Rotational spectrum 
--------------------
 
Rotational constants in cm-1:             0.012003             0.006843             0.005025 
Rotational constants in MHz :           359.839599           205.137616           150.633857 

Dipole components along the rotational axes: 
x,y,z [a.u.] :    -0.970470     1.395791     0.650105 
x,y,z [Debye]:    -2.466740     3.547818     1.652437 

 

Dipole moment calculation done in   2.5 sec 

Maximum memory used throughout the entire PROP-calculation: 22.6 MB

--------------------------------
SUGGESTED CITATIONS FOR THIS RUN
--------------------------------

Below you find a list of papers that are relevant to this ORCA run
We neither can nor want to force you to cite these papers, but we appreciate if you do
You receive ORCA, which is the product of decades of hard work by many enthusiastic individuals, for free
The only thing we kindly ask in return is that you cite our papers,
We deeply appreciate it, if you show your appreciation for ORCA by not just citing the generic ORCA reference.

Please note that relegating all ORCA citations to the supporting information does *not* help us.
SI sections are not indexed - citations you put there will not count into any citation statistics
But we need these citations in order to attract the funding resources that allow us to do what we are doing

Therefore, if you are a happy ORCA user, please consider citing a few of the papers listed below in the main body of your paper

In addition to the list printed below, the program has created the file sp.bibtex that contains the list in bibtex format
You can import this file easily into all common literature databanks and citation aid programs


List of essential papers. We consider these as the minimum necessary citations

  1. Neese,F.
     Software update: the ORCA program system, version 5.0
     WIRES Comput. Molec. Sci., 2022 12(1)e1606
     doi.org/10.1002/wcms.1606

List of papers to cite with high priority. The work reported in these papers was absolutely
necessary for this run to complete.
Our perspective: the developers of density functionals and basis sets usually get cited in chemistry papers
Good! But without the algorithms to do something with them, the functionals or basis sets would not do anything.
Hence, in our opinion, the algorithm design and method developments papers are equally worthy of getting cited

  1. Neese,F.
     An improvement of the resolution of the identity approximation for the formation of the Coulomb matrix
     J. Comp. Chem., 2003 24(14)1740-1747
     doi.org/10.1002/jcc.10318
  2. Neese,F.
     The SHARK Integral Generation and Digestion System
     J. Comp. Chem., 2022  1-16
     doi.org/10.1002/jcc.26942
  3. Caldeweyher,E.; Bannwarth,C.; Grimme,S.
     Extension of the D3 dispersion coefficient model
     J. Chem. Phys., 2017 147 034112
     doi.org/10.1063/1.4993215
  4. Caldeweyher,E.; Ehlert,S.; Hansen,A.; Neugebauer,H.; Spicher,S.; Bannwarth,C.; Grimme,S.
     A generally applicable atomic-charge dependent London dispersion correction
     J. Chem. Phys., 2019 150 154122
     doi.org/10.1063/1.5090222
  5. Caldeweyher,E.; Mewes,J.; Ehlert,S.; Grimme,S.
     Extension and evaluation of the D4 London-dispersion model for periodic systems
     Phys. Chem. Chem. Phys., 2020 22(16)8499-8512
     doi.org/10.1039/D0CP00502A
  6. Wittmann,L.; Gordiy,I.; Friede,M.; Helmich-Paris,B.; Grimme,S.; Hansen,A.; Bursch,M.
     Extension of the D3 and D4 London Dispersion Corrections to the full Actinides Series
     Phys. Chem. Chem. Phys., 2024 26(32)21379-21394
     doi.org/https://doi.org/10.1039/D4CP01514B 

List of suggested additional citations. These are papers that are important in the 'surrounding' of 
of this run, or papers that preceded the highly important papers. If you like your results we are grateful for a citation.

  1. Neese,F.
     The ORCA program system
     WIRES Comput. Molec. Sci., 2012 2(1)73-78
     doi.org/10.1002/wcms.81
  2. Neese,F.
     Software update: the ORCA program system, version 4.0
     WIRES Comput. Molec. Sci., 2018 8(1)1-6
     doi.org/10.1002/wcms.1327
  3. Neese,F.; Wennmohs,F.; Becker,U.; Riplinger,C.
     The ORCA quantum chemistry program package
     J. Chem. Phys., 2020 152 Art. No. L224108
     doi.org/10.1063/5.0004608

List of optional additional citations

  1. Neese,F.
     Approximate second-order SCF convergence for spin unrestricted wavefunctions
     Chem. Phys. Lett., 2000 325(1-3)93-98
     doi.org/10.1016/s0009-2614(00)00662-x

Timings for individual modules:

Sum of individual times          ...       25.423 sec (=   0.424 min)
Startup calculation              ...        1.119 sec (=   0.019 min)   4.4 %
SCF iterations                   ...       21.744 sec (=   0.362 min)  85.5 %
Property calculations            ...        2.560 sec (=   0.043 min)  10.1 %
                             ****ORCA TERMINATED NORMALLY****
TOTAL RUN TIME: 0 days 0 hours 0 minutes 38 seconds 655 msec
