      -----------------------------------------------------------      
     |                   =====================                   |     
     |                           x T B                           |     
     |                   =====================                   |     
     |                         S. Grimme                         |     
     |          Mulliken Center for Theoretical Chemistry        |     
     |                    University of Bonn                     |     
      -----------------------------------------------------------      

   * xtb version 6.7.1 (edcfbbe) compiled by 'albert@albert-system' on 2024-07-22

   xtb is free software: you can redistribute it and/or modify it under
   the terms of the GNU Lesser General Public License as published by
   the Free Software Foundation, either version 3 of the License, or
   (at your option) any later version.
   
   xtb is distributed in the hope that it will be useful,
   but WITHOUT ANY WARRANTY; without even the implied warranty of
   MERCHANTABILITY or FITNESS FOR A PARTICULAR PURPOSE.  See the
   GNU Lesser General Public License for more details.
   
   Cite this work as:
   * C. Bannwarth, E. Caldeweyher, S. Ehlert, A. Hansen, P. Pracht,
     J. Seibert, S. Spicher, S. Grimme, WIREs Comput. Mol. Sci., 2020, 11,
     e01493. DOI: 10.1002/wcms.1493
   
   for GFN2-xTB:
   * C. Bannwarth, S. Ehlert and S. Grimme., J. Chem. Theory Comput., 2019,
     15, 1652-1671. DOI: 10.1021/acs.jctc.8b01176
   for GFN1-xTB:
   * S. Grimme, C. Bannwarth, P. Shushkov, J. Chem. Theory Comput., 2017,
     13, 1989-2009. DOI: 10.1021/acs.jctc.7b00118
   for GFN0-xTB:
   * P. Pracht, E. Caldeweyher, S. Ehlert, S. Grimme, ChemRxiv, 2019, preprint.
     DOI: 10.26434/chemrxiv.8326202.v1
   for GFN-FF:
   * S. Spicher and S. Grimme, Angew. Chem. Int. Ed., 2020, 59, 15665-15673.
     DOI: 10.1002/anie.202004239
   
   for ALPB and GBSA implicit solvation:
   * S. Ehlert, M. Stahn, S. Spicher, S. Grimme, J. Chem. Theory Comput.,
     2021, 17, 4250-4261. DOI: 10.1021/acs.jctc.1c00471
   
   for ddCOSMO and CPCM-X implicit solvation:
   * M. Stahn, S. Ehlert, S. Grimme, J. Phys. Chem. A,
     2023, XX, XXXX-XXXX. DOI: 10.1021/acs.jpca.3c04382
   
   for DFT-D4:
   * E. Caldeweyher, C. Bannwarth and S. Grimme, J. Chem. Phys., 2017,
     147, 034112. DOI: 10.1063/1.4993215
   * E. Caldeweyher, S. Ehlert, A. Hansen, H. Neugebauer, S. Spicher,
     C. Bannwarth and S. Grimme, J. Chem. Phys., 2019, 150, 154122.
     DOI: 10.1063/1.5090222
   * E. Caldeweyher, J.-M. Mewes, S. Ehlert and S. Grimme, Phys. Chem. Chem. Phys.
     2020, 22, 8499-8512. DOI: 10.1039/D0CP00502A
   
   for sTDA-xTB:
   * S. Grimme and C. Bannwarth, J. Chem. Phys., 2016, 145, 054103.
     DOI: 10.1063/1.4959605
   
   in the mass-spec context:
   * V. Asgeirsson, C. Bauer and S. Grimme, Chem. Sci., 2017, 8, 4879.
     DOI: 10.1039/c7sc00601b
   * J. Koopman and S. Grimme, ACS Omega 2019, 4, 12, 15120-15133.
     DOI: 10.1021/acsomega.9b02011
   
   for metadynamics refer to:
   * S. Grimme, J. Chem. Theory Comput., 2019, 155, 2847-2862
     DOI: 10.1021/acs.jctc.9b00143
   
   for SPH calculations refer to:
   * S. Spicher and S. Grimme, J. Chem. Theory Comput., 2021, 17, 1701-1714
     DOI: 10.1021/acs.jctc.0c01306
   
   for ONIOM refer to:
   * C. Plett, A. Katbashev, S. Ehlert, S. Grimme, M. Bursch,
     Phys. Chem. Chem. Phys., 2023, 25, 17860-17868. DOI: 10.1039/D3CP02178E
   
   for DIPRO refer to:
   * J. Kohn, N. Gildemeister, S. Grimme, D. Fazzi, A. Hansen,
     J. Chem. Phys., 2023, just accepted.
   
   for PTB refer to:
   * S. Grimme, M. Mueller, A. Hansen, J. Chem. Phys., 2023, 158, 124111.
     DOI: 10.1063/5.0137838
   
   with help from (in alphabetical order)
   P. Atkinson, C. Bannwarth, F. Bohle, G. Brandenburg, E. Caldeweyher
   M. Checinski, S. Dohm, S. Ehlert, S. Ehrlich, I. Gerasimov, C. Hölzer
   A. Katbashev, J. Kohn, J. Koopman, C. Lavigne, S. Lehtola, F. März, M. Müller,
   F. Musil, H. Neugebauer, J. Pisarek, C. Plett, P. Pracht, F. Pultar,
   J. Seibert, P. Shushkov, S. Spicher, M. Stahn, M. Steiner, T. Strunk,
   J. Stückrath, T. Rose, and J. Unsleber
   
 * started run on 2025/04/09 at 13:56:46.140     
   ID    Z sym.   atoms
    1    6 C      1, 2, 7, 8, 10, 15, 16, 18, 19
    2    8 O      3, 6, 14, 17
    3   15 P      4, 12
    4   16 S      5, 9, 11, 13
    5    1 H      20-41

           -------------------------------------------------
          |                Calculation Setup                |
           -------------------------------------------------

          program call               : /srv/scratch/z5358697/.xtb/bin/xtb xtb_rrho.coord --gfn2 --bhess vtight --chrg 0 --enso --norestart -I rrho-xcontrol-inp --parallel 1 --alpb water
          hostname                   : k163
          coordinate file            : xtb_rrho.coord
          omp threads                :                     1


           -------------------------------------------------
          |                 G F N 2 - x T B                 |
           -------------------------------------------------

        Reference                      10.1021/acs.jctc.8b01176
      * Hamiltonian:
        H0-scaling (s, p, d)           1.850000    2.230000    2.230000
        zeta-weighting                 0.500000
      * Dispersion:
        s8                             2.700000
        a1                             0.520000
        a2                             5.000000
        s9                             5.000000
      * Repulsion:
        kExp                           1.500000    1.000000
        rExp                           1.000000
      * Coulomb:
        alpha                          2.000000
        third order                    shell-resolved
        anisotropic                    true
        a3                             3.000000
        a5                             4.000000
        cn-shift                       1.200000
        cn-exp                         4.000000
        max-rad                        5.000000

      * Solvation model:               ALPB
        Solvent                        water
        Parameter file                 internal GFN2-xTB/ALPB
        Dielectric constant                8.0200E+01
        Reference state                gsolv [1 M gas/solution]
        Free energy shift                  1.0808E-03 Eh       6.7819E-01 kcal/mol
        Temperature                        2.9815E+02 K
        Density                            1.0000E+00 kg/L
        Solvent mass                       1.8000E+01 g/mol
        Interaction kernel             P16
        Born radius scaling (c1)           1.4744E+00
        Born radii integrator          GBOBC
        Born offset                        0.0000E+00 a0       0.0000E+00 AA
        H-bond correction              true
        Ion screening                  false
        Surface tension                    1.0000E-05 Eh       1.5569E+01 dyn/cm
        Grid points                               974 per atom

          ...................................................
          :                      SETUP                      :
          :.................................................:
          :  # basis functions                 134          :
          :  # atomic orbitals                 128          :
          :  # shells                           66          :
          :  # electrons                       116          :
          :  max. iterations                   250          :
          :  Hamiltonian                  GFN2-xTB          :
          :  restarted?                      false          :
          :  GBSA solvation                   true          :
          :  PC potential                    false          :
          :  electronic temp.          300.0000000     K    :
          :  accuracy                    1.0000000          :
          :  -> integral cutoff          0.2500000E+02      :
          :  -> integral neglect         0.1000000E-07      :
          :  -> SCF convergence          0.1000000E-05 Eh   :
          :  -> wf. convergence          0.1000000E-03 e    :
          :  Broyden damping             0.4000000          :
          :  net charge                          0          :
          :  unpaired electrons                  0          :
          ...................................................

 iter      E             dE          RMSdq      gap      omega  full diag
   1    -65.4157590 -0.654158E+02  0.637E+00    4.19       0.0  T
   2    -65.5379576 -0.122199E+00  0.359E+00    3.56       1.0  T
   3    -65.5567914 -0.188338E-01  0.104E+00    3.13       1.0  T
   4    -65.5600268 -0.323539E-02  0.464E-01    3.07       1.0  T
   5    -65.5607759 -0.749108E-03  0.247E-01    3.13       1.0  T
   6    -65.5609833 -0.207399E-03  0.114E-01    3.13       1.0  T
   7    -65.5610271 -0.437918E-04  0.404E-02    3.15       1.0  T
   8    -65.5610306 -0.359117E-05  0.158E-02    3.15       1.0  T
   9    -65.5610313 -0.693129E-06  0.432E-03    3.15       3.6  T
  10    -65.5610313 -0.766822E-08  0.211E-03    3.15       7.4  T
  11    -65.5610314 -0.284995E-07  0.494E-04    3.15      31.6  T
  12    -65.5610314 -0.221505E-09  0.253E-04    3.15      61.8  T

   *** convergence criteria satisfied after 12 iterations ***

         #    Occupation            Energy/Eh            Energy/eV
      -------------------------------------------------------------
         1        2.0000           -0.7616364             -20.7252
       ...           ...                  ...                  ...
        52        2.0000           -0.4461033             -12.1391
        53        2.0000           -0.4215361             -11.4706
        54        2.0000           -0.4160021             -11.3200
        55        2.0000           -0.3979546             -10.8289
        56        2.0000           -0.3962832             -10.7834
        57        2.0000           -0.3956766             -10.7669
        58        2.0000           -0.3950419             -10.7496 (HOMO)
        59                         -0.2794009              -7.6029 (LUMO)
        60                         -0.2511099              -6.8330
        61                         -0.2224684              -6.0537
        62                         -0.1965808              -5.3492
        63                         -0.1829724              -4.9789
       ...                                ...                  ...
       128                          1.2415413              33.7841
      -------------------------------------------------------------
                  HL-Gap            0.1156411 Eh            3.1468 eV
             Fermi-level           -0.3372214 Eh           -9.1763 eV

 SCC (total)                   0 d,  0 h,  0 min,  0.078 sec
 SCC setup                      ...        0 min,  0.002 sec (  3.206%)
 Dispersion                     ...        0 min,  0.000 sec (  0.376%)
 classical contributions        ...        0 min,  0.000 sec (  0.074%)
 integral evaluation            ...        0 min,  0.032 sec ( 41.789%)
 iterations                     ...        0 min,  0.023 sec ( 29.618%)
 molecular gradient             ...        0 min,  0.019 sec ( 24.691%)
 printout                       ...        0 min,  0.000 sec (  0.229%)

         :::::::::::::::::::::::::::::::::::::::::::::::::::::
         ::                     SUMMARY                     ::
         :::::::::::::::::::::::::::::::::::::::::::::::::::::
         :: total energy             -65.021226544826 Eh    ::
         :: total w/o Gsasa/hb       -65.022531758044 Eh    ::
         :: gradient norm              0.054147252752 Eh/a0 ::
         :: HOMO-LUMO gap              3.146753194071 eV    ::
         ::.................................................::
         :: SCC energy               -65.560201767902 Eh    ::
         :: -> isotropic ES            0.123075123293 Eh    ::
         :: -> anisotropic ES         -0.012934976570 Eh    ::
         :: -> anisotropic XC          0.031645394033 Eh    ::
         :: -> dispersion             -0.049628836389 Eh    ::
         :: -> Gsolv                  -0.019975602845 Eh    ::
         ::    -> Gelec               -0.021280816064 Eh    ::
         ::    -> Gsasa                0.004353346356 Eh    ::
         ::    -> Ghb                 -0.004128892836 Eh    ::
         ::    -> Gshift               0.001080759698 Eh    ::
         :: repulsion energy           0.538975223076 Eh    ::
         :: add. restraining           0.000000000000 Eh    ::
         :: total charge              -0.000000000000 e     ::
         :::::::::::::::::::::::::::::::::::::::::::::::::::::

metadynamics with 1 initial structures loaded
           -------------------------------------------------
          |           Optimal kpush determination           |
           -------------------------------------------------
      ----------------------------------------------------------- 
     |                   =====================                   |
     |                        A N C O P T                        |
     |                   =====================                   |
     |               Approximate Normal Coordinate               |
     |                Rational Function Optimizer                |
      ----------------------------------------------------------- 
target rmsd / Å         0.100000
unbiased initial rmsd   0.149858
 
iter. min.        max.        rmsd       kpush
      ----------------------------------------------------------- 
     |                   =====================                   |
     |                        A N C O P T                        |
     |                   =====================                   |
     |               Approximate Normal Coordinate               |
     |                Rational Function Optimizer                |
      ----------------------------------------------------------- 
 1    0.000000    1.863636    0.015035   -0.931818
      ----------------------------------------------------------- 
     |                   =====================                   |
     |                        A N C O P T                        |
     |                   =====================                   |
     |               Approximate Normal Coordinate               |
     |                Rational Function Optimizer                |
      ----------------------------------------------------------- 
 2    0.000000    0.931818    0.021246   -0.465909
      ----------------------------------------------------------- 
     |                   =====================                   |
     |                        A N C O P T                        |
     |                   =====================                   |
     |               Approximate Normal Coordinate               |
     |                Rational Function Optimizer                |
      ----------------------------------------------------------- 
 3    0.000000    0.465909    0.030676   -0.232955
      ----------------------------------------------------------- 
     |                   =====================                   |
     |                        A N C O P T                        |
     |                   =====================                   |
     |               Approximate Normal Coordinate               |
     |                Rational Function Optimizer                |
      ----------------------------------------------------------- 
 4    0.000000    0.232955    0.044445   -0.116477
      ----------------------------------------------------------- 
     |                   =====================                   |
     |                        A N C O P T                        |
     |                   =====================                   |
     |               Approximate Normal Coordinate               |
     |                Rational Function Optimizer                |
      ----------------------------------------------------------- 
 5    0.000000    0.116477    0.061816   -0.058239
      ----------------------------------------------------------- 
     |                   =====================                   |
     |                        A N C O P T                        |
     |                   =====================                   |
     |               Approximate Normal Coordinate               |
     |                Rational Function Optimizer                |
      ----------------------------------------------------------- 
 6    0.000000    0.058239    0.081104   -0.029119
      ----------------------------------------------------------- 
     |                   =====================                   |
     |                        A N C O P T                        |
     |                   =====================                   |
     |               Approximate Normal Coordinate               |
     |                Rational Function Optimizer                |
      ----------------------------------------------------------- 
 7    0.000000    0.029119    0.099591   -0.014560
final kpush: -0.014560
           -------------------------------------------------
          |            Biased Numerical Hessian             |
           -------------------------------------------------
kpush                :  -0.01456
alpha                :   1.00000
step length          :   0.00500
SCC accuracy         :   0.30000
Hessian scale factor :   1.00000
frozen atoms in %    :   0.00000    0
RMS gradient         :   0.00004
estimated CPU  time      0.15 min
estimated wall time      0.15 min

writing file <hessian>.

 projected vibrational frequencies (cm⁻¹)
eigval :       -0.00    -0.00     0.00     0.00     0.00     0.00
eigval :       45.65    46.07    47.33    51.09    52.30    52.08
eigval :       54.69    61.21    73.18    71.51    73.62    83.09
eigval :       97.08   103.84   104.24   130.49   136.79   154.71
eigval :      163.49   175.56   178.23   202.26   202.75   215.67
eigval :      216.42   244.99   269.48   271.37   287.48   299.68
eigval :      319.10   337.92   338.46   381.97   388.02   416.37
eigval :      424.36   471.02   483.22   620.58   627.11   667.57
eigval :      696.88   750.99   757.94   786.33   788.69   804.46
eigval :      821.29   822.22   827.33   827.37   916.49   917.05
eigval :      942.35   942.66  1037.72  1037.87  1051.53  1051.73
eigval :     1076.96  1094.75  1095.22  1101.30  1101.31  1132.65
eigval :     1132.86  1134.43  1134.61  1159.86  1237.13  1237.56
eigval :     1237.92  1238.32  1308.94  1311.03  1315.32  1315.29
eigval :     1353.89  1391.67  1391.56  1391.99  1391.94  1440.10
eigval :     1442.73  1456.34  1456.30  1458.52  1458.57  1459.61
eigval :     1459.68  1475.54  1475.61  1477.36  1477.53  2920.47
eigval :     2920.85  2921.57  2921.73  2942.42  2942.72  2972.36
eigval :     2979.86  2980.13  2985.81  3018.35  3018.35  3048.67
eigval :     3048.77  3053.50  3053.52  3056.27  3056.33  3057.03
eigval :     3057.28  3062.59  3062.63
           -------------------------------------------------
          |                Property Printout                |
           -------------------------------------------------

    * Orbital Energies and Occupations

         #    Occupation            Energy/Eh            Energy/eV
      -------------------------------------------------------------
         1        2.0000           -0.7675648             -20.8865
       ...           ...                  ...                  ...
        46        2.0000           -0.4692793             -12.7697
        47        2.0000           -0.4644971             -12.6396
        48        2.0000           -0.4587498             -12.4832
        49        2.0000           -0.4569732             -12.4349
        50        2.0000           -0.4568607             -12.4318
        51        2.0000           -0.4475028             -12.1772
        52        2.0000           -0.4456791             -12.1275
        53        2.0000           -0.4232317             -11.5167
        54        2.0000           -0.4144563             -11.2779
        55        2.0000           -0.3974267             -10.8145
        56        2.0000           -0.3955781             -10.7642
        57        2.0000           -0.3931576             -10.6984
        58        2.0000           -0.3927305             -10.6867 (HOMO)
        59                         -0.2801369              -7.6229 (LUMO)
        60                         -0.2546502              -6.9294
        61                         -0.2147908              -5.8448
        62                         -0.1915327              -5.2119
        63                         -0.1774278              -4.8281
        64                         -0.1750391              -4.7631
        65                         -0.1662984              -4.5252
        66                         -0.1528112              -4.1582
        67                         -0.1428270              -3.8865
        68                         -0.1331846              -3.6241
        69                         -0.0518459              -1.4108
       ...                                ...                  ...
       128                          1.2549438              34.1488
      -------------------------------------------------------------
                  HL-Gap            0.1125937 Eh            3.0638 eV
             Fermi-level           -0.3364337 Eh           -9.1548 eV

     #   Z          covCN         q      C6AA      α(0)
     1   6 C        3.751    -0.127    22.991     6.838
     2   6 C        3.868     0.084    19.154     6.223
     3   8 O        1.655    -0.257    18.281     5.772
     4  15 P        3.885     0.373   144.727    21.610
     5  16 S        0.926    -0.463   159.642    21.371
     6   8 O        1.655    -0.256    18.264     5.769
     7   6 C        3.870     0.083    19.157     6.224
     8   6 C        3.751    -0.134    23.136     6.859
     9  16 S        2.011    -0.146   147.220    20.421
    10   6 C        3.821     0.038    19.924     6.352
    11  16 S        2.011    -0.146   147.214    20.421
    12  15 P        3.885     0.373   144.718    21.610
    13  16 S        0.926    -0.463   159.646    21.371
    14   8 O        1.655    -0.257    18.283     5.772
    15   6 C        3.868     0.083    19.155     6.224
    16   6 C        3.751    -0.127    22.990     6.838
    17   8 O        1.655    -0.256    18.267     5.770
    18   6 C        3.870     0.083    19.159     6.224
    19   6 C        3.751    -0.134    23.135     6.859
    20   1 H        0.925     0.085     1.926     2.171
    21   1 H        0.925     0.056     2.252     2.347
    22   1 H        0.925     0.073     2.049     2.239
    23   1 H        0.924     0.085     1.925     2.170
    24   1 H        0.924     0.062     2.180     2.309
    25   1 H        0.924     0.061     2.182     2.310
    26   1 H        0.924     0.062     2.175     2.306
    27   1 H        0.925     0.085     1.926     2.170
    28   1 H        0.925     0.076     2.020     2.223
    29   1 H        0.925     0.072     2.063     2.246
    30   1 H        0.925     0.108     1.717     2.049
    31   1 H        0.925     0.108     1.717     2.049
    32   1 H        0.924     0.086     1.923     2.168
    33   1 H        0.924     0.062     2.181     2.309
    34   1 H        0.925     0.073     2.049     2.239
    35   1 H        0.925     0.085     1.926     2.170
    36   1 H        0.925     0.055     2.253     2.347
    37   1 H        0.924     0.061     2.184     2.311
    38   1 H        0.924     0.062     2.173     2.305
    39   1 H        0.925     0.076     2.020     2.222
    40   1 H        0.925     0.072     2.066     2.247
    41   1 H        0.925     0.085     1.927     2.171

 Mol. C6AA /au·bohr⁶  :      26403.211990
 Mol. C8AA /au·bohr⁸  :     862681.860441
 Mol. α(0) /au        :        257.608622


Wiberg/Mayer (AO) data.
largest (>0.10) Wiberg bond orders for each atom

 ---------------------------------------------------------------------------
     #   Z sym  total        # sym  WBO       # sym  WBO       # sym  WBO
 ---------------------------------------------------------------------------
     1   6 C    3.986 --     2 C    1.023    22 H    0.982    21 H    0.977
                            20 H    0.975
     2   6 C    3.887 --     1 C    1.023    23 H    0.966    24 H    0.966
                             3 O    0.875
     3   8 O    2.404 --     4 P    1.330     2 C    0.875
     4  15 P    5.300 --     5 S    1.519     3 O    1.330     6 O    1.328
                             9 S    0.983
     5  16 S    1.844 --     4 P    1.519     9 S    0.134
     6   8 O    2.408 --     4 P    1.328     7 C    0.882
     7   6 C    3.890 --     8 C    1.018    26 H    0.971    25 H    0.967
                             6 O    0.882
     8   6 C    3.981 --     7 C    1.018    29 H    0.983    28 H    0.982
                            27 H    0.975
     9  16 S    2.290 --    10 C    0.986     4 P    0.983     5 S    0.134
    10   6 C    3.948 --     9 S    0.986    11 S    0.986    31 H    0.954
                            30 H    0.954
    11  16 S    2.290 --    10 C    0.986    12 P    0.983    13 S    0.134
    12  15 P    5.299 --    13 S    1.518    14 O    1.330    17 O    1.328
                            11 S    0.983
    13  16 S    1.844 --    12 P    1.518    11 S    0.134
    14   8 O    2.403 --    12 P    1.330    15 C    0.875
    15   6 C    3.887 --    16 C    1.023    33 H    0.966    32 H    0.966
                            14 O    0.875
    16   6 C    3.986 --    15 C    1.023    34 H    0.982    36 H    0.977
                            35 H    0.975
    17   8 O    2.407 --    12 P    1.328    18 C    0.882
    18   6 C    3.890 --    19 C    1.018    38 H    0.971    37 H    0.967
                            17 O    0.882
    19   6 C    3.981 --    18 C    1.018    40 H    0.983    39 H    0.982
                            41 H    0.975
    20   1 H    0.992 --     1 C    0.975
    21   1 H    0.997 --     1 C    0.977
    22   1 H    0.995 --     1 C    0.982
    23   1 H    0.992 --     2 C    0.966
    24   1 H    0.996 --     2 C    0.966
    25   1 H    0.996 --     7 C    0.967
    26   1 H    0.996 --     7 C    0.971
    27   1 H    0.991 --     8 C    0.975
    28   1 H    0.994 --     8 C    0.982
    29   1 H    0.995 --     8 C    0.983
    30   1 H    0.988 --    10 C    0.954
    31   1 H    0.988 --    10 C    0.954
    32   1 H    0.992 --    15 C    0.966
    33   1 H    0.996 --    15 C    0.966
    34   1 H    0.995 --    16 C    0.982
    35   1 H    0.992 --    16 C    0.975
    36   1 H    0.997 --    16 C    0.977
    37   1 H    0.996 --    18 C    0.967
    38   1 H    0.996 --    18 C    0.971
    39   1 H    0.994 --    19 C    0.982
    40   1 H    0.995 --    19 C    0.983
    41   1 H    0.991 --    19 C    0.975
 ---------------------------------------------------------------------------

Topologies differ in total number of bonds
Writing topology from bond orders to xtbtopo.mol

molecular dipole:
                 x           y           z       tot (Debye)
 q only:       -0.141       0.145       2.209
   full:       -0.153       0.163       2.453       6.261
molecular quadrupole (traceless):
                xx          xy          yy          xz          yz          zz
 q only:       18.356      28.546     -14.621      -0.605       2.363      -3.735
  q+dip:       14.984      27.704     -15.144      -0.940       2.600       0.161
   full:       15.877      28.976     -14.902      -0.912       2.584      -0.975

           -------------------------------------------------
          |                Geometry Summary                 |
           -------------------------------------------------

      molecular mass/u    :      384.4756129
   center of mass at/Å    :        0.0004513       0.0002033       0.0027656
  moments of inertia/u·Å² :        0.1283351E+04   0.3737536E+04   0.3768145E+04
rotational constants/cm⁻¹ :        0.1313564E-01   0.4510360E-02   0.4473721E-02

 * 38 selected distances

     #   Z          #   Z                                           value/Å
     1   6 C        2   6 C                                       1.5140661
     2   6 C        3   8 O                                       1.4420000
     3   8 O        4  15 P                                       1.5798112
     4  15 P        5  16 S                                       1.9627089
     4  15 P        6   8 O                                       1.5873384
     6   8 O        7   6 C                                       1.4435511
     7   6 C        8   6 C                                       1.5156740
     4  15 P        9  16 S                                       2.1161688 (max)
    11  16 S       12  15 P                                       2.1161213
    12  15 P       13  16 S                                       1.9627922
    12  15 P       14   8 O                                       1.5798490
    14   8 O       15   6 C                                       1.4421430
    15   6 C       16   6 C                                       1.5141146
    12  15 P       17   8 O                                       1.5875282
    17   8 O       18   6 C                                       1.4434867
    18   6 C       19   6 C                                       1.5156714
     1   6 C       20   1 H                                       1.0856031
     1   6 C       21   1 H                                       1.0893215
     1   6 C       22   1 H                                       1.0866237
     2   6 C       23   1 H                                       1.0909882
     2   6 C       24   1 H                                       1.0952389
     7   6 C       25   1 H                                       1.0951430
     7   6 C       26   1 H                                       1.0935312
     8   6 C       27   1 H                                       1.0851766 (min)
     8   6 C       28   1 H                                       1.0860701
     8   6 C       29   1 H                                       1.0861745
    10   6 C       30   1 H                                       1.0895892
    10   6 C       31   1 H                                       1.0895243
    15   6 C       32   1 H                                       1.0909794
    15   6 C       33   1 H                                       1.0952071
    16   6 C       34   1 H                                       1.0866353
    16   6 C       35   1 H                                       1.0856323
    16   6 C       36   1 H                                       1.0893229
    18   6 C       37   1 H                                       1.0951760
    18   6 C       38   1 H                                       1.0934940
    19   6 C       39   1 H                                       1.0860584
    19   6 C       40   1 H                                       1.0861860
    19   6 C       41   1 H                                       1.0851844

 * 5 distinct bonds (by element types)

   Z      Z             #   av. dist./Å        max./Å        min./Å
   1 H    6 C          22     1.0894027     1.0952389     1.0851766
   6 C    6 C           4     1.5148815     1.5156740     1.5140661
   6 C    8 O           4     1.4427952     1.4435511     1.4420000
   8 O   15 P           4     1.5836317     1.5875282     1.5798112
  15 P   16 S           4     2.0394478     2.1161688     1.9627089

           -------------------------------------------------
          |               Frequency Printout                |
           -------------------------------------------------
 projected vibrational frequencies (cm⁻¹)
eigval :       -0.00    -0.00     0.00     0.00     0.00     0.00
eigval :       45.65    46.07    47.33    51.09    52.30    52.08
eigval :       54.69    61.21    73.18    71.51    73.62    83.09
eigval :       97.08   103.84   104.24   130.49   136.79   154.71
eigval :      163.49   175.56   178.23   202.26   202.75   215.67
eigval :      216.42   244.99   269.48   271.37   287.48   299.68
eigval :      319.10   337.92   338.46   381.97   388.02   416.37
eigval :      424.36   471.02   483.22   620.58   627.11   667.57
eigval :      696.88   750.99   757.94   786.33   788.69   804.46
eigval :      821.29   822.22   827.33   827.37   916.49   917.05
eigval :      942.35   942.66  1037.72  1037.87  1051.53  1051.73
eigval :     1076.96  1094.75  1095.22  1101.30  1101.31  1132.65
eigval :     1132.86  1134.43  1134.61  1159.86  1237.13  1237.56
eigval :     1237.92  1238.32  1308.94  1311.03  1315.32  1315.29
eigval :     1353.89  1391.67  1391.56  1391.99  1391.94  1440.10
eigval :     1442.73  1456.34  1456.30  1458.52  1458.57  1459.61
eigval :     1459.68  1475.54  1475.61  1477.36  1477.53  2920.47
eigval :     2920.85  2921.57  2921.73  2942.42  2942.72  2972.36
eigval :     2979.86  2980.13  2985.81  3018.35  3018.35  3048.67
eigval :     3048.77  3053.50  3053.52  3056.27  3056.33  3057.03
eigval :     3057.28  3062.59  3062.63
 reduced masses (amu)
   1: 19.96   2: 22.40   3: 16.88   4: 22.01   5: 20.08   6: 15.92   7: 23.09   8: 20.33
   9: 15.85  10: 17.89  11: 15.27  12: 12.77  13: 14.65  14: 15.12  15: 22.36  16: 13.59
  17: 14.17  18: 11.86  19: 13.63  20: 13.89  21: 12.90  22: 13.22  23: 15.93  24: 23.71
  25: 16.66  26: 24.56  27: 14.66  28:  5.78  29:  5.85  30:  4.71  31:  4.67  32: 11.52
  33: 17.46  34: 17.45  35: 15.76  36: 14.16  37: 20.84  38: 16.14  39: 16.13  40: 17.99
  41: 19.51  42: 20.08  43: 19.18  44: 20.96  45: 22.50  46: 26.13  47: 26.66  48: 18.13
  49: 16.51  50: 19.77  51: 19.45  52: 19.92  53: 19.92  54:  5.80  55:  2.83  56:  3.03
  57:  2.21  58:  2.22  59: 13.14  60: 13.21  61: 12.10  62: 12.08  63:  8.42  64:  8.40
  65:  9.73  66:  9.76  67:  1.52  68:  7.95  69:  7.96  70:  7.85  71:  7.84  72:  4.87
  73:  4.88  74:  5.25  75:  5.26  76:  2.38  77:  2.38  78:  2.25  79:  2.25  80:  2.36
  81:  3.07  82:  3.08  83:  3.20  84:  3.19  85:  1.76  86:  3.18  87:  3.17  88:  3.14
  89:  3.16  90:  1.95  91:  1.94  92:  1.51  93:  1.51  94:  1.52  95:  1.50  96:  1.88
  97:  1.89  98:  1.57  99:  1.57 100:  1.57 101:  1.57 102:  1.86 103:  1.87 104:  1.74
 105:  1.74 106:  1.60 107:  1.60 108:  1.47 109:  1.73 110:  1.73 111:  2.07 112:  1.75
 113:  1.75 114:  1.61 115:  1.61 116:  1.91 117:  1.90 118:  1.47 119:  1.45 120:  1.77
 121:  1.79 122:  1.84 123:  1.84
 IR intensities (km·mol⁻¹)
   1:  0.14   2:  0.01   3:  0.82   4:  0.13   5:  0.07   6:  0.53   7:  2.57   8:  1.86
   9:  0.88  10:  2.50  11:  0.92  12:  2.55  13:  0.51  14:  1.92  15:  4.11  16:  2.60
  17:  2.71  18:  0.32  19: 11.11  20:  8.48  21:  0.18  22:  8.92  23:  3.54  24:  4.10
  25: 11.01  26:  2.87  27: 44.70  28:  7.89  29:  3.20  30:  1.85  31:  0.47  32:  2.98
  33:  9.37  34: 33.58  35:  0.32  36:  3.02  37:  5.12  38: 14.27  39: 23.17  40: 22.36
  41:  1.31  42: 44.31  43:  7.30  44:275.99  45: 48.85  46:233.96  47: 33.91  48:  6.69
  49: 45.36  50:259.97  51: 99.69  52:252.75  53:320.93  54:  3.68  55:  4.68  56:  0.31
  57:  3.99  58:  5.81  59:449.84  60:212.98  61:144.14  62:164.67  63:253.70  64:171.35
  65: 36.46  66:111.65  67:  0.33  68:  0.16  69: 13.95  70:  3.52  71: 21.53  72: 23.02
  73: 15.20  74: 17.76  75: 15.67  76: 37.94  77:  6.45  78:  2.53  79:  5.19  80:  3.97
  81:  3.34  82:  6.73  83:  0.63  84:  6.67  85: 15.86  86: 20.35  87:  4.25  88: 21.66
  89: 11.08  90:  3.78  91:  4.05  92:  0.15  93: 11.83  94:  4.77  95:  8.50  96:  2.43
  97:  0.46  98:  4.84  99:  5.70 100:  0.60 101:  0.56 102: 24.50 103: 27.04 104: 27.98
 105: 20.39 106: 31.36 107: 27.21 108:  0.19 109:  5.01 110: 12.79 111: 10.88 112: 48.82
 113: 40.37 114: 15.56 115: 15.44 116:  7.49 117: 42.00 118:  2.17 119: 23.11 120:  9.24
 121:  9.93 122: 12.71 123:  9.07
 Raman intensities (Ä⁴*amu⁻¹)
   1:  0.00   2:  0.00   3:  0.00   4:  0.00   5:  0.00   6:  0.00   7:  0.00   8:  0.00
   9:  0.00  10:  0.00  11:  0.00  12:  0.00  13:  0.00  14:  0.00  15:  0.00  16:  0.00
  17:  0.00  18:  0.00  19:  0.00  20:  0.00  21:  0.00  22:  0.00  23:  0.00  24:  0.00
  25:  0.00  26:  0.00  27:  0.00  28:  0.00  29:  0.00  30:  0.00  31:  0.00  32:  0.00
  33:  0.00  34:  0.00  35:  0.00  36:  0.00  37:  0.00  38:  0.00  39:  0.00  40:  0.00
  41:  0.00  42:  0.00  43:  0.00  44:  0.00  45:  0.00  46:  0.00  47:  0.00  48:  0.00
  49:  0.00  50:  0.00  51:  0.00  52:  0.00  53:  0.00  54:  0.00  55:  0.00  56:  0.00
  57:  0.00  58:  0.00  59:  0.00  60:  0.00  61:  0.00  62:  0.00  63:  0.00  64:  0.00
  65:  0.00  66:  0.00  67:  0.00  68:  0.00  69:  0.00  70:  0.00  71:  0.00  72:  0.00
  73:  0.00  74:  0.00  75:  0.00  76:  0.00  77:  0.00  78:  0.00  79:  0.00  80:  0.00
  81:  0.00  82:  0.00  83:  0.00  84:  0.00  85:  0.00  86:  0.00  87:  0.00  88:  0.00
  89:  0.00  90:  0.00  91:  0.00  92:  0.00  93:  0.00  94:  0.00  95:  0.00  96:  0.00
  97:  0.00  98:  0.00  99:  0.00 100:  0.00 101:  0.00 102:  0.00 103:  0.00 104:  0.00
 105:  0.00 106:  0.00 107:  0.00 108:  0.00 109:  0.00 110:  0.00 111:  0.00 112:  0.00
 113:  0.00 114:  0.00 115:  0.00 116:  0.00 117:  0.00 118:  0.00 119:  0.00 120:  0.00
 121:  0.00 122:  0.00 123:  0.00
 output can be read by thermo (or use thermo option).
 writing <g98.out> molden fake output.
 recommended (thermochemical) frequency scaling factor: 1.0
           -------------------------------------------------
          |             Thermodynamic Functions             |
           -------------------------------------------------

Refinement of some symmetry elements was terminated before convergence was reached.
Some symmetry elements may remain unidentified.
Molecule has the following symmetry elements: (C2) 
It seems to be the C2 point group
c2  symmetry found (for desy threshold:  0.10E+00) used in thermo

          ...................................................
          :                      SETUP                      :
          :.................................................:
          :  # frequencies                         117      :
          :  # imaginary freq.                       0      :
          :  linear?                             false      :
          :  only rotor calc.                    false      :
          :  symmetry                               c2      :
          :  rotational number                       2      :
          :  scaling factor                  1.0000000      :
          :  rotor cutoff                    0.0000000 cm⁻¹ :
          :  imag. cutoff                 -100.0000000 cm⁻¹ :
          :.................................................:

    mode    ω/cm⁻¹     T·S(HO)/kcal·mol⁻¹    T·S(FR)/kcal·mol⁻¹   T·S(vib)
   ------------------------------------------------------------------------
       1     45.65    -1.49001 (100.00%)    -1.08349 (  0.00%)    -1.49001
       2     46.07    -1.48456 (100.00%)    -1.08075 (  0.00%)    -1.48456
       3     47.33    -1.46871 (100.00%)    -1.07280 (  0.00%)    -1.46871
       4     51.09    -1.42356 (100.00%)    -1.05011 (  0.00%)    -1.42356
       5     52.30    -1.40976 (100.00%)    -1.04318 (  0.00%)    -1.40976
       6     52.08    -1.41232 (100.00%)    -1.04446 (  0.00%)    -1.41232
       7     54.69    -1.38347 (100.00%)    -1.02996 (  0.00%)    -1.38347
       8     61.21    -1.31715 (100.00%)    -0.99659 (  0.00%)    -1.31715
       9     73.18    -1.21227 (100.00%)    -0.94370 (  0.00%)    -1.21227
      10     71.51    -1.22582 (100.00%)    -0.95054 (  0.00%)    -1.22582
      11     73.62    -1.20873 (100.00%)    -0.94191 (  0.00%)    -1.20873
      12     83.09    -1.13790 (100.00%)    -0.90607 (  0.00%)    -1.13790
      13     97.08    -1.04715 (100.00%)    -0.85998 (  0.00%)    -1.04715
      14    103.84    -1.00800 (100.00%)    -0.84002 (  0.00%)    -1.00800
      15    104.24    -1.00580 (100.00%)    -0.83890 (  0.00%)    -1.00580
      16    130.49    -0.87619 (100.00%)    -0.77235 (  0.00%)    -0.87619
      17    136.79    -0.84921 (100.00%)    -0.75839 (  0.00%)    -0.84921
      18    154.71    -0.77921 (100.00%)    -0.72192 (  0.00%)    -0.77921
      19    163.49    -0.74807 (100.00%)    -0.70558 (  0.00%)    -0.74807
      20    175.56    -0.70815 (100.00%)    -0.68448 (  0.00%)    -0.70815
      21    178.23    -0.69973 (100.00%)    -0.68001 (  0.00%)    -0.69973
      22    202.26    -0.62982 (100.00%)    -0.64253 (  0.00%)    -0.62982
      23    202.75    -0.62851 (100.00%)    -0.64182 (  0.00%)    -0.62851
      24    215.67    -0.59485 (100.00%)    -0.62352 (  0.00%)    -0.59485
      25    216.42    -0.59298 (100.00%)    -0.62249 (  0.00%)    -0.59298
      26    244.99    -0.52664 (100.00%)    -0.58576 (  0.00%)    -0.52664
      27    269.48    -0.47690 (100.00%)    -0.55753 (  0.00%)    -0.47690
      28    271.37    -0.47329 (100.00%)    -0.55546 (  0.00%)    -0.47329
      29    287.48    -0.44387 (100.00%)    -0.53838 (  0.00%)    -0.44387
      30    299.68    -0.42298 (100.00%)    -0.52607 (  0.00%)    -0.42298
   ------------------------------------------------------------------------

   temp. (K)  partition function   enthalpy   heat capacity  entropy
                                   cal/mol     cal/K/mol   cal/K/mol   J/K/mol
 298.15  VIB  0.401E+13            15749.943     88.388    110.497
         ROT  0.513E+07              888.752      2.981     33.687
         INT  0.206E+20            16638.696     91.369    144.184
         TR   0.729E+28             1481.254      4.968     43.712
         TOT                       18119.9495    96.3370   187.8964   786.1584

       T/K    H(0)-H(T)+PV         H(T)/Eh          T*S/Eh         G(T)/Eh
   ------------------------------------------------------------------------
    298.15    0.288760E-01    0.341733E+00    0.892756E-01    0.252458E+00
   ------------------------------------------------------------------------

         :::::::::::::::::::::::::::::::::::::::::::::::::::::
         ::                  THERMODYNAMIC                  ::
         :::::::::::::::::::::::::::::::::::::::::::::::::::::
         :: total free energy         -64.789852544206 Eh   ::
         ::.................................................::
         :: total energy              -65.042310274695 Eh   ::
         :: zero point energy           0.312857383227 Eh   ::
         :: G(RRHO) w/o ZPVE           -0.060399652737 Eh   ::
         :: G(RRHO) contrib.            0.252457730490 Eh   ::
         :::::::::::::::::::::::::::::::::::::::::::::::::::::

optimized geometry written to: xtbopt.coord


           -------------------------------------------------
          | TOTAL ENERGY              -65.042310274695 Eh   |
          | TOTAL ENTHALPY            -64.700576913844 Eh   |
          | TOTAL FREE ENERGY         -64.789852544206 Eh   |
          | GRADIENT NORM               0.000041478672 Eh/α |
          | HOMO-LUMO GAP               3.063829574423 eV   |
           -------------------------------------------------

------------------------------------------------------------------------
 * finished run on 2025/04/09 at 13:57:01.969     
------------------------------------------------------------------------
 total:
 * wall-time:     0 d,  0 h,  0 min, 15.829 sec
 *  cpu-time:     0 d,  0 h,  0 min, 15.616 sec
 * ratio c/w:     0.987 speedup
 SCF:
 * wall-time:     0 d,  0 h,  0 min,  0.078 sec
 *  cpu-time:     0 d,  0 h,  0 min,  0.052 sec
 * ratio c/w:     0.673 speedup
 analytical hessian:
 * wall-time:     0 d,  0 h,  0 min,  8.970 sec
 *  cpu-time:     0 d,  0 h,  0 min,  8.938 sec
 * ratio c/w:     0.996 speedup

