      -----------------------------------------------------------      
     |                   =====================                   |     
     |                           x T B                           |     
     |                   =====================                   |     
     |                         S. Grimme                         |     
     |          Mulliken Center for Theoretical Chemistry        |     
     |                    University of Bonn                     |     
      -----------------------------------------------------------      

   * xtb version 6.7.1 (edcfbbe) compiled by 'albert@albert-system' on 2024-07-22

   xtb is free software: you can redistribute it and/or modify it under
   the terms of the GNU Lesser General Public License as published by
   the Free Software Foundation, either version 3 of the License, or
   (at your option) any later version.
   
   xtb is distributed in the hope that it will be useful,
   but WITHOUT ANY WARRANTY; without even the implied warranty of
   MERCHANTABILITY or FITNESS FOR A PARTICULAR PURPOSE.  See the
   GNU Lesser General Public License for more details.
   
   Cite this work as:
   * C. Bannwarth, E. Caldeweyher, S. Ehlert, A. Hansen, P. Pracht,
     J. Seibert, S. Spicher, S. Grimme, WIREs Comput. Mol. Sci., 2020, 11,
     e01493. DOI: 10.1002/wcms.1493
   
   for GFN2-xTB:
   * C. Bannwarth, S. Ehlert and S. Grimme., J. Chem. Theory Comput., 2019,
     15, 1652-1671. DOI: 10.1021/acs.jctc.8b01176
   for GFN1-xTB:
   * S. Grimme, C. Bannwarth, P. Shushkov, J. Chem. Theory Comput., 2017,
     13, 1989-2009. DOI: 10.1021/acs.jctc.7b00118
   for GFN0-xTB:
   * P. Pracht, E. Caldeweyher, S. Ehlert, S. Grimme, ChemRxiv, 2019, preprint.
     DOI: 10.26434/chemrxiv.8326202.v1
   for GFN-FF:
   * S. Spicher and S. Grimme, Angew. Chem. Int. Ed., 2020, 59, 15665-15673.
     DOI: 10.1002/anie.202004239
   
   for ALPB and GBSA implicit solvation:
   * S. Ehlert, M. Stahn, S. Spicher, S. Grimme, J. Chem. Theory Comput.,
     2021, 17, 4250-4261. DOI: 10.1021/acs.jctc.1c00471
   
   for ddCOSMO and CPCM-X implicit solvation:
   * M. Stahn, S. Ehlert, S. Grimme, J. Phys. Chem. A,
     2023, XX, XXXX-XXXX. DOI: 10.1021/acs.jpca.3c04382
   
   for DFT-D4:
   * E. Caldeweyher, C. Bannwarth and S. Grimme, J. Chem. Phys., 2017,
     147, 034112. DOI: 10.1063/1.4993215
   * E. Caldeweyher, S. Ehlert, A. Hansen, H. Neugebauer, S. Spicher,
     C. Bannwarth and S. Grimme, J. Chem. Phys., 2019, 150, 154122.
     DOI: 10.1063/1.5090222
   * E. Caldeweyher, J.-M. Mewes, S. Ehlert and S. Grimme, Phys. Chem. Chem. Phys.
     2020, 22, 8499-8512. DOI: 10.1039/D0CP00502A
   
   for sTDA-xTB:
   * S. Grimme and C. Bannwarth, J. Chem. Phys., 2016, 145, 054103.
     DOI: 10.1063/1.4959605
   
   in the mass-spec context:
   * V. Asgeirsson, C. Bauer and S. Grimme, Chem. Sci., 2017, 8, 4879.
     DOI: 10.1039/c7sc00601b
   * J. Koopman and S. Grimme, ACS Omega 2019, 4, 12, 15120-15133.
     DOI: 10.1021/acsomega.9b02011
   
   for metadynamics refer to:
   * S. Grimme, J. Chem. Theory Comput., 2019, 155, 2847-2862
     DOI: 10.1021/acs.jctc.9b00143
   
   for SPH calculations refer to:
   * S. Spicher and S. Grimme, J. Chem. Theory Comput., 2021, 17, 1701-1714
     DOI: 10.1021/acs.jctc.0c01306
   
   for ONIOM refer to:
   * C. Plett, A. Katbashev, S. Ehlert, S. Grimme, M. Bursch,
     Phys. Chem. Chem. Phys., 2023, 25, 17860-17868. DOI: 10.1039/D3CP02178E
   
   for DIPRO refer to:
   * J. Kohn, N. Gildemeister, S. Grimme, D. Fazzi, A. Hansen,
     J. Chem. Phys., 2023, just accepted.
   
   for PTB refer to:
   * S. Grimme, M. Mueller, A. Hansen, J. Chem. Phys., 2023, 158, 124111.
     DOI: 10.1063/5.0137838
   
   with help from (in alphabetical order)
   P. Atkinson, C. Bannwarth, F. Bohle, G. Brandenburg, E. Caldeweyher
   M. Checinski, S. Dohm, S. Ehlert, S. Ehrlich, I. Gerasimov, C. Hölzer
   A. Katbashev, J. Kohn, J. Koopman, C. Lavigne, S. Lehtola, F. März, M. Müller,
   F. Musil, H. Neugebauer, J. Pisarek, C. Plett, P. Pracht, F. Pultar,
   J. Seibert, P. Shushkov, S. Spicher, M. Stahn, M. Steiner, T. Strunk,
   J. Stückrath, T. Rose, and J. Unsleber
   
 * started run on 2025/04/09 at 05:21:11.324     
   ID    Z sym.   atoms
    1    6 C      1, 2, 7, 8, 10, 15, 16, 18, 19
    2    8 O      3, 6, 14, 17
    3   15 P      4, 12
    4   16 S      5, 9, 11, 13
    5    1 H      20-41

           -------------------------------------------------
          |                Calculation Setup                |
           -------------------------------------------------

          program call               : /srv/scratch/z5358697/.xtb/bin/xtb gas.coord --gfn2 --sp --chrg 0 --norestart --parallel 1
          hostname                   : k163
          coordinate file            : gas.coord
          omp threads                :                     1


           -------------------------------------------------
          |                 G F N 2 - x T B                 |
           -------------------------------------------------

        Reference                      10.1021/acs.jctc.8b01176
      * Hamiltonian:
        H0-scaling (s, p, d)           1.850000    2.230000    2.230000
        zeta-weighting                 0.500000
      * Dispersion:
        s8                             2.700000
        a1                             0.520000
        a2                             5.000000
        s9                             5.000000
      * Repulsion:
        kExp                           1.500000    1.000000
        rExp                           1.000000
      * Coulomb:
        alpha                          2.000000
        third order                    shell-resolved
        anisotropic                    true
        a3                             3.000000
        a5                             4.000000
        cn-shift                       1.200000
        cn-exp                         4.000000
        max-rad                        5.000000


          ...................................................
          :                      SETUP                      :
          :.................................................:
          :  # basis functions                 134          :
          :  # atomic orbitals                 128          :
          :  # shells                           66          :
          :  # electrons                       116          :
          :  max. iterations                   250          :
          :  Hamiltonian                  GFN2-xTB          :
          :  restarted?                      false          :
          :  GBSA solvation                  false          :
          :  PC potential                    false          :
          :  electronic temp.          300.0000000     K    :
          :  accuracy                    1.0000000          :
          :  -> integral cutoff          0.2500000E+02      :
          :  -> integral neglect         0.1000000E-07      :
          :  -> SCF convergence          0.1000000E-05 Eh   :
          :  -> wf. convergence          0.1000000E-03 e    :
          :  Broyden damping             0.4000000          :
          :  net charge                          0          :
          :  unpaired electrons                  0          :
          ...................................................

 iter      E             dE          RMSdq      gap      omega  full diag
   1    -65.3799722 -0.653800E+02  0.636E+00    4.14       0.0  T
   2    -65.5490784 -0.169106E+00  0.399E+00    3.16       1.0  T
   3    -65.5676809 -0.186026E-01  0.135E+00    2.97       1.0  T
   4    -65.5699368 -0.225589E-02  0.544E-01    2.76       1.0  T
   5    -65.5707006 -0.763780E-03  0.256E-01    2.86       1.0  T
   6    -65.5709326 -0.232032E-03  0.127E-01    2.84       1.0  T
   7    -65.5709853 -0.526991E-04  0.467E-02    2.85       1.0  T
   8    -65.5709938 -0.841529E-05  0.208E-02    2.86       1.0  T
   9    -65.5709949 -0.118963E-05  0.528E-03    2.86       3.0  T
  10    -65.5709951 -0.104687E-06  0.257E-03    2.86       6.1  T
  11    -65.5709951 -0.604446E-08  0.600E-04    2.86      26.0  T
  12    -65.5709951 -0.770072E-09  0.255E-04    2.86      61.2  T

   *** convergence criteria satisfied after 12 iterations ***

         #    Occupation            Energy/Eh            Energy/eV
      -------------------------------------------------------------
         1        2.0000           -0.7589550             -20.6522
       ...           ...                  ...                  ...
        52        2.0000           -0.4373789             -11.9017
        53        2.0000           -0.4080478             -11.1035
        54        2.0000           -0.3985238             -10.8444
        55        2.0000           -0.3739258             -10.1750
        56        2.0000           -0.3705816             -10.0840
        57        2.0000           -0.3698791             -10.0649
        58        2.0000           -0.3679282             -10.0118 (HOMO)
        59                         -0.2629552              -7.1554 (LUMO)
        60                         -0.2399381              -6.5290
        61                         -0.2020635              -5.4984
        62                         -0.1780359              -4.8446
        63                         -0.1625309              -4.4227
       ...                                ...                  ...
       128                          1.3391140              36.4391
      -------------------------------------------------------------
                  HL-Gap            0.1049730 Eh            2.8565 eV
             Fermi-level           -0.3154417 Eh           -8.5836 eV

 SCC (total)                   0 d,  0 h,  0 min,  0.051 sec
 SCC setup                      ...        0 min,  0.000 sec (  0.531%)
 Dispersion                     ...        0 min,  0.000 sec (  0.569%)
 classical contributions        ...        0 min,  0.000 sec (  0.114%)
 integral evaluation            ...        0 min,  0.007 sec ( 14.553%)
 iterations                     ...        0 min,  0.022 sec ( 42.756%)
 molecular gradient             ...        0 min,  0.021 sec ( 41.054%)
 printout                       ...        0 min,  0.000 sec (  0.394%)

         :::::::::::::::::::::::::::::::::::::::::::::::::::::
         ::                     SUMMARY                     ::
         :::::::::::::::::::::::::::::::::::::::::::::::::::::
         :: total energy             -65.009185489337 Eh    ::
         :: gradient norm              0.033090758509 Eh/a0 ::
         :: HOMO-LUMO gap              2.856461280657 eV    ::
         ::.................................................::
         :: SCC energy               -65.570178037643 Eh    ::
         :: -> isotropic ES            0.104838908634 Eh    ::
         :: -> anisotropic ES         -0.007431002721 Eh    ::
         :: -> anisotropic XC          0.031266237777 Eh    ::
         :: -> dispersion             -0.051968066117 Eh    ::
         :: repulsion energy           0.560992548306 Eh    ::
         :: add. restraining           0.000000000000 Eh    ::
         :: total charge               0.000000000000 e     ::
         :::::::::::::::::::::::::::::::::::::::::::::::::::::

           -------------------------------------------------
          |                Property Printout                |
           -------------------------------------------------

    * Orbital Energies and Occupations

         #    Occupation            Energy/Eh            Energy/eV
      -------------------------------------------------------------
         1        2.0000           -0.7589550             -20.6522
       ...           ...                  ...                  ...
        46        2.0000           -0.4708677             -12.8130
        47        2.0000           -0.4629827             -12.5984
        48        2.0000           -0.4613472             -12.5539
        49        2.0000           -0.4591274             -12.4935
        50        2.0000           -0.4553346             -12.3903
        51        2.0000           -0.4426038             -12.0439
        52        2.0000           -0.4373789             -11.9017
        53        2.0000           -0.4080478             -11.1035
        54        2.0000           -0.3985238             -10.8444
        55        2.0000           -0.3739258             -10.1750
        56        2.0000           -0.3705816             -10.0840
        57        2.0000           -0.3698791             -10.0649
        58        2.0000           -0.3679282             -10.0118 (HOMO)
        59                         -0.2629552              -7.1554 (LUMO)
        60                         -0.2399381              -6.5290
        61                         -0.2020635              -5.4984
        62                         -0.1780359              -4.8446
        63                         -0.1625309              -4.4227
        64                         -0.1574016              -4.2831
        65                         -0.1424646              -3.8767
        66                         -0.1408015              -3.8314
        67                         -0.1207424              -3.2856
        68                         -0.1198093              -3.2602
        69                         -0.0380126              -1.0344
       ...                                ...                  ...
       128                          1.3391140              36.4391
      -------------------------------------------------------------
                  HL-Gap            0.1049730 Eh            2.8565 eV
             Fermi-level           -0.3154417 Eh           -8.5836 eV

     #   Z          covCN         q      C6AA      α(0)
     1   6 C        3.751    -0.117    22.797     6.809
     2   6 C        3.840     0.081    19.213     6.236
     3   8 O        1.654    -0.242    18.027     5.732
     4  15 P        3.847     0.366   144.976    21.629
     5  16 S        0.926    -0.366   155.015    21.059
     6   8 O        1.655    -0.246    18.094     5.742
     7   6 C        3.871     0.082    19.171     6.226
     8   6 C        3.751    -0.116    22.789     6.808
     9  16 S        2.016    -0.162   147.918    20.470
    10   6 C        3.825     0.044    19.814     6.334
    11  16 S        2.004    -0.118   146.002    20.337
    12  15 P        3.911     0.368   144.928    21.625
    13  16 S        0.926    -0.426   157.837    21.250
    14   8 O        1.655    -0.243    18.040     5.734
    15   6 C        3.875     0.085    19.122     6.218
    16   6 C        3.752    -0.115    22.770     6.805
    17   8 O        1.654    -0.237    17.942     5.718
    18   6 C        3.880     0.083    19.156     6.223
    19   6 C        3.751    -0.114    22.741     6.801
    20   1 H        0.925     0.064     2.147     2.292
    21   1 H        0.925     0.059     2.216     2.328
    22   1 H        0.925     0.064     2.153     2.295
    23   1 H        0.924     0.058     2.225     2.333
    24   1 H        0.924     0.064     2.158     2.297
    25   1 H        0.924     0.064     2.151     2.293
    26   1 H        0.924     0.066     2.135     2.285
    27   1 H        0.925     0.058     2.219     2.329
    28   1 H        0.924     0.066     2.130     2.282
    29   1 H        0.925     0.060     2.205     2.322
    30   1 H        0.925     0.088     1.900     2.156
    31   1 H        0.925     0.072     2.059     2.244
    32   1 H        0.924     0.052     2.301     2.372
    33   1 H        0.924     0.059     2.209     2.324
    34   1 H        0.925     0.061     2.193     2.316
    35   1 H        0.925     0.062     2.178     2.308
    36   1 H        0.925     0.065     2.143     2.289
    37   1 H        0.924     0.064     2.158     2.297
    38   1 H        0.924     0.064     2.147     2.292
    39   1 H        0.925     0.063     2.159     2.298
    40   1 H        0.925     0.058     2.218     2.329
    41   1 H        0.925     0.062     2.175     2.306

 Mol. C6AA /au·bohr⁶  :      26553.669412
 Mol. C8AA /au·bohr⁸  :     863328.284504
 Mol. α(0) /au        :        258.340333


Wiberg/Mayer (AO) data.
largest (>0.10) Wiberg bond orders for each atom

 ---------------------------------------------------------------------------
     #   Z sym  total        # sym  WBO       # sym  WBO       # sym  WBO
 ---------------------------------------------------------------------------
     1   6 C    3.989 --     2 C    1.021    22 H    0.984    20 H    0.981
                            21 H    0.980
     2   6 C    3.912 --     1 C    1.021    24 H    0.972    23 H    0.967
                             3 O    0.889
     3   8 O    2.410 --     4 P    1.332     2 C    0.889
     4  15 P    5.289 --     5 S    1.595     3 O    1.332     6 O    1.306
                             9 S    0.927
     5  16 S    1.916 --     4 P    1.595     9 S    0.143
     6   8 O    2.409 --     4 P    1.306     7 C    0.905
     7   6 C    3.909 --     8 C    1.022    25 H    0.970    26 H    0.969
                             6 O    0.905
     8   6 C    3.991 --     7 C    1.022    29 H    0.983    27 H    0.981
                            28 H    0.973
     9  16 S    2.265 --    10 C    0.990     4 P    0.927     5 S    0.143
    10   6 C    3.964 --     9 S    0.990    11 S    0.985    31 H    0.963
                            30 H    0.959
    11  16 S    2.300 --    12 P    0.999    10 C    0.985    13 S    0.137
    12  15 P    5.293 --    13 S    1.532    17 O    1.319    14 O    1.311
                            11 S    0.999
    13  16 S    1.867 --    12 P    1.532    11 S    0.137
    14   8 O    2.412 --    12 P    1.311    15 C    0.904
    15   6 C    3.911 --    16 C    1.019    32 H    0.973    33 H    0.966
                            14 O    0.904
    16   6 C    3.989 --    15 C    1.019    35 H    0.985    36 H    0.984
                            34 H    0.980
    17   8 O    2.410 --    12 P    1.319    18 C    0.894
    18   6 C    3.909 --    19 C    1.023    38 H    0.969    37 H    0.968
                            17 O    0.894
    19   6 C    3.991 --    18 C    1.023    41 H    0.983    40 H    0.980
                            39 H    0.975
    20   1 H    0.996 --     1 C    0.981
    21   1 H    0.995 --     1 C    0.980
    22   1 H    0.996 --     1 C    0.984
    23   1 H    0.997 --     2 C    0.967
    24   1 H    0.996 --     2 C    0.972
    25   1 H    0.996 --     7 C    0.970
    26   1 H    0.996 --     7 C    0.969
    27   1 H    0.996 --     8 C    0.981
    28   1 H    0.996 --     8 C    0.973
    29   1 H    0.996 --     8 C    0.983
    30   1 H    0.992 --    10 C    0.959
    31   1 H    0.994 --    10 C    0.963
    32   1 H    0.997 --    15 C    0.973
    33   1 H    0.996 --    15 C    0.966
    34   1 H    0.995 --    16 C    0.980
    35   1 H    0.996 --    16 C    0.985
    36   1 H    0.996 --    16 C    0.984
    37   1 H    0.996 --    18 C    0.968
    38   1 H    0.995 --    18 C    0.969
    39   1 H    0.996 --    19 C    0.975
    40   1 H    0.996 --    19 C    0.980
    41   1 H    0.996 --    19 C    0.983
 ---------------------------------------------------------------------------

Topologies differ in total number of bonds
Writing topology from bond orders to xtbtopo.mol

molecular dipole:
                 x           y           z       tot (Debye)
 q only:       -0.165      -1.354       0.118
   full:        0.155      -1.376       0.096       3.529
molecular quadrupole (traceless):
                xx          xy          yy          xz          yz          zz
 q only:       17.263     -19.531      -2.117     -19.433     -16.842     -15.147
  q+dip:       18.035     -19.575      -2.809     -22.161     -19.487     -15.226
   full:       19.033     -20.159      -2.535     -22.435     -20.234     -16.498


           -------------------------------------------------
          | TOTAL ENERGY              -65.009185489337 Eh   |
          | GRADIENT NORM               0.033090758509 Eh/α |
          | HOMO-LUMO GAP               2.856461280657 eV   |
           -------------------------------------------------

------------------------------------------------------------------------
 * finished run on 2025/04/09 at 05:21:11.421     
------------------------------------------------------------------------
 total:
 * wall-time:     0 d,  0 h,  0 min,  0.097 sec
 *  cpu-time:     0 d,  0 h,  0 min,  0.064 sec
 * ratio c/w:     0.660 speedup
 SCF:
 * wall-time:     0 d,  0 h,  0 min,  0.051 sec
 *  cpu-time:     0 d,  0 h,  0 min,  0.051 sec
 * ratio c/w:     0.991 speedup

