 Entering Gaussian System
 *********************************************
 Gaussian 98:
 frequency output generated by the xtb code
 *********************************************
                         Standard orientation:
 --------------------------------------------------------------------
  Center     Atomic     Atomic              Coordinates (Angstroms)
  Number     Number      Type              X           Y           Z
 --------------------------------------------------------------------
    1          6             0        0.189108    1.517303   -0.000066
    2          6             0        1.093513    0.516719   -0.000099
    3          6             0        0.695226   -0.881300   -0.000073
    4          8             0        1.437715   -1.846287   -0.000098
    5          7             0       -0.680441   -1.030258   -0.000007
    6          6             0       -1.635335   -0.039939    0.000031
    7          8             0       -2.825392   -0.278362    0.000088
    8          7             0       -1.138665    1.239325   -0.000003
    9          9             0        2.418134    0.795026   -0.000158
   10          1             0        0.491065    2.553521   -0.000087
   11          1             0       -1.029966   -1.985201    0.000017
   12          1             0       -1.819472    1.992001    0.000022
 --------------------------------------------------------------------
     1 basis functions        1 primitive gaussians
     1 alpha electrons        1 beta electrons
 
 Harmonic frequencies (cm**-1), IR intensities (km*mol⁻¹),
 Raman scattering activities (A**4/amu), Raman depolarization ratios,
 reduced masses (AMU), force constants (mDyne/A) and normal coordinates:
                      1                      2                      3
                        a                      a                      a 
 Frequencies --   110.9400               157.3320               273.4464
 Red. masses --    15.5886                13.9644                17.0717
 Frc consts  --     0.0000                 0.0000                 0.0000
 IR Inten    --     8.8920                10.3291                 3.3041
 Raman Activ --     0.0000                 0.0000                 0.0000
 Depolar     --     0.0000                 0.0000                 0.0000
 Atom AN      X      Y      Z        X      Y      Z        X      Y      Z
   1   6     0.00   0.00   0.27    -0.00   0.00  -0.01    -0.05   0.17  -0.00
   2   6    -0.00  -0.00  -0.03    -0.00  -0.00  -0.10    -0.11   0.13   0.00
   3   6     0.00   0.00   0.10    -0.00  -0.00  -0.10    -0.08   0.16   0.00
   4   8     0.00   0.00   0.34     0.00   0.00   0.48     0.33   0.51  -0.00
   5   7    -0.00  -0.00   0.00    -0.00  -0.00  -0.73    -0.03  -0.06   0.00
   6   6    -0.00  -0.00  -0.03    -0.00  -0.00  -0.08    -0.01  -0.03   0.00
   7   8    -0.00  -0.00  -0.49     0.00   0.00   0.39    -0.02  -0.04   0.00
   8   7     0.00   0.00   0.47     0.00   0.00   0.05    -0.05  -0.00   0.00
   9   9    -0.00  -0.00  -0.55     0.00  -0.00   0.02     0.01  -0.72   0.00
  10   1     0.00   0.00   0.10     0.00   0.00   0.03    -0.05   0.06   0.00
  11   1    -0.00  -0.00  -0.03    -0.00  -0.00  -0.21    -0.00  -0.02  -0.00
  12   1     0.00   0.00   0.16     0.00   0.00   0.12    -0.03  -0.02   0.00
                      4                      5                      6
                        a                      a                      a 
 Frequencies --   343.6385               361.5226               378.6580
 Red. masses --    13.1280                 9.9685                15.4395
 Frc consts  --     0.0000                 0.0000                 0.0000
 IR Inten    --     0.9800                 8.2772                47.5267
 Raman Activ --     0.0000                 0.0000                 0.0000
 Depolar     --     0.0000                 0.0000                 0.0000
 Atom AN      X      Y      Z        X      Y      Z        X      Y      Z
   1   6     0.00   0.00   0.24     0.00   0.00   0.58    -0.00  -0.09   0.00
   2   6     0.00   0.00   0.69    -0.00   0.00  -0.32    -0.13  -0.16  -0.00
   3   6     0.00   0.00   0.27    -0.00   0.00  -0.24     0.01  -0.19  -0.00
   4   8    -0.00   0.00  -0.12    -0.00  -0.00   0.14     0.44   0.11  -0.00
   5   7    -0.00  -0.00  -0.15     0.00   0.00   0.16    -0.07  -0.33   0.00
   6   6    -0.00  -0.00  -0.11    -0.00   0.00  -0.14     0.06  -0.10  -0.00
   7   8     0.00   0.00   0.14     0.00  -0.00   0.10    -0.09   0.64   0.00
   8   7    -0.00  -0.00  -0.36    -0.00   0.00  -0.43     0.09  -0.15  -0.00
   9   9    -0.00  -0.00  -0.39    -0.00  -0.00  -0.04    -0.28   0.19   0.00
  10   1     0.00  -0.00   0.02     0.00   0.00   0.44     0.02  -0.03   0.00
  11   1    -0.00  -0.00  -0.13     0.00   0.00   0.21    -0.04  -0.08   0.00
  12   1    -0.00  -0.00  -0.14    -0.00   0.00  -0.02    -0.01  -0.07   0.00
                      7                      8                      9
                        a                      a                      a 
 Frequencies --   423.1395               518.3200               599.5536
 Red. masses --    14.7873                13.3434                12.7636
 Frc consts  --     0.0000                 0.0000                 0.0000
 IR Inten    --    16.5582                 8.0854                 3.7074
 Raman Activ --     0.0000                 0.0000                 0.0000
 Depolar     --     0.0000                 0.0000                 0.0000
 Atom AN      X      Y      Z        X      Y      Z        X      Y      Z
   1   6     0.05  -0.09   0.00    -0.07  -0.35   0.00     0.34  -0.07  -0.00
   2   6     0.30   0.13  -0.00     0.12  -0.20  -0.00     0.05  -0.21  -0.00
   3   6    -0.06   0.22   0.00     0.20  -0.14  -0.00    -0.38  -0.08   0.00
   4   8    -0.16   0.20   0.00     0.45  -0.02  -0.00     0.08   0.34  -0.00
   5   7    -0.12  -0.09   0.00     0.01   0.35  -0.00    -0.37  -0.13   0.00
   6   6    -0.25  -0.25   0.00    -0.33   0.21   0.00    -0.06   0.14   0.00
   7   8    -0.39   0.16   0.00    -0.34  -0.07   0.00     0.03  -0.36   0.00
   8   7     0.08  -0.38  -0.00    -0.23   0.17   0.00     0.30   0.08  -0.00
   9   9     0.50   0.11  -0.00     0.15  -0.01  -0.00    -0.04   0.21   0.00
  10   1    -0.09   0.00   0.00     0.03  -0.11   0.00     0.17  -0.04  -0.00
  11   1     0.09  -0.07  -0.00    -0.05   0.11   0.00    -0.19   0.00   0.00
  12   1     0.03  -0.09   0.00     0.04   0.14  -0.00     0.16   0.09   0.00
                     10                     11                     12
                        a                      a                      a 
 Frequencies --   613.2371               671.1954               680.7915
 Red. masses --     2.4228                10.1147                11.9869
 Frc consts  --     0.0000                 0.0000                 0.0000
 IR Inten    --   135.1546                13.2553                 9.2295
 Raman Activ --     0.0000                 0.0000                 0.0000
 Depolar     --     0.0000                 0.0000                 0.0000
 Atom AN      X      Y      Z        X      Y      Z        X      Y      Z
   1   6    -0.00  -0.00  -0.10    -0.00   0.00  -0.15    -0.00  -0.00  -0.14
   2   6     0.00   0.00   0.06     0.00   0.00   0.26     0.00  -0.00   0.42
   3   6     0.00   0.00   0.11    -0.00  -0.00  -0.25    -0.00  -0.00  -0.70
   4   8    -0.00  -0.00  -0.05     0.00   0.00   0.05     0.00   0.00   0.21
   5   7     0.00   0.00   0.09    -0.00  -0.00   0.10     0.00   0.00   0.01
   6   6    -0.00  -0.00  -0.16    -0.00  -0.00  -0.69     0.00   0.00   0.45
   7   8    -0.00   0.00   0.01     0.00  -0.00   0.21    -0.00  -0.00  -0.16
   8   7    -0.00  -0.00  -0.23     0.00   0.00   0.32    -0.00  -0.00  -0.11
   9   9    -0.00  -0.00   0.01     0.00   0.00  -0.02    -0.00  -0.00  -0.04
  10   1    -0.00   0.00  -0.02     0.00   0.00   0.02     0.00  -0.00   0.03
  11   1     0.00   0.00   0.02     0.00   0.00   0.45     0.00   0.00   0.14
  12   1     0.00   0.00   0.94    -0.00  -0.00  -0.06     0.00   0.00   0.10
                     13                     14                     15
                        a                      a                      a 
 Frequencies --   719.8970               746.3519               778.0558
 Red. masses --     5.4936                14.1999                13.0729
 Frc consts  --     0.0000                 0.0000                 0.0000
 IR Inten    --   253.0136                82.6084                12.8689
 Raman Activ --     0.0000                 0.0000                 0.0000
 Depolar     --     0.0000                 0.0000                 0.0000
 Atom AN      X      Y      Z        X      Y      Z        X      Y      Z
   1   6     0.00   0.00   0.04    -0.18   0.20   0.00     0.26   0.57  -0.00
   2   6    -0.00  -0.00  -0.04    -0.02   0.14   0.00    -0.07   0.20   0.00
   3   6     0.00   0.00   0.29    -0.13  -0.27   0.00     0.18  -0.16  -0.00
   4   8    -0.00   0.00  -0.12     0.14  -0.14  -0.00     0.19  -0.32  -0.00
   5   7    -0.00  -0.00  -0.42    -0.24  -0.37   0.00    -0.01  -0.05   0.00
   6   6     0.00   0.00   0.26     0.08   0.07   0.00    -0.27  -0.03   0.00
   7   8    -0.00  -0.00  -0.11     0.11   0.00  -0.00    -0.39  -0.15   0.00
   8   7     0.00  -0.00  -0.04    -0.31   0.27   0.00     0.25   0.00  -0.00
   9   9    -0.00   0.00  -0.00     0.55   0.09  -0.00    -0.12  -0.02   0.00
  10   1    -0.00  -0.00  -0.05    -0.08   0.07   0.00     0.03   0.17  -0.00
  11   1     0.00   0.00   0.79    -0.21  -0.05   0.00     0.01  -0.02  -0.00
  12   1     0.00  -0.00   0.02    -0.15   0.02   0.00     0.08   0.01  -0.00
                     16                     17                     18
                        a                      a                      a 
 Frequencies --   862.7466               954.8042              1106.2190
 Red. masses --     3.8238                 9.1505                 7.0397
 Frc consts  --     0.0000                 0.0000                 0.0000
 IR Inten    --    36.0053                 0.5514               135.6981
 Raman Activ --     0.0000                 0.0000                 0.0000
 Depolar     --     0.0000                 0.0000                 0.0000
 Atom AN      X      Y      Z        X      Y      Z        X      Y      Z
   1   6     0.00   0.00   0.45     0.07  -0.06  -0.00    -0.10  -0.22   0.00
   2   6    -0.00  -0.00  -0.06     0.01  -0.10   0.00     0.29   0.30  -0.00
   3   6    -0.00  -0.00  -0.18     0.11   0.20  -0.00     0.14   0.10  -0.00
   4   8     0.00   0.00   0.05    -0.13   0.07   0.00    -0.00  -0.08   0.00
   5   7     0.00   0.00   0.04     0.16  -0.41  -0.00    -0.07  -0.31   0.00
   6   6    -0.00   0.00  -0.07    -0.07  -0.17   0.00    -0.03   0.22  -0.00
   7   8     0.00   0.00   0.02    -0.17  -0.01   0.00     0.04  -0.02  -0.00
   8   7     0.00  -0.00  -0.04    -0.12   0.51   0.00     0.06   0.03  -0.00
   9   9     0.00   0.00   0.03    -0.02  -0.01   0.00    -0.23  -0.07   0.00
  10   1    -0.00  -0.00  -0.86     0.34  -0.10  -0.00    -0.47   0.06   0.00
  11   1    -0.00   0.00   0.03     0.37  -0.23  -0.00    -0.10  -0.05   0.00
  12   1     0.00   0.00   0.03     0.05   0.22  -0.00     0.39   0.34  -0.00
                     19                     20                     21
                        a                      a                      a 
 Frequencies --  1138.1962              1173.5848              1244.3140
 Red. masses --     7.6073                 8.7701                 7.2669
 Frc consts  --     0.0000                 0.0000                 0.0000
 IR Inten    --    98.5593               219.1276                10.5767
 Raman Activ --     0.0000                 0.0000                 0.0000
 Depolar     --     0.0000                 0.0000                 0.0000
 Atom AN      X      Y      Z        X      Y      Z        X      Y      Z
   1   6     0.08   0.03  -0.00     0.31  -0.05  -0.00     0.01   0.02  -0.00
   2   6    -0.05  -0.06   0.00     0.53   0.15  -0.00     0.05   0.36  -0.00
   3   6    -0.47  -0.28   0.00    -0.01   0.02  -0.00    -0.23  -0.16   0.00
   4   8     0.03   0.03  -0.00     0.01  -0.02  -0.00    -0.03   0.02   0.00
   5   7     0.35   0.00  -0.00    -0.01  -0.14   0.00     0.37  -0.07  -0.00
   6   6    -0.11   0.32   0.00    -0.01   0.24  -0.00    -0.02   0.07  -0.00
   7   8     0.01   0.01  -0.00    -0.05  -0.02   0.00    -0.01   0.05   0.00
   8   7    -0.05  -0.09   0.00    -0.25   0.03   0.00    -0.26  -0.30   0.00
   9   9     0.06   0.04  -0.00    -0.29  -0.05   0.00    -0.03  -0.02   0.00
  10   1    -0.30   0.10   0.00     0.06  -0.00  -0.00     0.52  -0.14  -0.00
  11   1     0.55  -0.17  -0.00    -0.03  -0.02   0.00    -0.26   0.11   0.00
  12   1     0.03   0.02  -0.00    -0.48  -0.36   0.00     0.26   0.22  -0.00
                     22                     23                     24
                        a                      a                      a 
 Frequencies --  1271.0533              1310.3431              1417.6575
 Red. masses --     9.4428                10.8019                12.0891
 Frc consts  --     0.0000                 0.0000                 0.0000
 IR Inten    --   151.4425               179.3821               216.3545
 Raman Activ --     0.0000                 0.0000                 0.0000
 Depolar     --     0.0000                 0.0000                 0.0000
 Atom AN      X      Y      Z        X      Y      Z        X      Y      Z
   1   6    -0.26  -0.09   0.00    -0.03   0.04   0.00    -0.34  -0.27   0.00
   2   6    -0.20   0.18   0.00     0.30   0.22  -0.00     0.04   0.38  -0.00
   3   6     0.19   0.14  -0.00    -0.19  -0.11   0.00    -0.28  -0.15   0.00
   4   8     0.06  -0.11  -0.00     0.20  -0.15  -0.00     0.06  -0.05  -0.00
   5   7    -0.30  -0.12   0.00    -0.45   0.32   0.00     0.19   0.04  -0.00
   6   6    -0.10   0.51   0.00     0.07  -0.37  -0.00     0.05  -0.14  -0.00
   7   8     0.12  -0.06  -0.00     0.20   0.05  -0.00    -0.19  -0.05   0.00
   8   7     0.19  -0.25  -0.00    -0.14   0.02   0.00     0.52   0.33  -0.00
   9   9     0.08  -0.02  -0.00    -0.13  -0.03   0.00    -0.02  -0.03   0.00
  10   1     0.35  -0.15  -0.00     0.14  -0.03  -0.00     0.03  -0.12  -0.00
  11   1     0.30  -0.16  -0.00     0.39  -0.10  -0.00    -0.05   0.04   0.00
  12   1    -0.04  -0.14   0.00     0.13   0.15  -0.00    -0.17  -0.19   0.00
                     25                     26                     27
                        a                      a                      a 
 Frequencies --  1618.7920              1668.5744              1713.7879
 Red. masses --    11.9055                13.0023                13.2557
 Frc consts  --     0.0000                 0.0000                 0.0000
 IR Inten    --   545.6896              1811.3262               525.4159
 Raman Activ --     0.0000                 0.0000                 0.0000
 Depolar     --     0.0000                 0.0000                 0.0000
 Atom AN      X      Y      Z        X      Y      Z        X      Y      Z
   1   6    -0.53   0.38   0.00    -0.17   0.10   0.00     0.13  -0.07  -0.00
   2   6     0.46  -0.45  -0.00     0.15  -0.02  -0.00    -0.15   0.00   0.00
   3   6    -0.19   0.21   0.00     0.31  -0.51  -0.00    -0.24   0.39   0.00
   4   8     0.09  -0.09  -0.00    -0.26   0.36   0.00     0.20  -0.27  -0.00
   5   7     0.10  -0.06  -0.00    -0.11   0.05   0.00    -0.05   0.03   0.00
   6   6    -0.01   0.09  -0.00     0.47   0.12  -0.00     0.63   0.12  -0.00
   7   8    -0.03  -0.02   0.00    -0.33  -0.07   0.00    -0.44  -0.08   0.00
   8   7     0.12  -0.06  -0.00     0.01  -0.05   0.00    -0.11  -0.07   0.00
   9   9    -0.07  -0.01   0.00    -0.03  -0.01   0.00     0.04   0.01  -0.00
  10   1     0.12   0.04  -0.00     0.04   0.01  -0.00    -0.03  -0.00   0.00
  11   1    -0.06   0.02   0.00     0.13  -0.04  -0.00     0.02  -0.01  -0.00
  12   1     0.06   0.02  -0.00     0.06   0.04  -0.00     0.04   0.05  -0.00
                     28                     29                     30
                        a                      a                      a 
 Frequencies --  3098.4104              3355.6772              3364.6263
 Red. masses --     1.8651                 1.8376                 1.8708
 Frc consts  --     0.0000                 0.0000                 0.0000
 IR Inten    --    26.0266               237.0683               270.0452
 Raman Activ --     0.0000                 0.0000                 0.0000
 Depolar     --     0.0000                 0.0000                 0.0000
 Atom AN      X      Y      Z        X      Y      Z        X      Y      Z
   1   6     0.07   0.27  -0.00     0.00  -0.00  -0.00     0.00  -0.01  -0.00
   2   6     0.01  -0.00  -0.00    -0.00   0.00  -0.00    -0.00   0.01   0.00
   3   6    -0.00   0.00  -0.00    -0.01  -0.00   0.00     0.00  -0.00  -0.00
   4   8     0.00  -0.00  -0.00     0.00  -0.00   0.00    -0.00   0.00   0.00
   5   7    -0.00   0.00   0.00    -0.08  -0.23   0.00     0.02   0.07  -0.00
   6   6     0.00  -0.00  -0.00     0.00  -0.01   0.00    -0.00  -0.00  -0.00
   7   8    -0.00   0.00   0.00    -0.00   0.00   0.00     0.00   0.00  -0.00
   8   7     0.00   0.00   0.00     0.05  -0.05  -0.00     0.17  -0.18  -0.00
   9   9     0.00   0.00  -0.00     0.00   0.00  -0.00    -0.00  -0.00   0.00
  10   1    -0.26  -0.92   0.00    -0.00  -0.00  -0.00     0.00   0.01  -0.00
  11   1    -0.00  -0.00   0.00     0.32   0.88  -0.00    -0.09  -0.24   0.00
  12   1    -0.01   0.01   0.00    -0.17   0.19   0.00    -0.62   0.70   0.00
