12
 energy: -28.848755290812 gnorm: 0.041190498914 xtb: 6.7.1 (edcfbbe)
C            0.19896060602792        1.51859649830995       -0.00007082952921
C            1.09676620511760        0.51505514367758       -0.00010987286218
C            0.69928363037219       -0.86881966736775       -0.00006204762538
O            1.46528795762092       -1.83296221835576       -0.00007742528485
N           -0.68498604915740       -1.03197530276384       -0.00003035399385
C           -1.64881509508684       -0.04128053299990        0.00001220251734
O           -2.85340464396285       -0.28352989747889        0.00009477591395
N           -1.13941429114807        1.23657946558542       -0.00003612015238
F            2.41749952553203        0.76744619940319       -0.00014409410254
H            0.48447696470181        2.56400618811879       -0.00007329740377
H           -1.03113897743392       -1.98622537455930        0.00000841691028
H           -1.80903988594405        1.99564260313941        0.00005007483384
12
 energy: -28.849832156795 gnorm: 0.010696543716 xtb: 6.7.1 (edcfbbe)
C            0.19334856059583        1.51910671508926       -0.00006540720651
C            1.09485679899578        0.51661329306714       -0.00009812691914
C            0.69402730400001       -0.87460568130144       -0.00007458251026
O            1.44505154042327       -1.83693854288308       -0.00008361948538
N           -0.68272036214053       -1.03309395224958       -0.00002768604468
C           -1.63731690562740       -0.04056123292323        0.00002448006502
O           -2.82891429275867       -0.27956114550892        0.00009343176352
N           -1.13749870357529        1.23673778365692       -0.00002611572756
F            2.41797617038086        0.77833212820124       -0.00013818369905
H            0.48052253450149        2.56019518775154       -0.00008388655185
H           -1.03147260470999       -1.98762154846709        0.00000572654122
H           -1.81238409344599        1.99393010027615        0.00003539899590
12
 energy: -28.849927241518 gnorm: 0.003362006430 xtb: 6.7.1 (edcfbbe)
C            0.19082351531434        1.51894320100002       -0.00006456925542
C            1.09414825550416        0.51758139358749       -0.00009628932641
C            0.69334873433637       -0.87878381196643       -0.00006825479702
O            1.43887941100296       -1.84176913867975       -0.00008544479931
N           -0.68132686125946       -1.03247949924397       -0.00002321462250
C           -1.63474261493155       -0.04026366187467        0.00002140377575
O           -2.82417803337713       -0.27828216310761        0.00008856588702
N           -1.13745930313761        1.23756824473761       -0.00001831426121
F            2.41881513513978        0.78668137065993       -0.00014688907088
H            0.48329140601725        2.55748881958224       -0.00008108229096
H           -1.03084625157409       -1.98713864927430        0.00000481103022
H           -1.81527744639565        1.99298699928834        0.00003070695197
12
 energy: -28.849945064593 gnorm: 0.001568047015 xtb: 6.7.1 (edcfbbe)
C            0.18977509817129        1.51835693448215       -0.00006369601462
C            1.09381934414480        0.51768184136505       -0.00009435829738
C            0.69394233650084       -0.88081013290764       -0.00007038948513
O            1.43772104576781       -1.84462110027203       -0.00008879082239
N           -0.68066724611735       -1.03144397002151       -0.00001956422931
C           -1.63481176171704       -0.04007531614041        0.00002446881427
O           -2.82455870670568       -0.27812399139741        0.00008556937409
N           -1.13801515497651        1.23831667160186       -0.00001203173117
F            2.41901107050123        0.79147747328422       -0.00014669785555
H            0.48698282399347        2.55560183016166       -0.00008281939857
H           -1.03030497534880       -1.98625009990165        0.00000467265218
H           -1.81741792757470        1.99242296445461        0.00002506621482
12
 energy: -28.849949590690 gnorm: 0.001186552977 xtb: 6.7.1 (edcfbbe)
C            0.18903731065594        1.51739384013871       -0.00006273220983
C            1.09346549584313        0.51713431551417       -0.00009460984550
C            0.69502239158900       -0.88194062839921       -0.00006759670976
O            1.43782264647710       -1.84660765483085       -0.00009173657820
N           -0.68025848834653       -1.03013496267737       -0.00001412488840
C           -1.63548506660844       -0.03986585901542        0.00002310840023
O           -2.82573107945980       -0.27837587942281        0.00007930899605
N           -1.13883262853265        1.23921943273582       -0.00000544669560
F            2.41855183316613        0.79533802119495       -0.00015178285060
H            0.49134643621121        2.55355626314007       -0.00008093006542
H           -1.02984018399952       -1.98512369195807        0.00000624190087
H           -1.81962272035621        1.99193990828892        0.00002172976740
12
 energy: -28.849950523870 gnorm: 0.000375674650 xtb: 6.7.1 (edcfbbe)
C            0.18915266715497        1.51735780121617       -0.00006246835590
C            1.09347814697125        0.51686253305072       -0.00009416456637
C            0.69508846867479       -0.88142454163188       -0.00007046172192
O            1.43797066395371       -1.84610265533424       -0.00009295110507
N           -0.68039736108954       -1.03024067020096       -0.00001359973179
C           -1.63543081960044       -0.03988779418843        0.00002490851896
O           -2.82549397297002       -0.27845914998298        0.00007917832549
N           -1.13875522585434        1.23924550167186       -0.00000556847346
F            2.41823870111681        0.79470801022642       -0.00014947991144
H            0.49099498454291        2.55363422343699       -0.00008179561746
H           -1.02995552331304       -1.98520062953449        0.00000720724218
H           -1.81941478294769        1.99204047597973        0.00002062461802
12
 energy: -28.849950641434 gnorm: 0.000098502377 xtb: 6.7.1 (edcfbbe)
C            0.18910461724642        1.51731500473691       -0.00006152744327
C            1.09348970348022        0.51673796247410       -0.00009273745917
C            0.69518973849837       -0.88132564419164       -0.00006802308137
O            1.43778695457232       -1.84620936527591       -0.00009653031381
N           -0.68042238532366       -1.03026382259724       -0.00001136299175
C           -1.63533692399691       -0.03991864579225        0.00002385688910
O           -2.82535323899196       -0.27842602875384        0.00007738972645
N           -1.13869252448764        1.23932051874081       -0.00000519146674
F            2.41811954161891        0.79494203879173       -0.00015133439486
H            0.49103302669745        2.55353622535856       -0.00008101194425
H           -1.02997932074102       -1.98520260642248        0.00000872915164
H           -1.81946324193313        1.99202746764016        0.00001917254926
12
 energy: -28.849950652932 gnorm: 0.000033756574 xtb: 6.7.1 (edcfbbe)
C            0.18910049577280        1.51730426284194       -0.00006275862002
C            1.09351013064194        0.51672423844480       -0.00009403694672
C            0.69523099140704       -0.88129637881141       -0.00007183822605
O            1.43772410009188       -1.84627963015129       -0.00009594988162
N           -0.68043552919647       -1.03026157270619       -0.00001133740802
C           -1.63533506563810       -0.03994754163452        0.00002488801816
O           -2.82539072796169       -0.27837666771840        0.00007800933387
N           -1.13867118814979        1.23931921322554       -0.00000515411857
F            2.41812975151843        0.79503897400630       -0.00014799130558
H            0.49105139283885        2.55352310979064       -0.00008120829753
H           -1.02995580672225       -1.98520641836858        0.00000957900718
H           -1.81948259796327        1.99199151579006        0.00001922766614
