      -----------------------------------------------------------      
     |                   =====================                   |     
     |                           x T B                           |     
     |                   =====================                   |     
     |                         S. Grimme                         |     
     |          Mulliken Center for Theoretical Chemistry        |     
     |                    University of Bonn                     |     
      -----------------------------------------------------------      

   * xtb version 6.7.1 (edcfbbe) compiled by 'albert@albert-system' on 2024-07-22

   xtb is free software: you can redistribute it and/or modify it under
   the terms of the GNU Lesser General Public License as published by
   the Free Software Foundation, either version 3 of the License, or
   (at your option) any later version.
   
   xtb is distributed in the hope that it will be useful,
   but WITHOUT ANY WARRANTY; without even the implied warranty of
   MERCHANTABILITY or FITNESS FOR A PARTICULAR PURPOSE.  See the
   GNU Lesser General Public License for more details.
   
   Cite this work as:
   * C. Bannwarth, E. Caldeweyher, S. Ehlert, A. Hansen, P. Pracht,
     J. Seibert, S. Spicher, S. Grimme, WIREs Comput. Mol. Sci., 2020, 11,
     e01493. DOI: 10.1002/wcms.1493
   
   for GFN2-xTB:
   * C. Bannwarth, S. Ehlert and S. Grimme., J. Chem. Theory Comput., 2019,
     15, 1652-1671. DOI: 10.1021/acs.jctc.8b01176
   for GFN1-xTB:
   * S. Grimme, C. Bannwarth, P. Shushkov, J. Chem. Theory Comput., 2017,
     13, 1989-2009. DOI: 10.1021/acs.jctc.7b00118
   for GFN0-xTB:
   * P. Pracht, E. Caldeweyher, S. Ehlert, S. Grimme, ChemRxiv, 2019, preprint.
     DOI: 10.26434/chemrxiv.8326202.v1
   for GFN-FF:
   * S. Spicher and S. Grimme, Angew. Chem. Int. Ed., 2020, 59, 15665-15673.
     DOI: 10.1002/anie.202004239
   
   for ALPB and GBSA implicit solvation:
   * S. Ehlert, M. Stahn, S. Spicher, S. Grimme, J. Chem. Theory Comput.,
     2021, 17, 4250-4261. DOI: 10.1021/acs.jctc.1c00471
   
   for ddCOSMO and CPCM-X implicit solvation:
   * M. Stahn, S. Ehlert, S. Grimme, J. Phys. Chem. A,
     2023, XX, XXXX-XXXX. DOI: 10.1021/acs.jpca.3c04382
   
   for DFT-D4:
   * E. Caldeweyher, C. Bannwarth and S. Grimme, J. Chem. Phys., 2017,
     147, 034112. DOI: 10.1063/1.4993215
   * E. Caldeweyher, S. Ehlert, A. Hansen, H. Neugebauer, S. Spicher,
     C. Bannwarth and S. Grimme, J. Chem. Phys., 2019, 150, 154122.
     DOI: 10.1063/1.5090222
   * E. Caldeweyher, J.-M. Mewes, S. Ehlert and S. Grimme, Phys. Chem. Chem. Phys.
     2020, 22, 8499-8512. DOI: 10.1039/D0CP00502A
   
   for sTDA-xTB:
   * S. Grimme and C. Bannwarth, J. Chem. Phys., 2016, 145, 054103.
     DOI: 10.1063/1.4959605
   
   in the mass-spec context:
   * V. Asgeirsson, C. Bauer and S. Grimme, Chem. Sci., 2017, 8, 4879.
     DOI: 10.1039/c7sc00601b
   * J. Koopman and S. Grimme, ACS Omega 2019, 4, 12, 15120-15133.
     DOI: 10.1021/acsomega.9b02011
   
   for metadynamics refer to:
   * S. Grimme, J. Chem. Theory Comput., 2019, 155, 2847-2862
     DOI: 10.1021/acs.jctc.9b00143
   
   for SPH calculations refer to:
   * S. Spicher and S. Grimme, J. Chem. Theory Comput., 2021, 17, 1701-1714
     DOI: 10.1021/acs.jctc.0c01306
   
   for ONIOM refer to:
   * C. Plett, A. Katbashev, S. Ehlert, S. Grimme, M. Bursch,
     Phys. Chem. Chem. Phys., 2023, 25, 17860-17868. DOI: 10.1039/D3CP02178E
   
   for DIPRO refer to:
   * J. Kohn, N. Gildemeister, S. Grimme, D. Fazzi, A. Hansen,
     J. Chem. Phys., 2023, just accepted.
   
   for PTB refer to:
   * S. Grimme, M. Mueller, A. Hansen, J. Chem. Phys., 2023, 158, 124111.
     DOI: 10.1063/5.0137838
   
   with help from (in alphabetical order)
   P. Atkinson, C. Bannwarth, F. Bohle, G. Brandenburg, E. Caldeweyher
   M. Checinski, S. Dohm, S. Ehlert, S. Ehrlich, I. Gerasimov, C. Hölzer
   A. Katbashev, J. Kohn, J. Koopman, C. Lavigne, S. Lehtola, F. März, M. Müller,
   F. Musil, H. Neugebauer, J. Pisarek, C. Plett, P. Pracht, F. Pultar,
   J. Seibert, P. Shushkov, S. Spicher, M. Stahn, M. Steiner, T. Strunk,
   J. Stückrath, T. Rose, and J. Unsleber
   
 * started run on 2025/04/09 at 05:21:14.169     
   ID    Z sym.   atoms
    1    6 C      1, 2, 7, 8, 10, 15, 16, 18, 19
    2    8 O      3, 6, 14, 17
    3   15 P      4, 12
    4   16 S      5, 9, 11, 13
    5    1 H      20-41

           -------------------------------------------------
          |                Calculation Setup                |
           -------------------------------------------------

          program call               : /srv/scratch/z5358697/.xtb/bin/xtb gas.coord --gfn2 --sp --chrg 0 --norestart --parallel 1
          hostname                   : k163
          coordinate file            : gas.coord
          omp threads                :                     1


           -------------------------------------------------
          |                 G F N 2 - x T B                 |
           -------------------------------------------------

        Reference                      10.1021/acs.jctc.8b01176
      * Hamiltonian:
        H0-scaling (s, p, d)           1.850000    2.230000    2.230000
        zeta-weighting                 0.500000
      * Dispersion:
        s8                             2.700000
        a1                             0.520000
        a2                             5.000000
        s9                             5.000000
      * Repulsion:
        kExp                           1.500000    1.000000
        rExp                           1.000000
      * Coulomb:
        alpha                          2.000000
        third order                    shell-resolved
        anisotropic                    true
        a3                             3.000000
        a5                             4.000000
        cn-shift                       1.200000
        cn-exp                         4.000000
        max-rad                        5.000000


          ...................................................
          :                      SETUP                      :
          :.................................................:
          :  # basis functions                 134          :
          :  # atomic orbitals                 128          :
          :  # shells                           66          :
          :  # electrons                       116          :
          :  max. iterations                   250          :
          :  Hamiltonian                  GFN2-xTB          :
          :  restarted?                      false          :
          :  GBSA solvation                  false          :
          :  PC potential                    false          :
          :  electronic temp.          300.0000000     K    :
          :  accuracy                    1.0000000          :
          :  -> integral cutoff          0.2500000E+02      :
          :  -> integral neglect         0.1000000E-07      :
          :  -> SCF convergence          0.1000000E-05 Eh   :
          :  -> wf. convergence          0.1000000E-03 e    :
          :  Broyden damping             0.4000000          :
          :  net charge                          0          :
          :  unpaired electrons                  0          :
          ...................................................

 iter      E             dE          RMSdq      gap      omega  full diag
   1    -65.3815289 -0.653815E+02  0.649E+00    4.34       0.0  T
   2    -65.5477582 -0.166229E+00  0.418E+00    3.11       1.0  T
   3    -65.5665444 -0.187862E-01  0.138E+00    2.99       1.0  T
   4    -65.5687375 -0.219310E-02  0.542E-01    2.77       1.0  T
   5    -65.5694270 -0.689516E-03  0.265E-01    2.88       1.0  T
   6    -65.5696718 -0.244758E-03  0.128E-01    2.86       1.0  T
   7    -65.5697312 -0.593779E-04  0.462E-02    2.87       1.0  T
   8    -65.5697391 -0.798505E-05  0.221E-02    2.88       1.0  T
   9    -65.5697403 -0.115570E-05  0.522E-03    2.87       3.0  T
  10    -65.5697404 -0.700819E-07  0.269E-03    2.88       5.8  T
  11    -65.5697404 -0.955282E-08  0.638E-04    2.88      24.5  T
  12    -65.5697404 -0.688544E-09  0.308E-04    2.88      50.7  T

   *** convergence criteria satisfied after 12 iterations ***

         #    Occupation            Energy/Eh            Energy/eV
      -------------------------------------------------------------
         1        2.0000           -0.7557592             -20.5653
       ...           ...                  ...                  ...
        52        2.0000           -0.4354528             -11.8493
        53        2.0000           -0.4110735             -11.1859
        54        2.0000           -0.4019536             -10.9377
        55        2.0000           -0.3765023             -10.2451
        56        2.0000           -0.3726554             -10.1405
        57        2.0000           -0.3714782             -10.1084
        58        2.0000           -0.3646911              -9.9237 (HOMO)
        59                         -0.2590303              -7.0486 (LUMO)
        60                         -0.2487191              -6.7680
        61                         -0.2114845              -5.7548
        62                         -0.1791857              -4.8759
        63                         -0.1578032              -4.2940
       ...                                ...                  ...
       128                          1.2770125              34.7493
      -------------------------------------------------------------
                  HL-Gap            0.1056608 Eh            2.8752 eV
             Fermi-level           -0.3118607 Eh           -8.4862 eV

 SCC (total)                   0 d,  0 h,  0 min,  0.060 sec
 SCC setup                      ...        0 min,  0.000 sec (  0.447%)
 Dispersion                     ...        0 min,  0.000 sec (  0.512%)
 classical contributions        ...        0 min,  0.000 sec (  0.108%)
 integral evaluation            ...        0 min,  0.012 sec ( 20.558%)
 iterations                     ...        0 min,  0.025 sec ( 41.496%)
 molecular gradient             ...        0 min,  0.022 sec ( 36.516%)
 printout                       ...        0 min,  0.000 sec (  0.339%)

         :::::::::::::::::::::::::::::::::::::::::::::::::::::
         ::                     SUMMARY                     ::
         :::::::::::::::::::::::::::::::::::::::::::::::::::::
         :: total energy             -65.009363799226 Eh    ::
         :: gradient norm              0.032574983452 Eh/a0 ::
         :: HOMO-LUMO gap              2.875176067503 eV    ::
         ::.................................................::
         :: SCC energy               -65.568724855862 Eh    ::
         :: -> isotropic ES            0.104719459868 Eh    ::
         :: -> anisotropic ES         -0.009138916741 Eh    ::
         :: -> anisotropic XC          0.030888312147 Eh    ::
         :: -> dispersion             -0.054043666430 Eh    ::
         :: repulsion energy           0.559361056636 Eh    ::
         :: add. restraining           0.000000000000 Eh    ::
         :: total charge              -0.000000000000 e     ::
         :::::::::::::::::::::::::::::::::::::::::::::::::::::

           -------------------------------------------------
          |                Property Printout                |
           -------------------------------------------------

    * Orbital Energies and Occupations

         #    Occupation            Energy/Eh            Energy/eV
      -------------------------------------------------------------
         1        2.0000           -0.7557592             -20.5653
       ...           ...                  ...                  ...
        46        2.0000           -0.4704809             -12.8024
        47        2.0000           -0.4619675             -12.5708
        48        2.0000           -0.4581617             -12.4672
        49        2.0000           -0.4551583             -12.3855
        50        2.0000           -0.4482315             -12.1970
        51        2.0000           -0.4409627             -11.9992
        52        2.0000           -0.4354528             -11.8493
        53        2.0000           -0.4110735             -11.1859
        54        2.0000           -0.4019536             -10.9377
        55        2.0000           -0.3765023             -10.2451
        56        2.0000           -0.3726554             -10.1405
        57        2.0000           -0.3714782             -10.1084
        58        2.0000           -0.3646911              -9.9237 (HOMO)
        59                         -0.2590303              -7.0486 (LUMO)
        60                         -0.2487191              -6.7680
        61                         -0.2114845              -5.7548
        62                         -0.1791857              -4.8759
        63                         -0.1578032              -4.2940
        64                         -0.1522312              -4.1424
        65                         -0.1491237              -4.0579
        66                         -0.1460657              -3.9747
        67                         -0.1264179              -3.4400
        68                         -0.1147790              -3.1233
        69                         -0.0392821              -1.0689
       ...                                ...                  ...
       128                          1.2770125              34.7493
      -------------------------------------------------------------
                  HL-Gap            0.1056608 Eh            2.8752 eV
             Fermi-level           -0.3118607 Eh           -8.4862 eV

     #   Z          covCN         q      C6AA      α(0)
     1   6 C        3.751    -0.115    22.771     6.805
     2   6 C        3.861     0.082    19.182     6.228
     3   8 O        1.655    -0.254    18.218     5.762
     4  15 P        3.876     0.366   144.985    21.630
     5  16 S        0.926    -0.402   156.706    21.173
     6   8 O        1.655    -0.244    18.056     5.736
     7   6 C        3.886     0.093    19.005     6.198
     8   6 C        3.752    -0.114    22.750     6.802
     9  16 S        2.002    -0.140   146.950    20.403
    10   6 C        3.801     0.037    19.960     6.361
    11  16 S        2.004    -0.143   147.088    20.412
    12  15 P        3.876     0.373   144.720    21.610
    13  16 S        0.928    -0.411   157.133    21.202
    14   8 O        1.655    -0.229    17.822     5.699
    15   6 C        3.848     0.085    19.147     6.224
    16   6 C        3.751    -0.118    22.817     6.812
    17   8 O        1.655    -0.233    17.884     5.709
    18   6 C        3.901     0.086    19.101     6.212
    19   6 C        3.752    -0.117    22.793     6.808
    20   1 H        0.925     0.061     2.183     2.310
    21   1 H        0.925     0.058     2.219     2.329
    22   1 H        0.925     0.060     2.201     2.320
    23   1 H        0.924     0.063     2.162     2.299
    24   1 H        0.924     0.063     2.163     2.300
    25   1 H        0.924     0.045     2.378     2.411
    26   1 H        0.924     0.065     2.144     2.290
    27   1 H        0.925     0.070     2.082     2.257
    28   1 H        0.925     0.056     2.240     2.341
    29   1 H        0.925     0.060     2.204     2.321
    30   1 H        0.925     0.085     1.931     2.173
    31   1 H        0.924     0.097     1.817     2.108
    32   1 H        0.924     0.061     2.183     2.311
    33   1 H        0.924     0.063     2.169     2.303
    34   1 H        0.925     0.063     2.163     2.300
    35   1 H        0.925     0.065     2.145     2.290
    36   1 H        0.925     0.059     2.211     2.325
    37   1 H        0.924     0.060     2.202     2.321
    38   1 H        0.924     0.052     2.294     2.369
    39   1 H        0.925     0.066     2.130     2.282
    40   1 H        0.925     0.062     2.177     2.308
    41   1 H        0.925     0.065     2.139     2.287

 Mol. C6AA /au·bohr⁶  :      26552.476981
 Mol. C8AA /au·bohr⁸  :     863488.152664
 Mol. α(0) /au        :        258.343346


Wiberg/Mayer (AO) data.
largest (>0.10) Wiberg bond orders for each atom

 ---------------------------------------------------------------------------
     #   Z sym  total        # sym  WBO       # sym  WBO       # sym  WBO
 ---------------------------------------------------------------------------
     1   6 C    3.991 --     2 C    1.022    20 H    0.983    22 H    0.981
                            21 H    0.976
     2   6 C    3.912 --     1 C    1.022    24 H    0.970    23 H    0.968
                             3 O    0.910
     3   8 O    2.402 --     4 P    1.298     2 C    0.910
     4  15 P    5.288 --     5 S    1.541     6 O    1.303     3 O    1.298
                             9 S    0.999
     5  16 S    1.888 --     4 P    1.541     9 S    0.142
     6   8 O    2.395 --     4 P    1.303     7 C    0.892
     7   6 C    3.910 --     8 C    1.020    25 H    0.973    26 H    0.966
                             6 O    0.892
     8   6 C    3.989 --     7 C    1.020    28 H    0.985    27 H    0.982
                            29 H    0.979
     9  16 S    2.286 --     4 P    0.999    10 C    0.974     5 S    0.142
    10   6 C    3.955 --    11 S    0.999     9 S    0.974    30 H    0.968
                            31 H    0.941
    11  16 S    2.284 --    10 C    0.999    12 P    0.955    13 S    0.152
    12  15 P    5.253 --    13 S    1.525    14 O    1.326    17 O    1.325
                            11 S    0.955
    13  16 S    1.883 --    12 P    1.525    11 S    0.152
    14   8 O    2.433 --    12 P    1.326    15 C    0.902
    15   6 C    3.905 --    16 C    1.020    33 H    0.970    32 H    0.962
                            14 O    0.902
    16   6 C    3.989 --    15 C    1.020    34 H    0.984    36 H    0.980
                            35 H    0.979
    17   8 O    2.417 --    12 P    1.325    18 C    0.903
    18   6 C    3.908 --    19 C    1.019    38 H    0.972    37 H    0.967
                            17 O    0.903
    19   6 C    3.988 --    18 C    1.019    39 H    0.984    41 H    0.984
                            40 H    0.980
    20   1 H    0.996 --     1 C    0.983
    21   1 H    0.997 --     1 C    0.976
    22   1 H    0.996 --     1 C    0.981
    23   1 H    0.996 --     2 C    0.968
    24   1 H    0.996 --     2 C    0.970
    25   1 H    0.998 --     7 C    0.973
    26   1 H    0.996 --     7 C    0.966
    27   1 H    0.995 --     8 C    0.982
    28   1 H    0.997 --     8 C    0.985
    29   1 H    0.995 --     8 C    0.979
    30   1 H    0.993 --    10 C    0.968
    31   1 H    0.991 --    10 C    0.941
    32   1 H    0.996 --    15 C    0.962
    33   1 H    0.996 --    15 C    0.970
    34   1 H    0.996 --    16 C    0.984
    35   1 H    0.996 --    16 C    0.979
    36   1 H    0.996 --    16 C    0.980
    37   1 H    0.996 --    18 C    0.967
    38   1 H    0.997 --    18 C    0.972
    39   1 H    0.996 --    19 C    0.984
    40   1 H    0.995 --    19 C    0.980
    41   1 H    0.996 --    19 C    0.984
 ---------------------------------------------------------------------------

Topologies differ in total number of bonds
Writing topology from bond orders to xtbtopo.mol

molecular dipole:
                 x           y           z       tot (Debye)
 q only:        0.125      -0.924       0.988
   full:        0.259      -0.571       1.274       3.608
molecular quadrupole (traceless):
                xx          xy          yy          xz          yz          zz
 q only:       17.717      -1.735     -10.489       7.181      11.413      -7.228
  q+dip:       19.831      -0.361     -13.145       7.227      12.464      -6.686
   full:       20.893      -0.330     -13.083       7.841      13.235      -7.809


           -------------------------------------------------
          | TOTAL ENERGY              -65.009363799226 Eh   |
          | GRADIENT NORM               0.032574983452 Eh/α |
          | HOMO-LUMO GAP               2.875176067503 eV   |
           -------------------------------------------------

------------------------------------------------------------------------
 * finished run on 2025/04/09 at 05:21:14.286     
------------------------------------------------------------------------
 total:
 * wall-time:     0 d,  0 h,  0 min,  0.117 sec
 *  cpu-time:     0 d,  0 h,  0 min,  0.069 sec
 * ratio c/w:     0.590 speedup
 SCF:
 * wall-time:     0 d,  0 h,  0 min,  0.060 sec
 *  cpu-time:     0 d,  0 h,  0 min,  0.056 sec
 * ratio c/w:     0.929 speedup

