      -----------------------------------------------------------      
     |                   =====================                   |     
     |                           x T B                           |     
     |                   =====================                   |     
     |                         S. Grimme                         |     
     |          Mulliken Center for Theoretical Chemistry        |     
     |                    University of Bonn                     |     
      -----------------------------------------------------------      

   * xtb version 6.7.1 (edcfbbe) compiled by 'albert@albert-system' on 2024-07-22

   xtb is free software: you can redistribute it and/or modify it under
   the terms of the GNU Lesser General Public License as published by
   the Free Software Foundation, either version 3 of the License, or
   (at your option) any later version.
   
   xtb is distributed in the hope that it will be useful,
   but WITHOUT ANY WARRANTY; without even the implied warranty of
   MERCHANTABILITY or FITNESS FOR A PARTICULAR PURPOSE.  See the
   GNU Lesser General Public License for more details.
   
   Cite this work as:
   * C. Bannwarth, E. Caldeweyher, S. Ehlert, A. Hansen, P. Pracht,
     J. Seibert, S. Spicher, S. Grimme, WIREs Comput. Mol. Sci., 2020, 11,
     e01493. DOI: 10.1002/wcms.1493
   
   for GFN2-xTB:
   * C. Bannwarth, S. Ehlert and S. Grimme., J. Chem. Theory Comput., 2019,
     15, 1652-1671. DOI: 10.1021/acs.jctc.8b01176
   for GFN1-xTB:
   * S. Grimme, C. Bannwarth, P. Shushkov, J. Chem. Theory Comput., 2017,
     13, 1989-2009. DOI: 10.1021/acs.jctc.7b00118
   for GFN0-xTB:
   * P. Pracht, E. Caldeweyher, S. Ehlert, S. Grimme, ChemRxiv, 2019, preprint.
     DOI: 10.26434/chemrxiv.8326202.v1
   for GFN-FF:
   * S. Spicher and S. Grimme, Angew. Chem. Int. Ed., 2020, 59, 15665-15673.
     DOI: 10.1002/anie.202004239
   
   for ALPB and GBSA implicit solvation:
   * S. Ehlert, M. Stahn, S. Spicher, S. Grimme, J. Chem. Theory Comput.,
     2021, 17, 4250-4261. DOI: 10.1021/acs.jctc.1c00471
   
   for ddCOSMO and CPCM-X implicit solvation:
   * M. Stahn, S. Ehlert, S. Grimme, J. Phys. Chem. A,
     2023, XX, XXXX-XXXX. DOI: 10.1021/acs.jpca.3c04382
   
   for DFT-D4:
   * E. Caldeweyher, C. Bannwarth and S. Grimme, J. Chem. Phys., 2017,
     147, 034112. DOI: 10.1063/1.4993215
   * E. Caldeweyher, S. Ehlert, A. Hansen, H. Neugebauer, S. Spicher,
     C. Bannwarth and S. Grimme, J. Chem. Phys., 2019, 150, 154122.
     DOI: 10.1063/1.5090222
   * E. Caldeweyher, J.-M. Mewes, S. Ehlert and S. Grimme, Phys. Chem. Chem. Phys.
     2020, 22, 8499-8512. DOI: 10.1039/D0CP00502A
   
   for sTDA-xTB:
   * S. Grimme and C. Bannwarth, J. Chem. Phys., 2016, 145, 054103.
     DOI: 10.1063/1.4959605
   
   in the mass-spec context:
   * V. Asgeirsson, C. Bauer and S. Grimme, Chem. Sci., 2017, 8, 4879.
     DOI: 10.1039/c7sc00601b
   * J. Koopman and S. Grimme, ACS Omega 2019, 4, 12, 15120-15133.
     DOI: 10.1021/acsomega.9b02011
   
   for metadynamics refer to:
   * S. Grimme, J. Chem. Theory Comput., 2019, 155, 2847-2862
     DOI: 10.1021/acs.jctc.9b00143
   
   for SPH calculations refer to:
   * S. Spicher and S. Grimme, J. Chem. Theory Comput., 2021, 17, 1701-1714
     DOI: 10.1021/acs.jctc.0c01306
   
   for ONIOM refer to:
   * C. Plett, A. Katbashev, S. Ehlert, S. Grimme, M. Bursch,
     Phys. Chem. Chem. Phys., 2023, 25, 17860-17868. DOI: 10.1039/D3CP02178E
   
   for DIPRO refer to:
   * J. Kohn, N. Gildemeister, S. Grimme, D. Fazzi, A. Hansen,
     J. Chem. Phys., 2023, just accepted.
   
   for PTB refer to:
   * S. Grimme, M. Mueller, A. Hansen, J. Chem. Phys., 2023, 158, 124111.
     DOI: 10.1063/5.0137838
   
   with help from (in alphabetical order)
   P. Atkinson, C. Bannwarth, F. Bohle, G. Brandenburg, E. Caldeweyher
   M. Checinski, S. Dohm, S. Ehlert, S. Ehrlich, I. Gerasimov, C. Hölzer
   A. Katbashev, J. Kohn, J. Koopman, C. Lavigne, S. Lehtola, F. März, M. Müller,
   F. Musil, H. Neugebauer, J. Pisarek, C. Plett, P. Pracht, F. Pultar,
   J. Seibert, P. Shushkov, S. Spicher, M. Stahn, M. Steiner, T. Strunk,
   J. Stückrath, T. Rose, and J. Unsleber
   
 * started run on 2025/04/10 at 04:35:43.435     
   ID    Z sym.   atoms
    1    6 C      1, 2, 7, 8, 10, 15, 16, 18, 19
    2    8 O      3, 6, 14, 17
    3   15 P      4, 12
    4   16 S      5, 9, 11, 13
    5    1 H      20-41

           -------------------------------------------------
          |                Calculation Setup                |
           -------------------------------------------------

          program call               : /srv/scratch/z5358697/.xtb/bin/xtb xtb_opt.coord --opt normal --orca -I xtb_opt-xcontrol-inp
          hostname                   : k163
          coordinate file            : xtb_opt.coord
          omp threads                :                    24

           -------------------------------------------------
          |                   Orca driver                   |
           -------------------------------------------------
orca executable           : /apps/z_install_tree/linux-rocky8-ivybridge/gcc-12.2.0/orca-6.0.0-srtngmq3qlimg2qxbl6avaaiffipurdx/bin/orca
orca input file           : xtb_opt.inp
orca input line           : 
orca parallel             : true
orca number of threads    : 24
                         * ORCA takes the control...
  ------------------------------------------------------------------------

                                 *****************
                                 * O   R   C   A *
                                 *****************

                                            #,                                       
                                            ###                                      
                                            ####                                     
                                            #####                                    
                                            ######                                   
                                           ########,                                 
                                     ,,################,,,,,                         
                               ,,#################################,,                 
                          ,,##########################################,,             
                       ,#########################################, ''#####,          
                    ,#############################################,,   '####,        
                  ,##################################################,,,,####,       
                ,###########''''           ''''###############################       
              ,#####''   ,,,,##########,,,,          '''####'''          '####       
            ,##' ,,,,###########################,,,                        '##       
           ' ,,###''''                  '''############,,,                           
         ,,##''                                '''############,,,,        ,,,,,,###''
      ,#''                                            '''#######################'''  
     '                                                          ''''####''''         
             ,#######,   #######,   ,#######,      ##                                
            ,#'     '#,  ##    ##  ,#'     '#,    #''#        ,####,   ,####,        
            ##       ##  ##   ,#'  ##            #'  '#       #'       #'  '#        
            ##       ##  #######   ##           ,######,      #####,   #    #        
            '#,     ,#'  ##    ##  '#,     ,#' ,#      #,     #,   #   #,  ,#        
             '#######'   ##     ##  '#######'  #'      '#     '####' # '####'        



                #########################################################
                #                        -***-                          #
                #          Department of theory and spectroscopy        #
                #                                                       #
                #                      Frank Neese                      #
                #                                                       #
                #     Directorship, Architecture, Infrastructure        #
                #                    SHARK, DRIVERS                     #
                #        Core code/Algorithms in most modules           #
                #                                                       #
                #        Max Planck Institute fuer Kohlenforschung      #
                #                Kaiser Wilhelm Platz 1                 #
                #                 D-45470 Muelheim/Ruhr                 #
                #                      Germany                          #
                #                                                       #
                #                  All rights reserved                  #
                #                        -***-                          #
                #########################################################


                         Program Version 6.0.0  -   RELEASE  -


 With contributions from (in alphabetic order):
   Daniel Aravena         : Magnetic Suceptibility
   Michael Atanasov       : Ab Initio Ligand Field Theory (pilot matlab implementation)
   Alexander A. Auer      : GIAO ZORA, VPT2 properties, NMR spectrum
   Ute Becker             : All parallelization in ORCA, NUMFREQ, NUMCALC
   Giovanni Bistoni       : ED, misc. LED, open-shell LED, HFLD
   Martin Brehm           : Molecular dynamics
   Dmytro Bykov           : pre 5.0 version of the SCF Hessian
   Marcos Casanova-Páez   : Triplet and SCS-CIS(D). UHF-(DLPNO)-IP/EA/STEOM-CCSD. UHF-CVS-IP/STEOM-CCSD
   Vijay G. Chilkuri      : MRCI spin determinant printing, contributions to CSF-ICE
   Pauline Colinet        : FMM embedding
   Dipayan Datta          : RHF DLPNO-CCSD density
   Achintya Kumar Dutta   : EOM-CC, STEOM-CC
   Nicolas Foglia         : Exact transition moments, OPA infrastructure, MCD improvements
   Dmitry Ganyushin       : Spin-Orbit,Spin-Spin,Magnetic field MRCI
   Miquel Garcia          : C-PCM and meta-GGA Hessian, CCSD/C-PCM, Gaussian charge scheme
   Tiago L. C. Gouveia    : GS-ROHF, GS-ROCIS
   Yang Guo               : DLPNO-NEVPT2, F12-NEVPT2, CIM, IAO-localization
   Andreas Hansen         : Spin unrestricted coupled pair/coupled cluster methods
   Ingolf Harden          : AUTO-CI MPn and infrastructure 
   Benjamin Helmich-Paris : MC-RPA, TRAH-(SCF,CASSCF), AVAS, COSX integrals, SCF dyn. polar.
   Lee Huntington         : MR-EOM, pCC
   Robert Izsak           : Overlap fitted RIJCOSX, COSX-SCS-MP3, EOM
   Riya Kayal             : Wick's Theorem for AUTO-CI, AUTO-CI UHF-CCSDT
   Emily Kempfer          : AUTO-CI, RHF CISDT and CCSDT
   Christian Kollmar      : KDIIS, OOCD, Brueckner-CCSD(T), CCSD density, CASPT2, CASPT2-K, improved NEVPT2
   Axel Koslowski         : Symmetry handling
   Simone Kossmann        : Meta GGA functionals, TD-DFT gradient, OOMP2, (MP2 Hessian; deprecated post 5.0)
   Lucas Lang             : DCDCAS
   Marvin Lechner         : AUTO-CI (C++ implementation), FIC-MRCC
   Spencer Leger          : CASSCF response
   Dagmar Lenk            : GEPOL surface, SMD, ORCA-2-JSON
   Dimitrios Liakos       : Extrapolation schemes; Compound Job, initial MDCI parallelization
   Dimitrios Manganas     : Further ROCIS development; embedding schemes. LFT, Crystal Embedding
   Dimitrios Pantazis     : SARC Basis sets
   Anastasios Papadopoulos: AUTO-CI, single reference methods and gradients
   Taras Petrenko         : pre 6.0 DFT Hessian and TD-DFT gradient, (ASA, deprecated), ECA, 1-Electron XAS/XES, NRVS
   Peter Pinski           : DLPNO-MP2, DLPNO-MP2 Gradient
   Christoph Reimann      : Effective Core Potentials
   Marius Retegan         : Local ZFS, SOC
   Christoph Riplinger    : Optimizer, TS searches, QM/MM, DLPNO-CCSD(T), (RO)-DLPNO pert. Triples
   Michael Roemelt        : Original ROCIS implementation
   Masaaki Saitow         : Open-shell DLPNO-CCSD energy and density
   Barbara Sandhoefer     : DKH picture change effects
   Kantharuban Sivalingam : CASSCF convergence/infrastructure, NEVPT2 and variants, FIC-MRCI
   Bernardo de Souza      : ESD, SOC TD-DFT
   Georgi Stoychev        : AutoAux, RI-MP2 NMR, DLPNO-MP2 response, X2C
   Van Anh Tran           : RI-MP2 g-tensors
   Willem Van den Heuvel  : Paramagnetic NMR
   Zikuan Wang            : NOTCH, Electric field optimization 
   Frank Wennmohs         : Technical directorship and infrastructure
   Hang Xu                : AUTO-CI-Response properties 


 We gratefully acknowledge several colleagues who have allowed us to
 interface, adapt or use parts of their codes:
   Stefan Grimme, W. Hujo, H. Kruse, P. Pracht,  : VdW corrections, initial TS optimization,
                  C. Bannwarth, S. Ehlert,         DFT functionals, gCP, sTDA/sTD-DF
                  L. Wittmann, M. Mueller
   Ed Valeev, F. Pavosevic, A. Kumar             : LibInt (2-el integral package), F12 methods
   Garnet Chan, S. Sharma, J. Yang, R. Olivares  : DMRG
   Ulf Ekstrom                                   : XCFun DFT Library
   Mihaly Kallay                                 : mrcc  (arbitrary order and MRCC methods)
   Frank Weinhold                                : gennbo (NPA and NBO analysis)
   Simon Mueller                                 : openCOSMO-RS
   Christopher J. Cramer and Donald G. Truhlar   : smd solvation model
   Lars Goerigk                                  : TD-DFT with DH, B97 family of functionals
   V. Asgeirsson, H. Jonsson                     : NEB implementation
   FAccTs GmbH                                   : IRC, NEB, NEB-TS, DLPNO-Multilevel, CI-OPT
                                                   MM, QMMM, 2- and 3-layer-ONIOM, Crystal-QMMM,
                                                   LR-CPCM, SF, NACMEs, symmetry and pop. for TD-DFT,
                                                   nearIR, NL-DFT gradient (VV10), updates on ESD,
                                                   ML-optimized integration grids, MBIS, APM,
                                                   GOAT, DOCKER, SOLVATOR, interface openCOSMO-RS
   S Lehtola, MJT Oliveira, MAL Marques          : LibXC Library
   Liviu Ungur et al                             : ANISO software


 Your calculation uses the libint2 library for the computation of 2-el integrals
 For citations please refer to: http://libint.valeyev.net

 Your ORCA version has been built with support for libXC version: 6.2.2
 For citations please refer to: https://libxc.gitlab.io

 This ORCA versions uses:
   CBLAS   interface :  Fast vector & matrix operations
   LAPACKE interface :  Fast linear algebra routines
   SCALAPACK package :  Parallel linear algebra routines
   Shared memory     :  Shared parallel matrices
   BLAS/LAPACK       :  OpenBLAS 0.3.27  USE64BITINT DYNAMIC_ARCH NO_AFFINITY SapphireRapids SINGLE_THREADED
        Core in use  :  SapphireRapids
   Copyright (c) 2011-2014, The OpenBLAS Project




***************************************
The coordinates will be read from file: xtb_opt.xyz
***************************************


Your calculation utilizes the geometrical counterpoise correction gCP
Please cite in your paper:
H.Kruse, S. Grimme J.Chem.Phys., 136, (2012), 154101 
   

Your calculation utilizes the atom-pairwise dispersion correction
based on EEQ partial charges (D4)


Your calculation utilizes the SMD solvation module
Please cite in your paper:
A.V. Marenich, C.J. Cramer, D.G. Truhlar J. Phys. Chem. B, 113, (2009), 6378 

================================================================================

----- Orbital basis set information -----
Your calculation utilizes the basis: def2-mTZVPP
   Stefan Grimme, Andreas Hansen, Sebastian Ehlert, and Jan-Michael Mewes 
   J. Chem. Phys. 154, 064103 (2021). DOI: 10.1063/5.0040021

----- AuxJ basis set information -----
Your calculation utilizes the auxiliary basis: def2/J
   F. Weigend, Phys. Chem. Chem. Phys. 8, 1057 (2006).

================================================================================
                                        WARNINGS
                       Please study these warnings very carefully!
================================================================================

WARNING: Old DensityContainer found on disk!
         Will remove this file - 
         If you want to keep old densities, please start your calculation with a different basename. 

Using LibXC functional ID 497 : Re-regularized SCAN exchange by Furness et al
[ 1]  J. W. Furness, A. D. Kaplan, J. Ning, J. P. Perdew, and J. Sun.,  J. Phys. Chem. Lett. 11, 8208-8215 (2020)
[ 2]  J. W. Furness, A. D. Kaplan, J. Ning, J. P. Perdew, and J. Sun.,  J. Phys. Chem. Lett. 11, 9248-9248 (2020)
Using LibXC functional ID 498 : Re-regularized SCAN correlation by Furness et al
[ 1]  J. W. Furness, A. D. Kaplan, J. Ning, J. P. Perdew, and J. Sun.,  J. Phys. Chem. Lett. 11, 8208-8215 (2020)
[ 2]  J. W. Furness, A. D. Kaplan, J. Ning, J. P. Perdew, and J. Sun.,  J. Phys. Chem. Lett. 11, 9248-9248 (2020)
Using LibXC functional ID 497 : Re-regularized SCAN exchange by Furness et al
[ 1]  J. W. Furness, A. D. Kaplan, J. Ning, J. P. Perdew, and J. Sun.,  J. Phys. Chem. Lett. 11, 8208-8215 (2020)
[ 2]  J. W. Furness, A. D. Kaplan, J. Ning, J. P. Perdew, and J. Sun.,  J. Phys. Chem. Lett. 11, 9248-9248 (2020)
Using LibXC functional ID 498 : Re-regularized SCAN correlation by Furness et al
[ 1]  J. W. Furness, A. D. Kaplan, J. Ning, J. P. Perdew, and J. Sun.,  J. Phys. Chem. Lett. 11, 8208-8215 (2020)
[ 2]  J. W. Furness, A. D. Kaplan, J. Ning, J. P. Perdew, and J. Sun.,  J. Phys. Chem. Lett. 11, 9248-9248 (2020)

================================================================================
                                       INPUT FILE
================================================================================
NAME = xtb_opt.inp
|  1> ! r2scan-3c def2/J RI DEFGRID2 scfconv7 ENGRAD tightSCF miniprint
|  2> %cpcm
|  3>     smd true
|  4>     smdsolvent "water"
|  5> end
|  6> * xyzfile 0 1 xtb_opt.xyz
|  7> 
|  8>                          ****END OF INPUT****
================================================================================

                     *******************************
                     * Energy+Gradient Calculation *
                     *******************************

---------------------------------
CARTESIAN COORDINATES (ANGSTROEM)
---------------------------------
  C      4.656919   -0.716209   -2.370569
  C      4.686897   -1.193525   -0.940076
  O      3.339230   -1.465249   -0.420174
  P      2.346015   -0.312063    0.106968
  S      3.150229    1.307036    0.831581
  O      1.392558   -1.152175    1.090501
  C      1.649277   -1.239777    2.535228
  C      2.837872   -2.116106    2.845642
  S      1.081598   -0.066030   -1.575982
  C      0.222121    1.491799   -1.123349
  S     -0.915716    1.442539    0.314398
  P     -2.529150    0.306694   -0.484880
  S     -2.912486    0.618190   -2.366818
  O     -3.669968    0.564311    0.617842
  C     -4.109171    1.872460    1.124648
  C     -4.770334    2.727540    0.074411
  O     -2.228463   -1.250592   -0.241519
  C     -1.930652   -1.786885    1.099767
  C     -3.102748   -2.598187    1.593338
  H      4.087335   -1.405614   -3.000849
  H      4.227043    0.285554   -2.456003
  H      5.684676   -0.678446   -2.745813
  H      5.173087   -0.473048   -0.275437
  H      5.191586   -2.157421   -0.850253
  H      1.773390   -0.224019    2.923354
  H      0.722677   -1.661961    2.931371
  H      2.721823   -3.107059    2.396573
  H      3.773067   -1.670260    2.491741
  H      2.907697   -2.235377    3.931842
  H     -0.337097    1.788589   -2.015376
  H      0.964513    2.257773   -0.883200
  H     -4.809488    1.603788    1.917104
  H     -3.250134    2.375965    1.576221
  H     -5.590079    2.192190   -0.410782
  H     -5.181494    3.612858    0.570874
  H     -4.060939    3.060777   -0.685901
  H     -1.039592   -2.403259    0.961302
  H     -1.686837   -0.964794    1.780648
  H     -2.835649   -3.050431    2.554520
  H     -3.987166   -1.971997    1.740053
  H     -3.344143   -3.401581    0.890490

----------------------------
CARTESIAN COORDINATES (A.U.)
----------------------------
  NO LB      ZA    FRAG     MASS         X           Y           Z
   0 C     6.0000    0    12.011    8.800301   -1.353440   -4.479726
   1 C     6.0000    0    12.011    8.856951   -2.255436   -1.776487
   2 O     8.0000    0    15.999    6.310231   -2.768919   -0.794014
   3 P    15.0000    0    30.974    4.433326   -0.589714    0.202140
   4 S    16.0000    0    32.060    5.953071    2.469940    1.571460
   5 O     8.0000    0    15.999    2.631553   -2.177295    2.060749
   6 C     6.0000    0    12.011    3.116682   -2.342840    4.790886
   7 C     6.0000    0    12.011    5.362800   -3.998861    5.377483
   8 S    16.0000    0    32.060    2.043925   -0.124778   -2.978175
   9 C     6.0000    0    12.011    0.419748    2.819091   -2.122822
  10 S    16.0000    0    32.060   -1.730452    2.726004    0.594126
  11 P    15.0000    0    30.974   -4.779401    0.579567   -0.916290
  12 S    16.0000    0    32.060   -5.503801    1.168210   -4.472638
  13 O     8.0000    0    15.999   -6.935234    1.066393    1.167552
  14 C     6.0000    0    12.011   -7.765209    3.538438    2.125276
  15 C     6.0000    0    12.011   -9.014625    5.154304    0.140616
  16 O     8.0000    0    15.999   -4.211185   -2.363277   -0.456404
  17 C     6.0000    0    12.011   -3.648404   -3.376723    2.078258
  18 C     6.0000    0    12.011   -5.863344   -4.909863    3.010973
  19 H     1.0000    0     1.008    7.723945   -2.656225   -5.670782
  20 H     1.0000    0     1.008    7.987954    0.539619   -4.641173
  21 H     1.0000    0     1.008   10.742482   -1.282077   -5.188834
  22 H     1.0000    0     1.008    9.775718   -0.893931   -0.520500
  23 H     1.0000    0     1.008    9.810675   -4.076934   -1.606746
  24 H     1.0000    0     1.008    3.351221   -0.423334    5.524338
  25 H     1.0000    0     1.008    1.365662   -3.140650    5.539489
  26 H     1.0000    0     1.008    5.143500   -5.871490    4.528866
  27 H     1.0000    0     1.008    7.130064   -3.156333    4.708709
  28 H     1.0000    0     1.008    5.494752   -4.224251    7.430104
  29 H     1.0000    0     1.008   -0.637022    3.379943   -3.808508
  30 H     1.0000    0     1.008    1.822665    4.266573   -1.669007
  31 H     1.0000    0     1.008   -9.088614    3.030720    3.622801
  32 H     1.0000    0     1.008   -6.141863    4.489923    2.978626
  33 H     1.0000    0     1.008  -10.563719    4.142639   -0.776266
  34 H     1.0000    0     1.008   -9.791605    6.827312    1.078795
  35 H     1.0000    0     1.008   -7.674063    5.784030   -1.296165
  36 H     1.0000    0     1.008   -1.964544   -4.541502    1.816597
  37 H     1.0000    0     1.008   -3.187660   -1.823197    3.364937
  38 H     1.0000    0     1.008   -5.358600   -5.764479    4.827344
  39 H     1.0000    0     1.008   -7.534652   -3.726534    3.288224
  40 H     1.0000    0     1.008   -6.319515   -6.428057    1.682782

------------------------------------------------------------------------------
                   ___                                                        
                  /   \      - P O W E R E D   B Y -                         
                 /     \                                                     
                 |  |  |   _    _      __       _____    __    __             
                 |  |  |  | |  | |    /  \     |  _  \  |  |  /  |          
                  \  \/   | |  | |   /    \    | | | |  |  | /  /          
                 / \  \   | |__| |  /  /\  \   | |_| |  |  |/  /          
                |  |  |   |  __  | /  /__\  \  |    /   |      \           
                |  |  |   | |  | | |   __   |  |    \   |  |\   \          
                \     /   | |  | | |  |  |  |  | |\  \  |  | \   \       
                 \___/    |_|  |_| |__|  |__|  |_| \__\ |__|  \__/        
                                                                              
                      - O R C A' S   B I G   F R I E N D -                    
                                      &                                       
                       - I N T E G R A L  F E E D E R -                       
                                                                              
 v1 FN, 2020, v2 2021, v3 2022-2024                                           
------------------------------------------------------------------------------


----------------------
SHARK INTEGRAL PACKAGE
----------------------

Number of atoms                             ...     41
Number of basis functions                   ...    539
Number of shells                            ...    253
Maximum angular momentum                    ...      2
Integral batch strategy                     ... SHARK/LIBINT Hybrid
RI-J (if used) integral strategy            ... SPLIT-RIJ (Revised 2003 algorithm where possible)
Printlevel                                  ...      1
Contraction scheme used                     ... SEGMENTED contraction
Prescreening option                         ... SCHWARTZ
   Thresh                                   ... 3.000e-11
   Tcut                                     ... 1.000e-12
   Tpresel                                  ... 1.000e-12 
Coulomb Range Separation                    ... NOT USED
Exchange Range Separation                   ... NOT USED
Multipole approximations                    ... NOT USED
Finite Nucleus Model                        ... NOT USED
CABS basis                                  ... NOT available
Auxiliary Coulomb fitting basis             ... AVAILABLE
   # of basis functions in Aux-J            ...   1185
   # of shells in Aux-J                     ...    407
   Maximum angular momentum in Aux-J        ...      4
Auxiliary J/K fitting basis                 ... NOT available
Auxiliary Correlation fitting basis         ... NOT available
Auxiliary 'external' fitting basis          ... NOT available

Checking pre-screening integrals            ... done (  0.0 sec) Dimension = 253
Check shell pair data                       ... done (  0.0 sec)
Shell pair information
Shell pair cut-off parameter TPreSel        ...   1.0e-12
Total number of shell pairs                 ...     32131
Shell pairs after pre-screening             ...     21373
Total number of primitive shell pairs       ...    124843
Primitive shell pairs kept                  ...     50134
          la=0 lb=0:   6043 shell pairs
          la=1 lb=0:   7757 shell pairs
          la=1 lb=1:   2549 shell pairs
          la=2 lb=0:   2843 shell pairs
          la=2 lb=1:   1834 shell pairs
          la=2 lb=2:    347 shell pairs

Calculating one electron integrals          ... done (  0.1 sec)
Calculating RI/J V-Matrix + Cholesky decomp.... done (  0.1 sec)
Calculating Nuclear repulsion               ... done (  0.0 sec) ENN=   2701.788807011863 Eh

Diagonalization of the overlap matrix:
Smallest eigenvalue                        ... 3.146e-04
Time for diagonalization                   ...    0.071 sec
Threshold for overlap eigenvalues          ... 1.000e-07
Number of eigenvalues below threshold      ... 0
Time for construction of square roots      ...    0.073 sec
Total time needed                          ...    0.161 sec

-------------------
DFT GRID GENERATION
-------------------

General Integration Accuracy     IntAcc      ... 4.388
Radial Grid Type                 RadialGrid  ... OptM3 with GC (2021)
Angular Grid (max. ang.)         AngularGrid ... 4 (Lebedev-302)
Angular grid pruning method      GridPruning ... 4 (adaptive)
Weight generation scheme         WeightScheme... mBecke (2022)
Basis function cutoff            BFCut       ... 1.0000e-11
Integration weight cutoff        WCut        ... 1.0000e-14
Partially contracted basis set               ... off
Rotationally invariant grid construction     ... off
Angular grids for H and He will be reduced by one unit
Diffuse basis detected: some atoms will have their outermost
                        angular grid increased by 1.

Total number of grid points                  ...   192950
Total number of batches                      ...     3033
Average number of points per batch           ...       63
Average number of grid points per atom       ...     4706
Initializing property integral containers    ... done (  0.0 sec)

SHARK setup successfully completed in   3.2 seconds

Maximum memory used throughout the entire STARTUP-calculation: 102.3 MB
Occupation numbers will be reassigned to an Aufbau configuration
             **** ENERGY FILE WAS UPDATED (xtb_opt.en.tmp) ****
Finished Guess after   0.6 sec
Maximum memory used throughout the entire GUESS-calculation: 55.5 MB
--------------------
CPCM SOLVATION MODEL
--------------------
CPCM parameters:
  Epsilon                                         ...      78.3550
  Refrac                                          ...       1.3328
  Rsolv                                           ...       1.3000
  Surface type                                    ... GAUSSIAN VDW
  Discretization scheme                           ... Constant charge density
    Threshold for H atoms                         ...       5.0000 (charges/Ang^2)
    Threshold for non-H atoms                     ...       5.0000 (charges/Ang^2)
  Epsilon function type                           ...         CPCM
Solvent:                                          ... WATER
SMD-CDS solvent descriptors:
  Soln                                            ...       1.3328
  Soln25                                          ...       1.3323
  Sola                                            ...       0.0000
  Solb                                            ...       0.0000
  Solg                                            ...       0.0000
  Solc                                            ...       0.0000
  Solh                                            ...       0.0000
Radii:
  Scheme                                          ... Element-dependent radii
  Radius for C  used is    3.4960 Bohr (=   1.8500 Ang.)
  Radius for O  used is    2.8724 Bohr (=   1.5200 Ang.)
  Radius for P  used is    4.0062 Bohr (=   2.1200 Ang.)
  Radius for S  used is    4.7054 Bohr (=   2.4900 Ang.)
  Radius for H  used is    2.2677 Bohr (=   1.2000 Ang.)
Calculating surface                               ...        done! (  0.0s)
Cavity surface points                             ...         3468
Cavity Volume                                     ...    2829.2765
Cavity Surface-area                               ...    1436.6789
Calculating surface distance matrix               ...        done! (  0.1s)
Performing Cholesky decomposition & store         ...        done! (  0.5s)
Overall time for CPCM initialization              ...                 0.6s

----------------------------------------D-I-I-S--------------------------------------------
Iteration    Energy (Eh)           Delta-E    RMSDP     MaxDP     DIISErr   Damp  Time(sec)
-------------------------------------------------------------------------------------------
               ***  Starting incremental Fock matrix formation  ***
                              *** Initializing SOSCF ***
---------------------------------------S-O-S-C-F--------------------------------------
Iteration    Energy (Eh)           Delta-E    RMSDP     MaxDP     MaxGrad    Time(sec)
--------------------------------------------------------------------------------------
    1    -2932.5180592832111870     0.00e+00  3.69e-07  1.91e-05  1.84e-06    13.5
               *** Restarting incremental Fock matrix formation ***
    2    -2932.5180592851002075    -1.89e-09  4.19e-07  1.89e-05  3.71e-06    13.3
                  *** Gradient check signals convergence ***

               *****************************************************
               *                     SUCCESS                       *
               *           SCF CONVERGED AFTER   2 CYCLES          *
               *****************************************************


SMD CDS free energy correction energy :                 7.17460     Kcal/mol
Total Energy after SMD CDS correction =             -2932.506625833 Eh
             **** ENERGY FILE WAS UPDATED (xtb_opt.en.tmp) ****

----------------
TOTAL SCF ENERGY
----------------

Total Energy       :      -2932.50662583253688 Eh          -79797.56212 eV

Components:
Nuclear Repulsion  :       2701.78880701186336 Eh           73519.41109 eV
Electronic Energy  :      -5634.27624147220376 Eh         -153316.45099 eV
One Electron Energy:      -9425.84329888956199 Eh         -256490.23587 eV
Two Electron Energy:       3791.56705741735868 Eh          103173.78489 eV
CPCM Dielectric    :         -0.03062482476061 Eh              -0.83334 eV
SMD CDS (Gcds)     :          0.01143345256317 Eh               0.31112 eV

Virial components:
Potential Energy   :      -5855.59984176969920 Eh         -159338.97233 eV
Kinetic Energy     :       2923.09321593716277 Eh           79541.41021 eV
Virial Ratio       :          2.00322035911960

DFT components:
N(Alpha)           :      100.999972323728 electrons
N(Beta)            :      100.999972323728 electrons
N(Total)           :      201.999944647455 electrons
E(X)               :     -233.397483581043 Eh       
E(C)               :       -7.104239513602 Eh       
E(XC)              :     -240.501723094644 Eh       

CPCM Solvation Model Properties:
Surface-charge          :         -0.04632578929655
Corrected charge        :          0.00000000000000
Outlying charge corr.   :          0.00010849714784 Eh               0.00295 eV
Free-energy (cav+disp)  :          0.01143345256317 Eh               0.31112 eV

---------------
SCF CONVERGENCE
---------------

  Last Energy change         ...    1.8890e-09  Tolerance :   1.0000e-07
  Last MAX-Density change    ...    1.8881e-05  Tolerance :   1.0000e-07
  Last RMS-Density change    ...    4.1911e-07  Tolerance :   5.0000e-09
  Last DIIS Error            ...    2.1055e-05  Tolerance :   1.0000e-07
  Last Orbital Gradient      ...    3.7088e-06  Tolerance :   1.0000e-04
  Last Orbital Rotation      ...    1.1144e-05  Tolerance :   1.0000e-04


----------------
ORBITAL ENERGIES
----------------

  NO   OCC          E(Eh)            E(eV) 
   0   2.0000     -88.583122     -2410.4693 
   1   2.0000     -88.582623     -2410.4557 
   2   2.0000     -88.532633     -2409.0954 
   3   2.0000     -88.529559     -2409.0118 
   4   2.0000     -76.922617     -2093.1708 
   5   2.0000     -76.921493     -2093.1402 
   6   2.0000     -18.996047      -516.9087 
   7   2.0000     -18.994292      -516.8610 
   8   2.0000     -18.993269      -516.8331 
   9   2.0000     -18.991976      -516.7979 
  10   2.0000     -10.110690      -275.1259 
  11   2.0000     -10.095265      -274.7061 
  12   2.0000     -10.092080      -274.6195 
  13   2.0000     -10.091810      -274.6121 
  14   2.0000     -10.091613      -274.6067 
  15   2.0000     -10.022127      -272.7159 
  16   2.0000     -10.021637      -272.7026 
  17   2.0000     -10.021507      -272.6991 
  18   2.0000     -10.021346      -272.6947 
  19   2.0000      -7.876666      -214.3350 
  20   2.0000      -7.876157      -214.3211 
  21   2.0000      -7.827871      -213.0072 
  22   2.0000      -7.824934      -212.9273 
  23   2.0000      -6.599987      -179.5948 
  24   2.0000      -6.599172      -179.5726 
  25   2.0000      -5.823572      -158.4674 
  26   2.0000      -5.823112      -158.4549 
  27   2.0000      -5.820288      -158.3781 
  28   2.0000      -5.819948      -158.3688 
  29   2.0000      -5.814138      -158.2107 
  30   2.0000      -5.813428      -158.1914 
  31   2.0000      -5.775261      -157.1528 
  32   2.0000      -5.772507      -157.0779 
  33   2.0000      -5.768210      -156.9610 
  34   2.0000      -5.767981      -156.9547 
  35   2.0000      -5.765177      -156.8785 
  36   2.0000      -5.764934      -156.8718 
  37   2.0000      -4.745673      -129.1363 
  38   2.0000      -4.745210      -129.1237 
  39   2.0000      -4.744460      -129.1033 
  40   2.0000      -4.743989      -129.0905 
  41   2.0000      -4.743487      -129.0769 
  42   2.0000      -4.743357      -129.0733 
  43   2.0000      -1.041375       -28.3373 
  44   2.0000      -1.038923       -28.2705 
  45   2.0000      -1.000142       -27.2152 
  46   2.0000      -0.999466       -27.1968 
  47   2.0000      -0.795547       -21.6479 
  48   2.0000      -0.754807       -20.5393 
  49   2.0000      -0.743226       -20.2242 
  50   2.0000      -0.726939       -19.7810 
  51   2.0000      -0.723759       -19.6945 
  52   2.0000      -0.712422       -19.3860 
  53   2.0000      -0.693178       -18.8623 
  54   2.0000      -0.677169       -18.4267 
  55   2.0000      -0.628643       -17.1062 
  56   2.0000      -0.614807       -16.7297 
  57   2.0000      -0.597540       -16.2599 
  58   2.0000      -0.595081       -16.1930 
  59   2.0000      -0.594950       -16.1894 
  60   2.0000      -0.526317       -14.3218 
  61   2.0000      -0.514087       -13.9890 
  62   2.0000      -0.487131       -13.2555 
  63   2.0000      -0.485346       -13.2069 
  64   2.0000      -0.471034       -12.8175 
  65   2.0000      -0.457620       -12.4525 
  66   2.0000      -0.448685       -12.2093 
  67   2.0000      -0.442807       -12.0494 
  68   2.0000      -0.439492       -11.9592 
  69   2.0000      -0.425304       -11.5731 
  70   2.0000      -0.417968       -11.3735 
  71   2.0000      -0.412770       -11.2320 
  72   2.0000      -0.406266       -11.0551 
  73   2.0000      -0.401828       -10.9343 
  74   2.0000      -0.394355       -10.7309 
  75   2.0000      -0.384303       -10.4574 
  76   2.0000      -0.379354       -10.3227 
  77   2.0000      -0.367603       -10.0030 
  78   2.0000      -0.365739        -9.9523 
  79   2.0000      -0.358863        -9.7652 
  80   2.0000      -0.353654        -9.6234 
  81   2.0000      -0.350441        -9.5360 
  82   2.0000      -0.348793        -9.4911 
  83   2.0000      -0.345346        -9.3973 
  84   2.0000      -0.343873        -9.3573 
  85   2.0000      -0.334343        -9.0979 
  86   2.0000      -0.323387        -8.7998 
  87   2.0000      -0.308290        -8.3890 
  88   2.0000      -0.305435        -8.3113 
  89   2.0000      -0.303653        -8.2628 
  90   2.0000      -0.298604        -8.1254 
  91   2.0000      -0.291975        -7.9450 
  92   2.0000      -0.289309        -7.8725 
  93   2.0000      -0.280906        -7.6439 
  94   2.0000      -0.277443        -7.5496 
  95   2.0000      -0.254073        -6.9137 
  96   2.0000      -0.243437        -6.6243 
  97   2.0000      -0.236303        -6.4301 
  98   2.0000      -0.229391        -6.2420 
  99   2.0000      -0.225676        -6.1409 
 100   2.0000      -0.223769        -6.0891 
 101   0.0000      -0.051499        -1.4014 
 102   0.0000      -0.028398        -0.7727 
 103   0.0000      -0.017281        -0.4702 
 104   0.0000      -0.005603        -0.1525 
 105   0.0000       0.002362         0.0643 
 106   0.0000       0.017257         0.4696 
 107   0.0000       0.023664         0.6439 
 108   0.0000       0.025949         0.7061 
 109   0.0000       0.043935         1.1955 
 110   0.0000       0.068549         1.8653 
 111   0.0000       0.073222         1.9925 
*Only the first 10 virtual orbitals were printed.
Total SCF time: 0 days 0 hours 0 min 28 sec 
Finished LeanSCF after  28.5 sec

Maximum memory used throughout the entire LEANSCF-calculation: 138.8 MB


-------------------------------------------------------------------------------
                          DFT DISPERSION CORRECTION                            
                                                                               
                                DFTD4 V3.4.0                                   
-------------------------------------------------------------------------------
-------------------------   ----------------
Dispersion correction           -0.020696172
-------------------------   ----------------

------------------   -----------------
gCP correction             0.044968400
------------------   -----------------

-------------------------   --------------------
FINAL SINGLE POINT ENERGY     -2932.482353604274
-------------------------   --------------------

------------------------------------------------------------------------------
                         ORCA SCF GRADIENT CALCULATION
------------------------------------------------------------------------------

Nuc. rep. gradient        (SHARK) ... done (  0.0 sec)
HCore & Overlap gradient  (SHARK) ... done (  2.0 sec)
Split-RIJ-J gradient      (SHARK) ... done (  9.4 sec)
XC gradient                       ... done ( 22.1 sec)
CPCM gradient                     ... done (  7.9 sec)
SMD gradient                      ... done (  0.0 sec)
Dispersion correction             ... done (  0.0 sec)

-------------------
DISPERSION GRADIENT
-------------------

   1   C   :    0.000095876   -0.000023805   -0.000100760
   2   C   :    0.000116550   -0.000033813   -0.000059634
   3   O   :    0.000086254   -0.000067831   -0.000045276
   4   P   :    0.000195210    0.000033316    0.000007571
   5   S   :    0.000176898    0.000239536    0.000111071
   6   O   :    0.000058571   -0.000069365    0.000087449
   7   C   :    0.000056741   -0.000048265    0.000155171
   8   C   :    0.000048269   -0.000085864    0.000130891
   9   S   :    0.000056694    0.000046944   -0.000249035
  10   C   :    0.000026708    0.000126989   -0.000095085
  11   S   :   -0.000025289    0.000238432   -0.000013873
  12   P   :   -0.000177635    0.000016232   -0.000114849
  13   S   :   -0.000128397   -0.000005667   -0.000297217
  14   O   :   -0.000093874    0.000028121    0.000040740
  15   C   :   -0.000088817    0.000085651    0.000064409
  16   C   :   -0.000104330    0.000096090    0.000010841
  17   O   :   -0.000085835   -0.000111451   -0.000022472
  18   C   :   -0.000095879   -0.000134444    0.000059581
  19   C   :   -0.000074127   -0.000136305    0.000066897
  20   H   :    0.000034294   -0.000021321   -0.000043675
  21   H   :    0.000048810   -0.000003052   -0.000047982
  22   H   :    0.000035553   -0.000005328   -0.000031793
  23   H   :    0.000053804   -0.000002620   -0.000016536
  24   H   :    0.000045628   -0.000033790   -0.000025565
  25   H   :    0.000025079   -0.000001682    0.000068883
  26   H   :    0.000020419   -0.000035733    0.000073067
  27   H   :    0.000011719   -0.000047080    0.000043736
  28   H   :    0.000013976   -0.000030660    0.000054234
  29   H   :    0.000010381   -0.000024651    0.000043576
  30   H   :    0.000005403    0.000036419   -0.000048792
  31   H   :    0.000014454    0.000061058   -0.000017195
  32   H   :   -0.000044004    0.000027598    0.000035910
  33   H   :   -0.000032458    0.000044106    0.000040388
  34   H   :   -0.000047730    0.000028898    0.000002277
  35   H   :   -0.000031424    0.000035654    0.000010068
  36   H   :   -0.000047394    0.000045583   -0.000001801
  37   H   :   -0.000044339   -0.000083145    0.000013784
  38   H   :   -0.000049283   -0.000042525    0.000043631
  39   H   :   -0.000024054   -0.000041401    0.000026077
  40   H   :   -0.000024303   -0.000053272    0.000028514
  41   H   :   -0.000018118   -0.000047558    0.000012774

Difference to translation invariance:
           :    0.0000000000    0.0000000000    0.0000000000

Difference to rotation invariance:
           :    0.0000000000    0.0000000000    0.0000000000

Norm of the Dispersion gradient    ...    0.0008881653
RMS gradient                       ...    0.0000800832
MAX gradient                       ...    0.0002972168
gCP correction                   ... done

------------------
CARTESIAN GRADIENT
------------------

   1   C   :    0.000146133    0.000057125    0.000106936
   2   C   :   -0.000009365   -0.000069448   -0.000037031
   3   O   :   -0.000023652   -0.000209958   -0.000254018
   4   P   :    0.000054597    0.000374063   -0.000118960
   5   S   :   -0.000104353    0.000047026   -0.000013609
   6   O   :    0.000148014   -0.000295016    0.000462560
   7   C   :    0.000066245    0.000134884   -0.000000868
   8   C   :   -0.000213659    0.000068165    0.000114593
   9   S   :    0.000050298   -0.000057880   -0.000284648
  10   C   :    0.000692631    0.000490167    0.000174639
  11   S   :   -0.000425711   -0.000425258   -0.000471443
  12   P   :   -0.000247453    0.000166672    0.000576940
  13   S   :    0.000170759    0.000080308   -0.000198035
  14   O   :   -0.000497407    0.000522438    0.000055175
  15   C   :    0.000181482   -0.000342437    0.000034379
  16   C   :    0.000132849   -0.000329953   -0.000308454
  17   O   :   -0.000139038   -0.000363653   -0.000099094
  18   C   :    0.000256420    0.000179438   -0.000359409
  19   C   :   -0.000085237    0.000090312    0.000112883
  20   H   :   -0.000128381   -0.000018022    0.000010722
  21   H   :    0.000284097   -0.000003234   -0.000097825
  22   H   :   -0.000145723   -0.000140817   -0.000074000
  23   H   :    0.000036577    0.000062342    0.000038626
  24   H   :    0.000022540    0.000086461   -0.000021763
  25   H   :    0.000023230    0.000029094   -0.000027806
  26   H   :   -0.000167533   -0.000055965    0.000095879
  27   H   :   -0.000007963   -0.000208912   -0.000106254
  28   H   :    0.000267318    0.000191327   -0.000047542
  29   H   :   -0.000132691    0.000003575    0.000011631
  30   H   :    0.000043109   -0.000197849    0.000254731
  31   H   :   -0.000131669   -0.000133395   -0.000099908
  32   H   :    0.000216909    0.000097771   -0.000314402
  33   H   :   -0.000438723   -0.000121444   -0.000152042
  34   H   :    0.000417557    0.000297419    0.000250147
  35   H   :    0.000000465    0.000031656    0.000114494
  36   H   :   -0.000310280   -0.000107138    0.000419898
  37   H   :    0.000211229    0.000026684   -0.000031780
  38   H   :    0.000037188    0.000317643    0.000249291
  39   H   :    0.000118788    0.000004439    0.000193805
  40   H   :   -0.000210262    0.000065962    0.000175462
  41   H   :   -0.000159334   -0.000344590   -0.000333899

Difference to translation invariance:
           :   -0.0000000001    0.0000000000    0.0000000000

Difference to rotation invariance:
           :   -0.0001380636    0.0003044721   -0.0003719432

Norm of the Cartesian gradient     ...    0.0024727850
RMS gradient                       ...    0.0002229635
MAX gradient                       ...    0.0006926305

-------
TIMINGS
-------

Total SCF gradient time     ....       47.377 sec

Densities                   ....       0.007 sec  (  0.0%)
One electron gradient       ....       2.003 sec  (  4.2%)
RI-J Coulomb gradient       ....       9.439 sec  ( 19.9%)
XC gradient                 ....      22.059 sec  ( 46.6%)
CPCM gradient               ....       7.918 sec  ( 16.7%)
   A-Matrix (El+Nuc)        ....       0.336 sec  (  0.7%)
   Potential                ....       7.582 sec  ( 16.0%)
SMD gradient                ....       0.015 sec  (  0.0%)

Maximum memory used throughout the entire SCFGRAD-calculation: 84.5 MB

------------------------------------------------------------------------------
                              ORCA PROPERTY CALCULATIONS
------------------------------------------------------------------------------

GBWName                                 ... xtb_opt.gbw
Number of atoms                         ...     41
Number of basis functions               ...    539
Max core memory                         ...   1024 MB

Electric properties:
Dipole moment                           ... YES
Quadrupole moment                       ...  NO
Static polarizability (Dipole/Dipole)   ...  NO
Static polarizability (Dipole/Quad.)    ...  NO
Static polarizability (Quad./Quad.)     ...  NO
Static polarizability (Velocity)        ...  NO

Atomic electric properties:
Dipole moment                           ...  NO
Quadrupole moment                       ...  NO
Static polarizability                   ...  NO

Choice of electric origin               ... Center of mass
Position of electric origin             ...    -0.042274     0.008808    -0.064170

General magnetic properties:
Magnetizability                         ...  NO

EPR properties:
g-Tensor (aka g-matrix)                 ...  NO
Zero-Field splitting spin-orbit         ...  NO
Zero-field splitting spin-spin          ...  NO
Hyperfine couplings                     ...  NO (   0 nuclei)
Quadrupole couplings                    ...  NO (   0 nuclei)
Contact density                         ...  NO (   0 nuclei)

NMR properties:
Chemical shifts                         ...  NO (   0 nuclei)
Spin-rotation constants                 ...  NO (   0 nuclei)
Spin-spin couplings                     ...  NO (   0 nuclei,    0 pairs)

Choice of magnetic origin               ... GIAO
Position of magnetic origin             ...     0.000000     0.000000     0.000000

Properties with geometric perturbations:
SCF Hessian                             ...  NO
IR spectrum                             ...  NO
VCD spectrum                            ...  NO
X-ray spectroscopy properties:
SCF XES/XAS/RIXS spectra                ...  NO


-------------
DIPOLE MOMENT
-------------

Method             : SCF
Type of density    : Electron Density
Multiplicity       :   1
Irrep              :   0
Energy             : -2932.5066258325368835 Eh
Relativity type    : 
Basis              : AO
                                X                 Y                 Z
Electronic contribution:     -0.859988840       7.650590966     -11.114259625
Nuclear contribution   :      1.591178713      -7.946354352      13.589980368
                        -----------------------------------------
Total Dipole Moment    :      0.731189873      -0.295763386       2.475720743
                        -----------------------------------------
Magnitude (a.u.)       :      2.598327887
Magnitude (Debye)      :      6.604424627



--------------------
Rotational spectrum 
--------------------
 
Rotational constants in cm-1:             0.012499             0.004540             0.004135 
Rotational constants in MHz :           374.712715           136.113368           123.956065 

Dipole components along the rotational axes: 
x,y,z [a.u.] :     0.839523    -2.116168     1.252335 
x,y,z [Debye]:     2.133897    -5.378871     3.183183 

 

Dipole moment calculation done in   0.0 sec 

Maximum memory used throughout the entire PROP-calculation: 51.8 MB

--------------------------------
SUGGESTED CITATIONS FOR THIS RUN
--------------------------------

Below you find a list of papers that are relevant to this ORCA run
We neither can nor want to force you to cite these papers, but we appreciate if you do
You receive ORCA, which is the product of decades of hard work by many enthusiastic individuals, for free
The only thing we kindly ask in return is that you cite our papers,
We deeply appreciate it, if you show your appreciation for ORCA by not just citing the generic ORCA reference.

Please note that relegating all ORCA citations to the supporting information does *not* help us.
SI sections are not indexed - citations you put there will not count into any citation statistics
But we need these citations in order to attract the funding resources that allow us to do what we are doing

Therefore, if you are a happy ORCA user, please consider citing a few of the papers listed below in the main body of your paper

In addition to the list printed below, the program has created the file xtb_opt.bibtex that contains the list in bibtex format
You can import this file easily into all common literature databanks and citation aid programs


List of essential papers. We consider these as the minimum necessary citations

  1. Neese,F.
     Software update: the ORCA program system, version 5.0
     WIRES Comput. Molec. Sci., 2022 12(1)e1606
     doi.org/10.1002/wcms.1606
  2. Grimme,S.; Hansen,A.; Ehlert,S.; Mewes,J.
     r2SCAN-3c: A 'Swiss army knife' composite electronic-structure method
     J. Chem. Phys., 2021 154 064103
     doi.org/10.1063/5.0040021

List of papers to cite with high priority. The work reported in these papers was absolutely
necessary for this run to complete.
Our perspective: the developers of density functionals and basis sets usually get cited in chemistry papers
Good! But without the algorithms to do something with them, the functionals or basis sets would not do anything.
Hence, in our opinion, the algorithm design and method developments papers are equally worthy of getting cited

  1. Neese,F.
     An improvement of the resolution of the identity approximation for the formation of the Coulomb matrix
     J. Comp. Chem., 2003 24(14)1740-1747
     doi.org/10.1002/jcc.10318
  2. Garcia-Rates,M.; Neese,F.
     Effect of the Solute Cavity on the Solvation Energy and its Derivatives within the Framework of the Gaussian Charge Scheme
     J. Comput. Chem., 2020 41 922-939
     doi.org/10.1002/jcc.26139
  3. Neese,F.
     The SHARK Integral Generation and Digestion System
     J. Comp. Chem., 2022  1-16
     doi.org/10.1002/jcc.26942
  4. Lehtola,S.; Steigemann,C.; Oliveira,M.; Marques,M.
     Recent developments in Libxc - A comprehensive library of functionals for density functional theory
     Software X, 2018 7 
     doi.org/10.1016/j.softx.2017.11.002
  5. Caldeweyher,E.; Bannwarth,C.; Grimme,S.
     Extension of the D3 dispersion coefficient model
     J. Chem. Phys., 2017 147 034112-XXXX
     doi.org/10.1063/1.4993215
  6. Caldeweyher,E.; Ehlert,S.; Hansen,A.; Neugebauer,H.; Spicher,S.; Bannwarth,C.; Grimme,S.
     A generally applicable atomic-charge dependent London dispersion correction
     J. Chem. Phys., 2019 150 154122-XXXX
     doi.org/10.1063/1.5090222
  7. Caldeweyher,E.; Mewes,J.; Ehlert,S.; Grimme,S.
     Extension and evaluation of the D4 London-dispersion model for periodic systems
     Phys. Chem. Chem. Phys., 2020 22(16)8499-8512
     doi.org/10.1039/D0CP00502A

List of suggested additional citations. These are papers that are important in the 'surrounding' of 
of this run, or papers that preceded the highly important papers. If you like your results we are grateful for a citation.

  1. Neese,F.
     The ORCA program system
     WIRES Comput. Molec. Sci., 2012 2(1)73-78
     doi.org/10.1002/wcms.81
  2. Neese,F.
     Software update: the ORCA program system, version 4.0
     WIRES Comput. Molec. Sci., 2018 8(1)1-6
     doi.org/10.1002/wcms.1327
  3. Neese,F.; Wennmohs,F.; Becker,U.; Riplinger,C.
     The ORCA quantum chemistry program package
     J. Chem. Phys., 2020 152 Art. No. L224108
     doi.org/10.1063/5.0004608

List of optional additional citations

  1. Neese,F.
     Approximate second-order SCF convergence for spin unrestricted wavefunctions
     Chem. Phys. Lett., 2000 325(1-3)93-98
     doi.org/10.1016/s0009-2614(00)00662-x

Timings for individual modules:

Sum of individual times          ...       80.304 sec (=   1.338 min)
Startup calculation              ...        3.302 sec (=   0.055 min)   4.1 %
SCF iterations                   ...       29.184 sec (=   0.486 min)  36.3 %
Property calculations            ...        0.264 sec (=   0.004 min)   0.3 %
SCF Gradient evaluation          ...       47.554 sec (=   0.793 min)  59.2 %
                             ****ORCA TERMINATED NORMALLY****
TOTAL RUN TIME: 0 days 0 hours 1 minutes 21 seconds 186 msec
  ------------------------------------------------------------------------
          * successful ORCA run, taking over control again...

         :::::::::::::::::::::::::::::::::::::::::::::::::::::
         ::                  ORCA SUMMARY                   ::
         :::::::::::::::::::::::::::::::::::::::::::::::::::::
         :: total energy           -2932.482353604274 Eh    ::
         :: gradient norm              0.002472784950 Eh/a0 ::
         :: HOMO-LUMO gap              0.000000000000 eV    ::
         :::::::::::::::::::::::::::::::::::::::::::::::::::::

      ----------------------------------------------------------- 
     |                       L-ANC optimizer                     |
      ----------------------------------------------------------- 
          low memory version by Sebastian Ehlert

          ...................................................
          :                      SETUP                      :
          :.................................................:
          :   energy convergence        0.5000000E-05 Eh    :
          :   grad. convergence         0.1000000E-02 Eh/a0 :
          :   optimization log               true           :
          :   writing optlog all                1     steps :
          :   Hessian reset                     8     steps :
          :   maximium step len.        1.0000000     a0    :
          :   LBFGS images                      8           :
          ...................................................
 * calculating model hessian...
Using Lindh-Hessian (1995)
 Shifting diagonal of input Hessian by   1.002508854231564E-002
 Lowest  eigenvalues of input Hessian
    0.010000    0.010009    0.000000    0.000000    0.000000    0.000000
    0.000000    0.000000    0.010424    0.010462    0.010669    0.011446
    0.011663    0.011823    0.011983    0.012254    0.012380    0.012506
 Highest eigenvalues
    1.297057    1.307527    1.724834    1.746144    1.872354    1.893158
 

........................................................................
.............................. CYCLE    1 ..............................
........................................................................
                         * ORCA takes the control...
  ------------------------------------------------------------------------

                                 *****************
                                 * O   R   C   A *
                                 *****************

                                            #,                                       
                                            ###                                      
                                            ####                                     
                                            #####                                    
                                            ######                                   
                                           ########,                                 
                                     ,,################,,,,,                         
                               ,,#################################,,                 
                          ,,##########################################,,             
                       ,#########################################, ''#####,          
                    ,#############################################,,   '####,        
                  ,##################################################,,,,####,       
                ,###########''''           ''''###############################       
              ,#####''   ,,,,##########,,,,          '''####'''          '####       
            ,##' ,,,,###########################,,,                        '##       
           ' ,,###''''                  '''############,,,                           
         ,,##''                                '''############,,,,        ,,,,,,###''
      ,#''                                            '''#######################'''  
     '                                                          ''''####''''         
             ,#######,   #######,   ,#######,      ##                                
            ,#'     '#,  ##    ##  ,#'     '#,    #''#        ,####,   ,####,        
            ##       ##  ##   ,#'  ##            #'  '#       #'       #'  '#        
            ##       ##  #######   ##           ,######,      #####,   #    #        
            '#,     ,#'  ##    ##  '#,     ,#' ,#      #,     #,   #   #,  ,#        
             '#######'   ##     ##  '#######'  #'      '#     '####' # '####'        



                #########################################################
                #                        -***-                          #
                #          Department of theory and spectroscopy        #
                #                                                       #
                #                      Frank Neese                      #
                #                                                       #
                #     Directorship, Architecture, Infrastructure        #
                #                    SHARK, DRIVERS                     #
                #        Core code/Algorithms in most modules           #
                #                                                       #
                #        Max Planck Institute fuer Kohlenforschung      #
                #                Kaiser Wilhelm Platz 1                 #
                #                 D-45470 Muelheim/Ruhr                 #
                #                      Germany                          #
                #                                                       #
                #                  All rights reserved                  #
                #                        -***-                          #
                #########################################################


                         Program Version 6.0.0  -   RELEASE  -


 With contributions from (in alphabetic order):
   Daniel Aravena         : Magnetic Suceptibility
   Michael Atanasov       : Ab Initio Ligand Field Theory (pilot matlab implementation)
   Alexander A. Auer      : GIAO ZORA, VPT2 properties, NMR spectrum
   Ute Becker             : All parallelization in ORCA, NUMFREQ, NUMCALC
   Giovanni Bistoni       : ED, misc. LED, open-shell LED, HFLD
   Martin Brehm           : Molecular dynamics
   Dmytro Bykov           : pre 5.0 version of the SCF Hessian
   Marcos Casanova-Páez   : Triplet and SCS-CIS(D). UHF-(DLPNO)-IP/EA/STEOM-CCSD. UHF-CVS-IP/STEOM-CCSD
   Vijay G. Chilkuri      : MRCI spin determinant printing, contributions to CSF-ICE
   Pauline Colinet        : FMM embedding
   Dipayan Datta          : RHF DLPNO-CCSD density
   Achintya Kumar Dutta   : EOM-CC, STEOM-CC
   Nicolas Foglia         : Exact transition moments, OPA infrastructure, MCD improvements
   Dmitry Ganyushin       : Spin-Orbit,Spin-Spin,Magnetic field MRCI
   Miquel Garcia          : C-PCM and meta-GGA Hessian, CCSD/C-PCM, Gaussian charge scheme
   Tiago L. C. Gouveia    : GS-ROHF, GS-ROCIS
   Yang Guo               : DLPNO-NEVPT2, F12-NEVPT2, CIM, IAO-localization
   Andreas Hansen         : Spin unrestricted coupled pair/coupled cluster methods
   Ingolf Harden          : AUTO-CI MPn and infrastructure 
   Benjamin Helmich-Paris : MC-RPA, TRAH-(SCF,CASSCF), AVAS, COSX integrals, SCF dyn. polar.
   Lee Huntington         : MR-EOM, pCC
   Robert Izsak           : Overlap fitted RIJCOSX, COSX-SCS-MP3, EOM
   Riya Kayal             : Wick's Theorem for AUTO-CI, AUTO-CI UHF-CCSDT
   Emily Kempfer          : AUTO-CI, RHF CISDT and CCSDT
   Christian Kollmar      : KDIIS, OOCD, Brueckner-CCSD(T), CCSD density, CASPT2, CASPT2-K, improved NEVPT2
   Axel Koslowski         : Symmetry handling
   Simone Kossmann        : Meta GGA functionals, TD-DFT gradient, OOMP2, (MP2 Hessian; deprecated post 5.0)
   Lucas Lang             : DCDCAS
   Marvin Lechner         : AUTO-CI (C++ implementation), FIC-MRCC
   Spencer Leger          : CASSCF response
   Dagmar Lenk            : GEPOL surface, SMD, ORCA-2-JSON
   Dimitrios Liakos       : Extrapolation schemes; Compound Job, initial MDCI parallelization
   Dimitrios Manganas     : Further ROCIS development; embedding schemes. LFT, Crystal Embedding
   Dimitrios Pantazis     : SARC Basis sets
   Anastasios Papadopoulos: AUTO-CI, single reference methods and gradients
   Taras Petrenko         : pre 6.0 DFT Hessian and TD-DFT gradient, (ASA, deprecated), ECA, 1-Electron XAS/XES, NRVS
   Peter Pinski           : DLPNO-MP2, DLPNO-MP2 Gradient
   Christoph Reimann      : Effective Core Potentials
   Marius Retegan         : Local ZFS, SOC
   Christoph Riplinger    : Optimizer, TS searches, QM/MM, DLPNO-CCSD(T), (RO)-DLPNO pert. Triples
   Michael Roemelt        : Original ROCIS implementation
   Masaaki Saitow         : Open-shell DLPNO-CCSD energy and density
   Barbara Sandhoefer     : DKH picture change effects
   Kantharuban Sivalingam : CASSCF convergence/infrastructure, NEVPT2 and variants, FIC-MRCI
   Bernardo de Souza      : ESD, SOC TD-DFT
   Georgi Stoychev        : AutoAux, RI-MP2 NMR, DLPNO-MP2 response, X2C
   Van Anh Tran           : RI-MP2 g-tensors
   Willem Van den Heuvel  : Paramagnetic NMR
   Zikuan Wang            : NOTCH, Electric field optimization 
   Frank Wennmohs         : Technical directorship and infrastructure
   Hang Xu                : AUTO-CI-Response properties 


 We gratefully acknowledge several colleagues who have allowed us to
 interface, adapt or use parts of their codes:
   Stefan Grimme, W. Hujo, H. Kruse, P. Pracht,  : VdW corrections, initial TS optimization,
                  C. Bannwarth, S. Ehlert,         DFT functionals, gCP, sTDA/sTD-DF
                  L. Wittmann, M. Mueller
   Ed Valeev, F. Pavosevic, A. Kumar             : LibInt (2-el integral package), F12 methods
   Garnet Chan, S. Sharma, J. Yang, R. Olivares  : DMRG
   Ulf Ekstrom                                   : XCFun DFT Library
   Mihaly Kallay                                 : mrcc  (arbitrary order and MRCC methods)
   Frank Weinhold                                : gennbo (NPA and NBO analysis)
   Simon Mueller                                 : openCOSMO-RS
   Christopher J. Cramer and Donald G. Truhlar   : smd solvation model
   Lars Goerigk                                  : TD-DFT with DH, B97 family of functionals
   V. Asgeirsson, H. Jonsson                     : NEB implementation
   FAccTs GmbH                                   : IRC, NEB, NEB-TS, DLPNO-Multilevel, CI-OPT
                                                   MM, QMMM, 2- and 3-layer-ONIOM, Crystal-QMMM,
                                                   LR-CPCM, SF, NACMEs, symmetry and pop. for TD-DFT,
                                                   nearIR, NL-DFT gradient (VV10), updates on ESD,
                                                   ML-optimized integration grids, MBIS, APM,
                                                   GOAT, DOCKER, SOLVATOR, interface openCOSMO-RS
   S Lehtola, MJT Oliveira, MAL Marques          : LibXC Library
   Liviu Ungur et al                             : ANISO software


 Your calculation uses the libint2 library for the computation of 2-el integrals
 For citations please refer to: http://libint.valeyev.net

 Your ORCA version has been built with support for libXC version: 6.2.2
 For citations please refer to: https://libxc.gitlab.io

 This ORCA versions uses:
   CBLAS   interface :  Fast vector & matrix operations
   LAPACKE interface :  Fast linear algebra routines
   SCALAPACK package :  Parallel linear algebra routines
   Shared memory     :  Shared parallel matrices
   BLAS/LAPACK       :  OpenBLAS 0.3.27  USE64BITINT DYNAMIC_ARCH NO_AFFINITY SapphireRapids SINGLE_THREADED
        Core in use  :  SapphireRapids
   Copyright (c) 2011-2014, The OpenBLAS Project




***************************************
The coordinates will be read from file: xtb_opt.xyz
***************************************


Your calculation utilizes the geometrical counterpoise correction gCP
Please cite in your paper:
H.Kruse, S. Grimme J.Chem.Phys., 136, (2012), 154101 
   

Your calculation utilizes the atom-pairwise dispersion correction
based on EEQ partial charges (D4)


Your calculation utilizes the SMD solvation module
Please cite in your paper:
A.V. Marenich, C.J. Cramer, D.G. Truhlar J. Phys. Chem. B, 113, (2009), 6378 

================================================================================

----- Orbital basis set information -----
Your calculation utilizes the basis: def2-mTZVPP
   Stefan Grimme, Andreas Hansen, Sebastian Ehlert, and Jan-Michael Mewes 
   J. Chem. Phys. 154, 064103 (2021). DOI: 10.1063/5.0040021

----- AuxJ basis set information -----
Your calculation utilizes the auxiliary basis: def2/J
   F. Weigend, Phys. Chem. Chem. Phys. 8, 1057 (2006).

================================================================================
                                        WARNINGS
                       Please study these warnings very carefully!
================================================================================

WARNING: Old DensityContainer found on disk!
         Will remove this file - 
         If you want to keep old densities, please start your calculation with a different basename. 

Using LibXC functional ID 497 : Re-regularized SCAN exchange by Furness et al
[ 1]  J. W. Furness, A. D. Kaplan, J. Ning, J. P. Perdew, and J. Sun.,  J. Phys. Chem. Lett. 11, 8208-8215 (2020)
[ 2]  J. W. Furness, A. D. Kaplan, J. Ning, J. P. Perdew, and J. Sun.,  J. Phys. Chem. Lett. 11, 9248-9248 (2020)
Using LibXC functional ID 498 : Re-regularized SCAN correlation by Furness et al
[ 1]  J. W. Furness, A. D. Kaplan, J. Ning, J. P. Perdew, and J. Sun.,  J. Phys. Chem. Lett. 11, 8208-8215 (2020)
[ 2]  J. W. Furness, A. D. Kaplan, J. Ning, J. P. Perdew, and J. Sun.,  J. Phys. Chem. Lett. 11, 9248-9248 (2020)
Using LibXC functional ID 497 : Re-regularized SCAN exchange by Furness et al
[ 1]  J. W. Furness, A. D. Kaplan, J. Ning, J. P. Perdew, and J. Sun.,  J. Phys. Chem. Lett. 11, 8208-8215 (2020)
[ 2]  J. W. Furness, A. D. Kaplan, J. Ning, J. P. Perdew, and J. Sun.,  J. Phys. Chem. Lett. 11, 9248-9248 (2020)
Using LibXC functional ID 498 : Re-regularized SCAN correlation by Furness et al
[ 1]  J. W. Furness, A. D. Kaplan, J. Ning, J. P. Perdew, and J. Sun.,  J. Phys. Chem. Lett. 11, 8208-8215 (2020)
[ 2]  J. W. Furness, A. D. Kaplan, J. Ning, J. P. Perdew, and J. Sun.,  J. Phys. Chem. Lett. 11, 9248-9248 (2020)

================================================================================
                                       INPUT FILE
================================================================================
NAME = xtb_opt.inp
|  1> ! r2scan-3c def2/J RI DEFGRID2 scfconv7 ENGRAD tightSCF miniprint
|  2> %cpcm
|  3>     smd true
|  4>     smdsolvent "water"
|  5> end
|  6> * xyzfile 0 1 xtb_opt.xyz
|  7> 
|  8>                          ****END OF INPUT****
================================================================================

                     *******************************
                     * Energy+Gradient Calculation *
                     *******************************

---------------------------------
CARTESIAN COORDINATES (ANGSTROEM)
---------------------------------
  C      4.655434   -0.715572   -2.369756
  C      4.686309   -1.193773   -0.939511
  O      3.338988   -1.465689   -0.418935
  P      2.345770   -0.312252    0.107270
  S      3.152087    1.305652    0.832286
  O      1.391127   -1.151614    1.089879
  C      1.648962   -1.240502    2.534474
  C      2.837802   -2.116775    2.844569
  S      1.076933   -0.066593   -1.572187
  C      0.216756    1.491971   -1.123583
  S     -0.913548    1.448673    0.320256
  P     -2.523033    0.308401   -0.484238
  S     -2.914853    0.616053   -2.364783
  O     -3.663485    0.565451    0.619046
  C     -4.106197    1.873835    1.124165
  C     -4.769865    2.726353    0.072638
  O     -2.223533   -1.249037   -0.240680
  C     -1.929729   -1.787760    1.100626
  C     -3.103014   -2.597667    1.592207
  H      4.089324   -1.406574   -3.001280
  H      4.220970    0.284434   -2.454126
  H      5.683715   -0.673208   -2.743653
  H      5.172238   -0.473220   -0.274925
  H      5.191401   -2.157575   -0.849962
  H      1.773206   -0.225003    2.923228
  H      0.722746   -1.662664    2.930844
  H      2.721151   -3.107715    2.396409
  H      3.772444   -1.671799    2.489375
  H      2.909484   -2.235425    3.930725
  H     -0.342376    1.789101   -2.015918
  H      0.961304    2.256980   -0.885518
  H     -4.805935    1.604530    1.917639
  H     -3.247169    2.379192    1.574913
  H     -5.589846    2.188810   -0.411271
  H     -5.181875    3.612028    0.567650
  H     -4.061160    3.059360   -0.689312
  H     -1.039944   -2.405783    0.963041
  H     -1.685413   -0.967007    1.782142
  H     -2.838461   -3.050547    2.553543
  H     -3.986782   -1.970546    1.736684
  H     -3.343622   -3.400517    0.889465

----------------------------
CARTESIAN COORDINATES (A.U.)
----------------------------
  NO LB      ZA    FRAG     MASS         X           Y           Z
   0 C     6.0000    0    12.011    8.797495   -1.352235   -4.478189
   1 C     6.0000    0    12.011    8.855840   -2.255905   -1.775418
   2 O     8.0000    0    15.999    6.309773   -2.769752   -0.791672
   3 P    15.0000    0    30.974    4.432864   -0.590071    0.202711
   4 S    16.0000    0    32.060    5.956582    2.467325    1.572793
   5 O     8.0000    0    15.999    2.628850   -2.176236    2.059573
   6 C     6.0000    0    12.011    3.116086   -2.344210    4.789462
   7 C     6.0000    0    12.011    5.362669   -4.000125    5.375456
   8 S    16.0000    0    32.060    2.035109   -0.125842   -2.971002
   9 C     6.0000    0    12.011    0.409609    2.819416   -2.123264
  10 S    16.0000    0    32.060   -1.726356    2.737595    0.605195
  11 P    15.0000    0    30.974   -4.767841    0.582793   -0.915078
  12 S    16.0000    0    32.060   -5.508275    1.164172   -4.468792
  13 O     8.0000    0    15.999   -6.922984    1.068547    1.169827
  14 C     6.0000    0    12.011   -7.759587    3.541034    2.124364
  15 C     6.0000    0    12.011   -9.013738    5.152060    0.137266
  16 O     8.0000    0    15.999   -4.201869   -2.360337   -0.454818
  17 C     6.0000    0    12.011   -3.646660   -3.378378    2.079881
  18 C     6.0000    0    12.011   -5.863847   -4.908879    3.008835
  19 H     1.0000    0     1.008    7.727702   -2.658040   -5.671598
  20 H     1.0000    0     1.008    7.976478    0.537502   -4.637626
  21 H     1.0000    0     1.008   10.740665   -1.272178   -5.184754
  22 H     1.0000    0     1.008    9.774113   -0.894257   -0.519532
  23 H     1.0000    0     1.008    9.810327   -4.077226   -1.606196
  24 H     1.0000    0     1.008    3.350873   -0.425194    5.524100
  25 H     1.0000    0     1.008    1.365791   -3.141979    5.538493
  26 H     1.0000    0     1.008    5.142230   -5.872730    4.528558
  27 H     1.0000    0     1.008    7.128886   -3.159242    4.704237
  28 H     1.0000    0     1.008    5.498128   -4.224342    7.427993
  29 H     1.0000    0     1.008   -0.646997    3.380911   -3.809532
  30 H     1.0000    0     1.008    1.816601    4.265075   -1.673387
  31 H     1.0000    0     1.008   -9.081902    3.032122    3.623812
  32 H     1.0000    0     1.008   -6.136259    4.496021    2.976154
  33 H     1.0000    0     1.008  -10.563277    4.136252   -0.777190
  34 H     1.0000    0     1.008   -9.792324    6.825744    1.072703
  35 H     1.0000    0     1.008   -7.674481    5.781353   -1.302611
  36 H     1.0000    0     1.008   -1.965210   -4.546270    1.819884
  37 H     1.0000    0     1.008   -3.184970   -1.827379    3.367761
  38 H     1.0000    0     1.008   -5.363913   -5.764698    4.825497
  39 H     1.0000    0     1.008   -7.533926   -3.723793    3.281858
  40 H     1.0000    0     1.008   -6.318531   -6.426045    1.680845

------------------------------------------------------------------------------
                   ___                                                        
                  /   \      - P O W E R E D   B Y -                         
                 /     \                                                     
                 |  |  |   _    _      __       _____    __    __             
                 |  |  |  | |  | |    /  \     |  _  \  |  |  /  |          
                  \  \/   | |  | |   /    \    | | | |  |  | /  /          
                 / \  \   | |__| |  /  /\  \   | |_| |  |  |/  /          
                |  |  |   |  __  | /  /__\  \  |    /   |      \           
                |  |  |   | |  | | |   __   |  |    \   |  |\   \          
                \     /   | |  | | |  |  |  |  | |\  \  |  | \   \       
                 \___/    |_|  |_| |__|  |__|  |_| \__\ |__|  \__/        
                                                                              
                      - O R C A' S   B I G   F R I E N D -                    
                                      &                                       
                       - I N T E G R A L  F E E D E R -                       
                                                                              
 v1 FN, 2020, v2 2021, v3 2022-2024                                           
------------------------------------------------------------------------------


----------------------
SHARK INTEGRAL PACKAGE
----------------------

Number of atoms                             ...     41
Number of basis functions                   ...    539
Number of shells                            ...    253
Maximum angular momentum                    ...      2
Integral batch strategy                     ... SHARK/LIBINT Hybrid
RI-J (if used) integral strategy            ... SPLIT-RIJ (Revised 2003 algorithm where possible)
Printlevel                                  ...      1
Contraction scheme used                     ... SEGMENTED contraction
Prescreening option                         ... SCHWARTZ
   Thresh                                   ... 3.000e-11
   Tcut                                     ... 1.000e-12
   Tpresel                                  ... 1.000e-12 
Coulomb Range Separation                    ... NOT USED
Exchange Range Separation                   ... NOT USED
Multipole approximations                    ... NOT USED
Finite Nucleus Model                        ... NOT USED
CABS basis                                  ... NOT available
Auxiliary Coulomb fitting basis             ... AVAILABLE
   # of basis functions in Aux-J            ...   1185
   # of shells in Aux-J                     ...    407
   Maximum angular momentum in Aux-J        ...      4
Auxiliary J/K fitting basis                 ... NOT available
Auxiliary Correlation fitting basis         ... NOT available
Auxiliary 'external' fitting basis          ... NOT available

Checking pre-screening integrals            ... done (  0.0 sec) Dimension = 253
Check shell pair data                       ... done (  0.0 sec)
Shell pair information
Shell pair cut-off parameter TPreSel        ...   1.0e-12
Total number of shell pairs                 ...     32131
Shell pairs after pre-screening             ...     21377
Total number of primitive shell pairs       ...    124843
Primitive shell pairs kept                  ...     50152
          la=0 lb=0:   6044 shell pairs
          la=1 lb=0:   7757 shell pairs
          la=1 lb=1:   2550 shell pairs
          la=2 lb=0:   2844 shell pairs
          la=2 lb=1:   1834 shell pairs
          la=2 lb=2:    348 shell pairs

Calculating one electron integrals          ... done (  0.1 sec)
Calculating RI/J V-Matrix + Cholesky decomp.... done (  0.1 sec)
[...]
CPCM gradient                     ... done (  8.0 sec)
SMD gradient                      ... done (  0.0 sec)
Dispersion correction             ... done (  0.0 sec)

-------------------
DISPERSION GRADIENT
-------------------

   1   C   :    0.000096278   -0.000023560   -0.000101122
   2   C   :    0.000117001   -0.000033691   -0.000059736
   3   O   :    0.000086769   -0.000068149   -0.000044788
   4   P   :    0.000196561    0.000032913    0.000007403
   5   S   :    0.000178023    0.000239448    0.000111755
   6   O   :    0.000058420   -0.000069938    0.000087918
   7   C   :    0.000056854   -0.000049211    0.000155608
   8   C   :    0.000048824   -0.000086678    0.000130608
   9   S   :    0.000056014    0.000046866   -0.000250563
  10   C   :    0.000026150    0.000127046   -0.000095511
  11   S   :   -0.000023535    0.000241636   -0.000013557
  12   P   :   -0.000178195    0.000017384   -0.000113767
  13   S   :   -0.000129593   -0.000006203   -0.000297262
  14   O   :   -0.000093868    0.000028889    0.000042041
  15   C   :   -0.000088546    0.000086243    0.000064230
  16   C   :   -0.000105239    0.000095221    0.000009531
  17   O   :   -0.000086650   -0.000111724   -0.000021893
  18   C   :   -0.000096371   -0.000134374    0.000060411
  19   C   :   -0.000074969   -0.000136083    0.000066616
  20   H   :    0.000034305   -0.000021166   -0.000043556
  21   H   :    0.000048656   -0.000003449   -0.000047948
  22   H   :    0.000036355   -0.000004857   -0.000032226
  23   H   :    0.000053943   -0.000002510   -0.000016439
  24   H   :    0.000045791   -0.000033823   -0.000025748
  25   H   :    0.000025136   -0.000001856    0.000069097
  26   H   :    0.000020272   -0.000036011    0.000072926
  27   H   :    0.000011877   -0.000047396    0.000043534
  28   H   :    0.000014075   -0.000031040    0.000053831
  29   H   :    0.000010547   -0.000024933    0.000043825
  30   H   :    0.000005245    0.000036407   -0.000048965
  31   H   :    0.000014223    0.000061176   -0.000017422
  32   H   :   -0.000043695    0.000027960    0.000036179
  33   H   :   -0.000032274    0.000044262    0.000040164
  34   H   :   -0.000048079    0.000028606    0.000002080
  35   H   :   -0.000031871    0.000035605    0.000009733
  36   H   :   -0.000047788    0.000044702   -0.000002574
  37   H   :   -0.000044394   -0.000082802    0.000014285
  38   H   :   -0.000049210   -0.000042620    0.000044216
  39   H   :   -0.000024007   -0.000041134    0.000025954
  40   H   :   -0.000024546   -0.000053357    0.000028434
  41   H   :   -0.000018490   -0.000047800    0.000012700

Difference to translation invariance:
           :   -0.0000000000    0.0000000000   -0.0000000000

Difference to rotation invariance:
           :   -0.0000000000    0.0000000000   -0.0000000000

Norm of the Dispersion gradient    ...    0.0008910528
RMS gradient                       ...    0.0000803435
MAX gradient                       ...    0.0002972617
gCP correction                   ... done

------------------
CARTESIAN GRADIENT
------------------

   1   C   :    0.000116653    0.000023663   -0.000124849
   2   C   :   -0.000025598    0.000013669   -0.000061297
   3   O   :   -0.000027927    0.000088310   -0.000005244
   4   P   :   -0.000239075   -0.000072245    0.000253625
   5   S   :    0.000036650   -0.000003558   -0.000164206
   6   O   :   -0.000010254   -0.000043552    0.000273284
   7   C   :    0.000069265   -0.000014110   -0.000121180
   8   C   :   -0.000031809    0.000047836    0.000105273
   9   S   :    0.000108531    0.000132650   -0.000363668
  10   C   :    0.000029652   -0.000010109    0.000071258
  11   S   :   -0.000054825    0.000054270    0.000178071
  12   P   :    0.000082805   -0.000054255    0.000018163
  13   S   :   -0.000113725   -0.000060931   -0.000050398
  14   O   :    0.000023576    0.000141540    0.000048634
  15   C   :   -0.000072033    0.000072490   -0.000047242
  16   C   :    0.000086772   -0.000133157   -0.000032759
  17   O   :    0.000018982    0.000144808   -0.000056393
  18   C   :   -0.000017583    0.000034211   -0.000125216
  19   C   :    0.000024292   -0.000089560    0.000099949
  20   H   :    0.000076516    0.000092281    0.000102000
  21   H   :    0.000072720   -0.000212461   -0.000019729
  22   H   :   -0.000256566   -0.000007042    0.000041699
  23   H   :    0.000030483   -0.000016264    0.000010920
  24   H   :    0.000001338    0.000007238   -0.000007060
  25   H   :   -0.000003480   -0.000011267    0.000002993
  26   H   :   -0.000010554    0.000008122   -0.000012346
  27   H   :    0.000000985    0.000052072    0.000014722
  28   H   :   -0.000036948   -0.000003527   -0.000009092
  29   H   :    0.000028186    0.000019742   -0.000033474
  30   H   :    0.000034933   -0.000071857    0.000007582
  31   H   :   -0.000035448   -0.000052889    0.000000628
  32   H   :   -0.000009240   -0.000008939   -0.000048813
  33   H   :   -0.000034992   -0.000092208    0.000001175
  34   H   :    0.000075429    0.000072932    0.000047705
  35   H   :    0.000043930   -0.000018673    0.000021798
  36   H   :    0.000014197    0.000007542    0.000074435
  37   H   :   -0.000025852   -0.000007590   -0.000008689
  38   H   :    0.000021991   -0.000017516    0.000008873
  39   H   :   -0.000035186    0.000005002   -0.000049367
  40   H   :    0.000037334   -0.000015448   -0.000025372
  41   H   :    0.000005876   -0.000001220   -0.000016392

Difference to translation invariance:
           :   -0.0000000000    0.0000000000    0.0000000000

Difference to rotation invariance:
           :   -0.0001424771    0.0002560369   -0.0006545426

Norm of the Cartesian gradient     ...    0.0009327297
RMS gradient                       ...    0.0000841014
MAX gradient                       ...    0.0003636679

-------
TIMINGS
-------

Total SCF gradient time     ....       47.666 sec

Densities                   ....       0.007 sec  (  0.0%)
One electron gradient       ....       2.013 sec  (  4.2%)
RI-J Coulomb gradient       ....       9.294 sec  ( 19.5%)
XC gradient                 ....      22.417 sec  ( 47.0%)
CPCM gradient               ....       7.974 sec  ( 16.7%)
   A-Matrix (El+Nuc)        ....       0.265 sec  (  0.6%)
   Potential                ....       7.709 sec  ( 16.2%)
SMD gradient                ....       0.016 sec  (  0.0%)

Maximum memory used throughout the entire SCFGRAD-calculation: 84.1 MB

------------------------------------------------------------------------------
                              ORCA PROPERTY CALCULATIONS
------------------------------------------------------------------------------

GBWName                                 ... xtb_opt.gbw
Number of atoms                         ...     41
Number of basis functions               ...    539
Max core memory                         ...   1024 MB

Electric properties:
Dipole moment                           ... YES
Quadrupole moment                       ...  NO
Static polarizability (Dipole/Dipole)   ...  NO
Static polarizability (Dipole/Quad.)    ...  NO
Static polarizability (Quad./Quad.)     ...  NO
Static polarizability (Velocity)        ...  NO

Atomic electric properties:
Dipole moment                           ...  NO
Quadrupole moment                       ...  NO
Static polarizability                   ...  NO

Choice of electric origin               ... Center of mass
Position of electric origin             ...    -0.036113     0.010960    -0.056744

General magnetic properties:
Magnetizability                         ...  NO

EPR properties:
g-Tensor (aka g-matrix)                 ...  NO
Zero-Field splitting spin-orbit         ...  NO
Zero-field splitting spin-spin          ...  NO
Hyperfine couplings                     ...  NO (   0 nuclei)
Quadrupole couplings                    ...  NO (   0 nuclei)
Contact density                         ...  NO (   0 nuclei)

NMR properties:
Chemical shifts                         ...  NO (   0 nuclei)
Spin-rotation constants                 ...  NO (   0 nuclei)
Spin-spin couplings                     ...  NO (   0 nuclei,    0 pairs)

Choice of magnetic origin               ... GIAO
Position of magnetic origin             ...     0.000000     0.000000     0.000000

Properties with geometric perturbations:
SCF Hessian                             ...  NO
IR spectrum                             ...  NO
VCD spectrum                            ...  NO
X-ray spectroscopy properties:
SCF XES/XAS/RIXS spectra                ...  NO


-------------
DIPOLE MOMENT
-------------

Method             : SCF
Type of density    : Electron Density
Multiplicity       :   1
Irrep              :   0
Energy             : -2932.5066872524903374 Eh
Relativity type    : 
Basis              : AO
                                X                 Y                 Z
Electronic contribution:     -0.758445530       7.689503588     -10.983717834
Nuclear contribution   :      1.468603591      -7.988071105      13.438691550
                        -----------------------------------------
Total Dipole Moment    :      0.710158060      -0.298567517       2.454973717
                        -----------------------------------------
Magnitude (a.u.)       :      2.573006604
Magnitude (Debye)      :      6.540063039



--------------------
Rotational spectrum 
--------------------
 
Rotational constants in cm-1:             0.012527             0.004565             0.004154 
Rotational constants in MHz :           375.539917           136.855196           124.534644 

Dipole components along the rotational axes: 
x,y,z [a.u.] :     0.817198    -2.094805     1.250736 
x,y,z [Debye]:     2.077152    -5.324572     3.179118 

 

Dipole moment calculation done in   0.0 sec 

Maximum memory used throughout the entire PROP-calculation: 51.8 MB

--------------------------------
SUGGESTED CITATIONS FOR THIS RUN
--------------------------------

Below you find a list of papers that are relevant to this ORCA run
We neither can nor want to force you to cite these papers, but we appreciate if you do
You receive ORCA, which is the product of decades of hard work by many enthusiastic individuals, for free
The only thing we kindly ask in return is that you cite our papers,
We deeply appreciate it, if you show your appreciation for ORCA by not just citing the generic ORCA reference.

Please note that relegating all ORCA citations to the supporting information does *not* help us.
SI sections are not indexed - citations you put there will not count into any citation statistics
But we need these citations in order to attract the funding resources that allow us to do what we are doing

Therefore, if you are a happy ORCA user, please consider citing a few of the papers listed below in the main body of your paper

In addition to the list printed below, the program has created the file xtb_opt.bibtex that contains the list in bibtex format
You can import this file easily into all common literature databanks and citation aid programs


List of essential papers. We consider these as the minimum necessary citations

  1. Neese,F.
     Software update: the ORCA program system, version 5.0
     WIRES Comput. Molec. Sci., 2022 12(1)e1606
     doi.org/10.1002/wcms.1606
  2. Grimme,S.; Hansen,A.; Ehlert,S.; Mewes,J.
     r2SCAN-3c: A 'Swiss army knife' composite electronic-structure method
     J. Chem. Phys., 2021 154 064103
     doi.org/10.1063/5.0040021

List of papers to cite with high priority. The work reported in these papers was absolutely
necessary for this run to complete.
Our perspective: the developers of density functionals and basis sets usually get cited in chemistry papers
Good! But without the algorithms to do something with them, the functionals or basis sets would not do anything.
Hence, in our opinion, the algorithm design and method developments papers are equally worthy of getting cited

  1. Neese,F.
     An improvement of the resolution of the identity approximation for the formation of the Coulomb matrix
     J. Comp. Chem., 2003 24(14)1740-1747
     doi.org/10.1002/jcc.10318
  2. Garcia-Rates,M.; Neese,F.
     Effect of the Solute Cavity on the Solvation Energy and its Derivatives within the Framework of the Gaussian Charge Scheme
     J. Comput. Chem., 2020 41 922-939
     doi.org/10.1002/jcc.26139
  3. Neese,F.
     The SHARK Integral Generation and Digestion System
     J. Comp. Chem., 2022  1-16
     doi.org/10.1002/jcc.26942
  4. Lehtola,S.; Steigemann,C.; Oliveira,M.; Marques,M.
     Recent developments in Libxc - A comprehensive library of functionals for density functional theory
     Software X, 2018 7 
     doi.org/10.1016/j.softx.2017.11.002
  5. Caldeweyher,E.; Bannwarth,C.; Grimme,S.
     Extension of the D3 dispersion coefficient model
     J. Chem. Phys., 2017 147 034112-XXXX
     doi.org/10.1063/1.4993215
  6. Caldeweyher,E.; Ehlert,S.; Hansen,A.; Neugebauer,H.; Spicher,S.; Bannwarth,C.; Grimme,S.
     A generally applicable atomic-charge dependent London dispersion correction
     J. Chem. Phys., 2019 150 154122-XXXX
     doi.org/10.1063/1.5090222
  7. Caldeweyher,E.; Mewes,J.; Ehlert,S.; Grimme,S.
     Extension and evaluation of the D4 London-dispersion model for periodic systems
     Phys. Chem. Chem. Phys., 2020 22(16)8499-8512
     doi.org/10.1039/D0CP00502A

List of suggested additional citations. These are papers that are important in the 'surrounding' of 
of this run, or papers that preceded the highly important papers. If you like your results we are grateful for a citation.

  1. Neese,F.
     The ORCA program system
     WIRES Comput. Molec. Sci., 2012 2(1)73-78
     doi.org/10.1002/wcms.81
  2. Neese,F.
     Software update: the ORCA program system, version 4.0
     WIRES Comput. Molec. Sci., 2018 8(1)1-6
     doi.org/10.1002/wcms.1327
  3. Neese,F.; Wennmohs,F.; Becker,U.; Riplinger,C.
     The ORCA quantum chemistry program package
     J. Chem. Phys., 2020 152 Art. No. L224108
     doi.org/10.1063/5.0004608

List of optional additional citations

  1. Neese,F.
     Approximate second-order SCF convergence for spin unrestricted wavefunctions
     Chem. Phys. Lett., 2000 325(1-3)93-98
     doi.org/10.1016/s0009-2614(00)00662-x

Timings for individual modules:

Sum of individual times          ...       80.831 sec (=   1.347 min)
Startup calculation              ...        3.224 sec (=   0.054 min)   4.0 %
SCF iterations                   ...       29.590 sec (=   0.493 min)  36.6 %
Property calculations            ...        0.157 sec (=   0.003 min)   0.2 %
SCF Gradient evaluation          ...       47.861 sec (=   0.798 min)  59.2 %
                             ****ORCA TERMINATED NORMALLY****
TOTAL RUN TIME: 0 days 0 hours 1 minutes 21 seconds 766 msec
  ------------------------------------------------------------------------
          * successful ORCA run, taking over control again...

         :::::::::::::::::::::::::::::::::::::::::::::::::::::
         ::                  ORCA SUMMARY                   ::
         :::::::::::::::::::::::::::::::::::::::::::::::::::::
         :: total energy           -2932.482443149155 Eh    ::
         :: gradient norm              0.000932729658 Eh/a0 ::
         :: HOMO-LUMO gap              0.000000000000 eV    ::
         :::::::::::::::::::::::::::::::::::::::::::::::::::::

           -------------------------------------------------
          |                Property Printout                |
           -------------------------------------------------
           -------------------------------------------------
          |                Geometry Summary                 |
           -------------------------------------------------

      molecular mass/u    :      384.4756129
   center of mass at/Å    :       -0.0191056       0.0058412      -0.0300649
  moments of inertia/u·Å² :        0.1345784E+04   0.3692893E+04   0.4058210E+04
rotational constants/cm⁻¹ :        0.1252626E-01   0.4564885E-02   0.4153957E-02

 * 34 selected distances

     #   Z          #   Z                                           value/Å
     1   6 C        2   6 C                                       1.5082044
     3   8 O        4  15 P                                       1.6106951
     4  15 P        5  16 S                                       1.9478394
     4  15 P        6   8 O                                       1.6063717
     7   6 C        8   6 C                                       1.5090341
     4  15 P        9  16 S                                       2.1192666
    11  16 S       12  15 P                                       2.1294897 (max)
    12  15 P       13  16 S                                       1.9456667
    12  15 P       14   8 O                                       1.6074937
    15   6 C       16   6 C                                       1.5074215
    12  15 P       17   8 O                                       1.6035537
    18   6 C       19   6 C                                       1.5079794
     1   6 C       20   1 H                                       1.0936793
     1   6 C       21   1 H                                       1.0932607
     1   6 C       22   1 H                                       1.0945579
     2   6 C       23   1 H                                       1.0940583
     2   6 C       24   1 H                                       1.0918242
     7   6 C       25   1 H                                       1.0944117
     7   6 C       26   1 H                                       1.0922498
     8   6 C       27   1 H                                       1.0936918
     8   6 C       28   1 H                                       1.0942409
     8   6 C       29   1 H                                       1.0948790
    10   6 C       30   1 H                                       1.0941800
    10   6 C       31   1 H                                       1.0936666
    15   6 C       32   1 H                                       1.0916549 (min)
    15   6 C       33   1 H                                       1.0939094
    16   6 C       34   1 H                                       1.0933911
    16   6 C       35   1 H                                       1.0949731
    16   6 C       36   1 H                                       1.0925654
    18   6 C       37   1 H                                       1.0919669
    18   6 C       38   1 H                                       1.0943958
    19   6 C       39   1 H                                       1.0948970
    19   6 C       40   1 H                                       1.0930765
    19   6 C       41   1 H                                       1.0936730

 * 4 distinct bonds (by element types)

   Z      Z             #   av. dist./Å        max./Å        min./Å
   1 H    6 C          22     1.0936002     1.0949731     1.0916549
   6 C    6 C           4     1.5081599     1.5090341     1.5074215
   8 O   15 P           4     1.6070286     1.6106951     1.6035537
  15 P   16 S           4     2.0355656     2.1294897     1.9456667


optimized geometry written to: xtbopt.coord


           -------------------------------------------------
          | TOTAL ENERGY            -2932.482443149155 Eh   |
          | GRADIENT NORM               0.000932729658 Eh/α |
           -------------------------------------------------

------------------------------------------------------------------------
 * finished run on 2025/04/10 at 04:49:26.539     
------------------------------------------------------------------------
 total:
 * wall-time:     0 d,  0 h, 13 min, 43.103 sec
 *  cpu-time:     0 d,  0 h,  0 min,  5.518 sec
 * ratio c/w:     0.007 speedup
 SCF:
 * wall-time:     0 d,  0 h,  1 min, 21.258 sec
 *  cpu-time:     0 d,  0 h,  0 min,  0.918 sec
 * ratio c/w:     0.011 speedup
 ANC optimizer:
 * wall-time:     0 d,  0 h, 12 min, 21.767 sec
 *  cpu-time:     0 d,  0 h,  0 min,  4.480 sec
 * ratio c/w:     0.006 speedup

