
                                 *****************
                                 * O   R   C   A *
                                 *****************

                                            #,                                       
                                            ###                                      
                                            ####                                     
                                            #####                                    
                                            ######                                   
                                           ########,                                 
                                     ,,################,,,,,                         
                               ,,#################################,,                 
                          ,,##########################################,,             
                       ,#########################################, ''#####,          
                    ,#############################################,,   '####,        
                  ,##################################################,,,,####,       
                ,###########''''           ''''###############################       
              ,#####''   ,,,,##########,,,,          '''####'''          '####       
            ,##' ,,,,###########################,,,                        '##       
           ' ,,###''''                  '''############,,,                           
         ,,##''                                '''############,,,,        ,,,,,,###''
      ,#''                                            '''#######################'''  
     '                                                          ''''####''''         
             ,#######,   #######,   ,#######,      ##                                
            ,#'     '#,  ##    ##  ,#'     '#,    #''#        ,####,   ,####,        
            ##       ##  ##   ,#'  ##            #'  '#       #'       #'  '#        
            ##       ##  #######   ##           ,######,      #####,   #    #        
            '#,     ,#'  ##    ##  '#,     ,#' ,#      #,     #,   #   #,  ,#        
             '#######'   ##     ##  '#######'  #'      '#     '####' # '####'        



                #########################################################
                #                        -***-                          #
                #          Department of theory and spectroscopy        #
                #                                                       #
                #                      Frank Neese                      #
                #                                                       #
                #     Directorship, Architecture, Infrastructure        #
                #                    SHARK, DRIVERS                     #
                #        Core code/Algorithms in most modules           #
                #                                                       #
                #        Max Planck Institute fuer Kohlenforschung      #
                #                Kaiser Wilhelm Platz 1                 #
                #                 D-45470 Muelheim/Ruhr                 #
                #                      Germany                          #
                #                                                       #
                #                  All rights reserved                  #
                #                        -***-                          #
                #########################################################


                         Program Version 6.0.0  -   RELEASE  -


 With contributions from (in alphabetic order):
   Daniel Aravena         : Magnetic Suceptibility
   Michael Atanasov       : Ab Initio Ligand Field Theory (pilot matlab implementation)
   Alexander A. Auer      : GIAO ZORA, VPT2 properties, NMR spectrum
   Ute Becker             : All parallelization in ORCA, NUMFREQ, NUMCALC
   Giovanni Bistoni       : ED, misc. LED, open-shell LED, HFLD
   Martin Brehm           : Molecular dynamics
   Dmytro Bykov           : pre 5.0 version of the SCF Hessian
   Marcos Casanova-Páez   : Triplet and SCS-CIS(D). UHF-(DLPNO)-IP/EA/STEOM-CCSD. UHF-CVS-IP/STEOM-CCSD
   Vijay G. Chilkuri      : MRCI spin determinant printing, contributions to CSF-ICE
   Pauline Colinet        : FMM embedding
   Dipayan Datta          : RHF DLPNO-CCSD density
   Achintya Kumar Dutta   : EOM-CC, STEOM-CC
   Nicolas Foglia         : Exact transition moments, OPA infrastructure, MCD improvements
   Dmitry Ganyushin       : Spin-Orbit,Spin-Spin,Magnetic field MRCI
   Miquel Garcia          : C-PCM and meta-GGA Hessian, CCSD/C-PCM, Gaussian charge scheme
   Tiago L. C. Gouveia    : GS-ROHF, GS-ROCIS
   Yang Guo               : DLPNO-NEVPT2, F12-NEVPT2, CIM, IAO-localization
   Andreas Hansen         : Spin unrestricted coupled pair/coupled cluster methods
   Ingolf Harden          : AUTO-CI MPn and infrastructure 
   Benjamin Helmich-Paris : MC-RPA, TRAH-(SCF,CASSCF), AVAS, COSX integrals, SCF dyn. polar.
   Lee Huntington         : MR-EOM, pCC
   Robert Izsak           : Overlap fitted RIJCOSX, COSX-SCS-MP3, EOM
   Riya Kayal             : Wick's Theorem for AUTO-CI, AUTO-CI UHF-CCSDT
   Emily Kempfer          : AUTO-CI, RHF CISDT and CCSDT
   Christian Kollmar      : KDIIS, OOCD, Brueckner-CCSD(T), CCSD density, CASPT2, CASPT2-K, improved NEVPT2
   Axel Koslowski         : Symmetry handling
   Simone Kossmann        : Meta GGA functionals, TD-DFT gradient, OOMP2, (MP2 Hessian; deprecated post 5.0)
   Lucas Lang             : DCDCAS
   Marvin Lechner         : AUTO-CI (C++ implementation), FIC-MRCC
   Spencer Leger          : CASSCF response
   Dagmar Lenk            : GEPOL surface, SMD, ORCA-2-JSON
   Dimitrios Liakos       : Extrapolation schemes; Compound Job, initial MDCI parallelization
   Dimitrios Manganas     : Further ROCIS development; embedding schemes. LFT, Crystal Embedding
   Dimitrios Pantazis     : SARC Basis sets
   Anastasios Papadopoulos: AUTO-CI, single reference methods and gradients
   Taras Petrenko         : pre 6.0 DFT Hessian and TD-DFT gradient, (ASA, deprecated), ECA, 1-Electron XAS/XES, NRVS
   Peter Pinski           : DLPNO-MP2, DLPNO-MP2 Gradient
   Christoph Reimann      : Effective Core Potentials
   Marius Retegan         : Local ZFS, SOC
   Christoph Riplinger    : Optimizer, TS searches, QM/MM, DLPNO-CCSD(T), (RO)-DLPNO pert. Triples
   Michael Roemelt        : Original ROCIS implementation
   Masaaki Saitow         : Open-shell DLPNO-CCSD energy and density
   Barbara Sandhoefer     : DKH picture change effects
   Kantharuban Sivalingam : CASSCF convergence/infrastructure, NEVPT2 and variants, FIC-MRCI
   Bernardo de Souza      : ESD, SOC TD-DFT
   Georgi Stoychev        : AutoAux, RI-MP2 NMR, DLPNO-MP2 response, X2C
   Van Anh Tran           : RI-MP2 g-tensors
   Willem Van den Heuvel  : Paramagnetic NMR
   Zikuan Wang            : NOTCH, Electric field optimization 
   Frank Wennmohs         : Technical directorship and infrastructure
   Hang Xu                : AUTO-CI-Response properties 


 We gratefully acknowledge several colleagues who have allowed us to
 interface, adapt or use parts of their codes:
   Stefan Grimme, W. Hujo, H. Kruse, P. Pracht,  : VdW corrections, initial TS optimization,
                  C. Bannwarth, S. Ehlert,         DFT functionals, gCP, sTDA/sTD-DF
                  L. Wittmann, M. Mueller
   Ed Valeev, F. Pavosevic, A. Kumar             : LibInt (2-el integral package), F12 methods
   Garnet Chan, S. Sharma, J. Yang, R. Olivares  : DMRG
   Ulf Ekstrom                                   : XCFun DFT Library
   Mihaly Kallay                                 : mrcc  (arbitrary order and MRCC methods)
   Frank Weinhold                                : gennbo (NPA and NBO analysis)
   Simon Mueller                                 : openCOSMO-RS
   Christopher J. Cramer and Donald G. Truhlar   : smd solvation model
   Lars Goerigk                                  : TD-DFT with DH, B97 family of functionals
   V. Asgeirsson, H. Jonsson                     : NEB implementation
   FAccTs GmbH                                   : IRC, NEB, NEB-TS, DLPNO-Multilevel, CI-OPT
                                                   MM, QMMM, 2- and 3-layer-ONIOM, Crystal-QMMM,
                                                   LR-CPCM, SF, NACMEs, symmetry and pop. for TD-DFT,
                                                   nearIR, NL-DFT gradient (VV10), updates on ESD,
                                                   ML-optimized integration grids, MBIS, APM,
                                                   GOAT, DOCKER, SOLVATOR, interface openCOSMO-RS
   S Lehtola, MJT Oliveira, MAL Marques          : LibXC Library
   Liviu Ungur et al                             : ANISO software


 Your calculation uses the libint2 library for the computation of 2-el integrals
 For citations please refer to: http://libint.valeyev.net

 Your ORCA version has been built with support for libXC version: 6.2.2
 For citations please refer to: https://libxc.gitlab.io

 This ORCA versions uses:
   CBLAS   interface :  Fast vector & matrix operations
   LAPACKE interface :  Fast linear algebra routines
   SCALAPACK package :  Parallel linear algebra routines
   Shared memory     :  Shared parallel matrices
   BLAS/LAPACK       :  OpenBLAS 0.3.27  USE64BITINT DYNAMIC_ARCH NO_AFFINITY SapphireRapids SINGLE_THREADED
        Core in use  :  SapphireRapids
   Copyright (c) 2011-2014, The OpenBLAS Project


Your calculation utilizes the geometrical counterpoise correction gCP
Please cite in your paper:
H.Kruse, S. Grimme J.Chem.Phys., 136, (2012), 154101 
   

Your calculation utilizes the atom-pairwise dispersion correction
based on EEQ partial charges (D4)


================================================================================

----- Orbital basis set information -----
Your calculation utilizes the basis: def2-SV(P)
   F. Weigend and R. Ahlrichs, Phys. Chem. Chem. Phys. 7, 3297 (2005).

----- AuxJ basis set information -----
Your calculation utilizes the auxiliary basis: def2/J
   F. Weigend, Phys. Chem. Chem. Phys. 8, 1057 (2006).

================================================================================
                                        WARNINGS
                       Please study these warnings very carefully!
================================================================================


================================================================================
                                       INPUT FILE
================================================================================
NAME = sp.inp
|  1> ! pbe def2-sv(p) def2/J RI DEFGRID1 loosescf d4 GCP(DFT/SV(P)) printgap
|  2> %output
|  3>     printlevel normal
|  4> end
|  5> * xyz 0 1
|  6> C 1.5680643273 2.6851840165 0.5195589495
|  7> C 2.4041586163 2.0680299293 1.6214935754
|  8> O 2.8899092104 0.76112535 1.2659433344
|  9> P 1.9280571102 -0.4988225855 1.1490638655
| 10> S 0.534582721 -0.6373906678 2.5123292669
| 11> O 2.9158718849 -1.7278126589 1.2465937797
| 12> C 4.0781727353 -1.9136185498 0.4019497373
| 13> C 5.3153421367 -1.3055831082 1.0301871706
| 14> S 1.3196728084 -0.4867355828 -0.8943771733
| 15> C 0.0827459955 -1.8143733874 -0.7545127404
| 16> S -1.3604357018 -1.5624675183 -1.8255562696
| 17> P -2.2807052164 0.1019259928 -0.9046963282
| 18> S -4.0867913409 0.5383528287 -1.5209459642
| 19> O -1.2475298304 1.3156921718 -0.9964032285
| 20> C -1.2464752413 2.2251434487 -2.1092968106
| 21> C -0.7186936263 1.5718240075 -3.3707536379
| 22> O -2.1331063986 -0.3420987689 0.6089163876
| 23> C -2.9505620509 0.222216623 1.6535284849
| 24> C -2.5683962681 1.6548818619 1.9556433217
| 25> H 1.3248739388 3.709005824 0.7862124395
| 26> H 2.1168535217 2.6753401779 -0.4190048631
| 27> H 0.6433878397 2.1243089538 0.3926946884
| 28> H 1.8256128496 1.9814306454 2.5468649475
| 29> H 3.3124316869 2.6433796557 1.8070670548
| 30> H 4.1717811746 -2.9974135653 0.3121300986
| 31> H 3.8758405276 -1.4738127531 -0.5788734721
| 32> H 5.4627076761 -1.7090236842 2.0283956627
| 33> H 6.1777685038 -1.5462663321 0.4163126884
| 34> H 5.2146010792 -0.2261165841 1.0992192042
| 35> H -0.2414115413 -1.8795662322 0.2852101294
| 36> H 0.5201131616 -2.749423294 -1.096295874
| 37> H -2.2695870033 2.5848006929 -2.2604274015
| 38> H -0.6061453855 3.0452563526 -1.7818499034
| 39> H -1.4015175868 0.7875315869 -3.6969657304
| 40> H -0.638990125 2.3176236229 -4.1548496497
| 41> H 0.2588771306 1.131599981 -3.1873310162
| 42> H -3.9985676692 0.1522760422 1.3452891205
| 43> H -2.7633724563 -0.4296885535 2.5083836784
| 44> H -2.761949969 2.283612877 1.0881241392
| 45> H -3.1584049857 2.0122023659 2.7934991728
| 46> H -1.513008003 1.7071054692 2.2116798741
| 47> *
| 48> 
| 49>                          ****END OF INPUT****
================================================================================

                       ****************************
                       * Single Point Calculation *
                       ****************************

---------------------------------
CARTESIAN COORDINATES (ANGSTROEM)
---------------------------------
  C      1.568064    2.685184    0.519559
  C      2.404159    2.068030    1.621494
  O      2.889909    0.761125    1.265943
  P      1.928057   -0.498823    1.149064
  S      0.534583   -0.637391    2.512329
  O      2.915872   -1.727813    1.246594
  C      4.078173   -1.913619    0.401950
  C      5.315342   -1.305583    1.030187
  S      1.319673   -0.486736   -0.894377
  C      0.082746   -1.814373   -0.754513
  S     -1.360436   -1.562468   -1.825556
  P     -2.280705    0.101926   -0.904696
  S     -4.086791    0.538353   -1.520946
  O     -1.247530    1.315692   -0.996403
  C     -1.246475    2.225143   -2.109297
  C     -0.718694    1.571824   -3.370754
  O     -2.133106   -0.342099    0.608916
  C     -2.950562    0.222217    1.653528
  C     -2.568396    1.654882    1.955643
  H      1.324874    3.709006    0.786212
  H      2.116854    2.675340   -0.419005
  H      0.643388    2.124309    0.392695
  H      1.825613    1.981431    2.546865
  H      3.312432    2.643380    1.807067
  H      4.171781   -2.997414    0.312130
  H      3.875841   -1.473813   -0.578873
  H      5.462708   -1.709024    2.028396
  H      6.177769   -1.546266    0.416313
  H      5.214601   -0.226117    1.099219
  H     -0.241412   -1.879566    0.285210
  H      0.520113   -2.749423   -1.096296
  H     -2.269587    2.584801   -2.260427
  H     -0.606145    3.045256   -1.781850
  H     -1.401518    0.787532   -3.696966
  H     -0.638990    2.317624   -4.154850
  H      0.258877    1.131600   -3.187331
  H     -3.998568    0.152276    1.345289
  H     -2.763372   -0.429689    2.508384
  H     -2.761950    2.283613    1.088124
  H     -3.158405    2.012202    2.793499
  H     -1.513008    1.707105    2.211680

----------------------------
CARTESIAN COORDINATES (A.U.)
----------------------------
  NO LB      ZA    FRAG     MASS         X           Y           Z
   0 C     6.0000    0    12.011    2.963212    5.074262    0.981824
   1 C     6.0000    0    12.011    4.543201    3.908010    3.064179
   2 O     8.0000    0    15.999    5.461137    1.438318    2.392286
   3 P    15.0000    0    30.974    3.643500   -0.942638    2.171416
   4 S    16.0000    0    32.060    1.010215   -1.204494    4.747614
   5 O     8.0000    0    15.999    5.510199   -3.265093    2.355721
   6 C     6.0000    0    12.011    7.706630   -3.616215    0.759575
   7 C     6.0000    0    12.011   10.044541   -2.467195    1.946772
   8 S    16.0000    0    32.060    2.493820   -0.919797   -1.690128
   9 C     6.0000    0    12.011    0.156367   -3.428669   -1.425822
  10 S    16.0000    0    32.060   -2.570851   -2.952636   -3.449801
  11 P    15.0000    0    30.974   -4.309908    0.192612   -1.709628
  12 S    16.0000    0    32.060   -7.722916    1.017339   -2.874171
  13 O     8.0000    0    15.999   -2.357490    2.486298   -1.882929
  14 C     6.0000    0    12.011   -2.355497    4.204912   -3.985993
  15 C     6.0000    0    12.011   -1.358134    2.970317   -6.369801
  16 O     8.0000    0    15.999   -4.030987   -0.646473    1.150685
  17 C     6.0000    0    12.011   -5.575754    0.419929    3.124716
  18 C     6.0000    0    12.011   -4.853566    3.127274    3.695630
  19 H     1.0000    0     1.008    2.503649    7.009005    1.485726
  20 H     1.0000    0     1.008    4.000273    5.055660   -0.791804
  21 H     1.0000    0     1.008    1.215827    4.014362    0.742085
  22 H     1.0000    0     1.008    3.449908    3.744361    4.812877
  23 H     1.0000    0     1.008    6.259589    4.995264    3.414862
  24 H     1.0000    0     1.008    7.883524   -5.664291    0.589840
  25 H     1.0000    0     1.008    7.324277   -2.785102   -1.093912
  26 H     1.0000    0     1.008   10.323021   -3.229587    3.833112
  27 H     1.0000    0     1.008   11.674291   -2.922020    0.786717
  28 H     1.0000    0     1.008    9.854168   -0.427298    2.077223
  29 H     1.0000    0     1.008   -0.456202   -3.551865    0.538969
  30 H     1.0000    0     1.008    0.982871   -5.195657   -2.071699
  31 H     1.0000    0     1.008   -4.288898    4.884565   -4.271589
  32 H     1.0000    0     1.008   -1.145449    5.754701   -3.367208
  33 H     1.0000    0     1.008   -2.648484    1.488219   -6.986253
  34 H     1.0000    0     1.008   -1.207516    4.379674   -7.851528
  35 H     1.0000    0     1.008    0.489207    2.138414   -6.023183
  36 H     1.0000    0     1.008   -7.556198    0.287760    2.542228
  37 H     1.0000    0     1.008   -5.222017   -0.811994    4.740158
  38 H     1.0000    0     1.008   -5.219329    4.315403    2.056257
  39 H     1.0000    0     1.008   -5.968520    3.802511    5.278948
  40 H     1.0000    0     1.008   -2.859171    3.225962    4.179469

--------------------------------
INTERNAL COORDINATES (ANGSTROEM)
--------------------------------
 C      0   0   0     0.000000000000     0.00000000     0.00000000
 C      1   0   0     1.514659284197     0.00000000     0.00000000
 O      2   1   0     1.438877754689   112.12709796     0.00000000
 P      3   2   1     1.589430424108   122.26758922   289.82448143
 S      4   3   2     1.954345041553   115.87399661   319.86501358
 O      4   3   2     1.579780590397   103.51789636   198.93757183
 C      6   4   3     1.448754863424   124.43232264   306.15565695
 C      7   6   4     1.514918314168   111.21892025    91.44256490
 S      4   3   2     2.132118391029   103.80745153    90.55355215
 C      9   4   3     1.819937400095    96.66959656   187.53588416
 S     10   9   4     1.814762854962   113.19577145   144.97328504
 P     11  10   9     2.113074719684   101.44791109   291.02990711
 S     12  11  10     1.957595230398   116.11795825   191.26943843
 O     12  11  10     1.596586944417   106.97440949    62.48023829
 C     14  12  11     1.437231666188   121.73608165    90.49916497
 C     15  14  12     1.515471231177   111.83943016   288.48014436
 O     12  11  10     1.584287490783    98.91794704   316.95465062
 C     17  12  11     1.441492295796   121.99159219   199.66458017
 C     18  17  12     1.513226270890   111.84521806   288.37894861
 H      1   2   3     1.085567474780   109.22241077   186.58588513
 H      1   2   3     1.087275729229   110.22469739   306.91890453
 H      1   2   3     1.088899436782   110.09868975    67.03734898
 H      2   1   3     1.094772495289   110.82159025   238.73993687
 H      2   1   3     1.091065898423   111.61686452   116.08855376
 H      7   6   4     1.091531833263   104.12984137   211.36678957
 H      7   6   4     1.093792315379   108.83372750   328.60817601
 H      8   7   6     1.086692732223   110.03967211    54.93310913
 H      8   7   6     1.085610212200   108.98274788   174.68511331
 H      8   7   6     1.086352686277   110.45317153   294.72731611
 H     10   9   4     1.091032475072   108.58790838    23.10323815
 H     10   9   4     1.087393248199   109.25488877   261.20952752
 H     15  14  12     1.094966422478   108.30259627    50.62908379
 H     15  14  12     1.090792820112   104.10730455   167.73421276
 H     16  15  14     1.089852050205   109.94906594    66.28080805
 H     16  15  14     1.085069707517   109.31582833   185.80945954
 H     16  15  14     1.087697401121   110.31079695   306.28329103
 H     18  17  12     1.094631886342   108.29193907    51.01588285
 H     18  17  12     1.091236777848   103.68290952   168.16107729
 H     19  18  17     1.088740215334   110.04513333    64.30411833
 H     19  18  17     1.085260639960   109.18110916   184.10725156
 H     19  18  17     1.087256368772   109.73306009   303.84894619

---------------------------
INTERNAL COORDINATES (A.U.)
---------------------------
 C      0   0   0     0.000000000000     0.00000000     0.00000000
 C      1   0   0     2.862291233333     0.00000000     0.00000000
 O      2   1   0     2.719084896554   112.12709796     0.00000000
 P      3   2   1     3.003588210486   122.26758922   289.82448143
 S      4   3   2     3.693176899722   115.87399661   319.86501358
 O      4   3   2     2.985352667535   103.51789636   198.93757183
 C      6   4   3     2.737749927058   124.43232264   306.15565695
 C      7   6   4     2.862780729039   111.21892025    91.44256490
 S      4   3   2     4.029119844141   103.80745153    90.55355215
 C      9   4   3     3.439183267060    96.66959656   187.53588416
 S     10   9   4     3.429404793891   113.19577145   144.97328504
 P     11  10   9     3.993132520716   101.44791109   291.02990711
 S     12  11  10     3.699318866522   116.11795825   191.26943843
 O     12  11  10     3.017112073942   106.97440949    62.48023829
 C     14  12  11     2.715974240094   121.73608165    90.49916497
 C     15  14  12     2.863825590760   111.83943016   288.48014436
 O     12  11  10     2.993869474976    98.91794704   316.95465062
 C     17  12  11     2.724025663211   121.99159219   199.66458017
 C     18  17  12     2.859583230636   111.84521806   288.37894861
 H      1   2   3     2.051425227227   109.22241077   186.58588513
 H      1   2   3     2.054653360303   110.22469739   306.91890453
 H      1   2   3     2.057721722898   110.09868975    67.03734898
 H      2   1   3     2.068820195045   110.82159025   238.73993687
 H      2   1   3     2.061815742081   111.61686452   116.08855376
 H      7   6   4     2.062696231325   104.12984137   211.36678957
 H      7   6   4     2.066967923453   108.83372750   328.60817601
 H      8   7   6     2.053551655624   110.03967211    54.93310913
 H      8   7   6     2.051505989246   108.98274788   174.68511331
 H      8   7   6     2.052909061914   110.45317153   294.72731611
 H     10   9   4     2.061752581101   108.58790838    23.10323815
 H     10   9   4     2.054875438971   109.25488877   261.20952752
 H     15  14  12     2.069186664323   108.30259627    50.62908379
 H     15  14  12     2.061299698859   104.10730455   167.73421276
 H     16  15  14     2.059521901381   109.94906594    66.28080805
 H     16  15  14     2.050484583421   109.31582833   185.80945954
 H     16  15  14     2.055450204696   110.31079695   306.28329103
 H     18  17  12     2.068554482644   108.29193907    51.01588285
 H     18  17  12     2.062138657395   103.68290952   168.16107729
 H     19  18  17     2.057420837968   110.04513333    64.30411833
 H     19  18  17     2.050845393448   109.18110916   184.10725156
 H     19  18  17     2.054616774341   109.73306009   303.84894619

---------------------
BASIS SET INFORMATION
---------------------
There are 5 groups of distinct atoms

 Group   1 Type C   : 7s4p1d contracted to 3s2p1d pattern {511/31/1}
 Group   2 Type O   : 7s4p1d contracted to 3s2p1d pattern {511/31/1}
 Group   3 Type P   : 10s7p1d contracted to 4s3p1d pattern {5311/511/1}
 Group   4 Type S   : 10s7p1d contracted to 4s3p1d pattern {5311/511/1}
 Group   5 Type H   : 4s contracted to 2s pattern {31}

Atom   0C    basis set group =>   1
Atom   1C    basis set group =>   1
Atom   2O    basis set group =>   2
Atom   3P    basis set group =>   3
Atom   4S    basis set group =>   4
Atom   5O    basis set group =>   2
Atom   6C    basis set group =>   1
Atom   7C    basis set group =>   1
Atom   8S    basis set group =>   4
Atom   9C    basis set group =>   1
Atom  10S    basis set group =>   4
Atom  11P    basis set group =>   3
Atom  12S    basis set group =>   4
Atom  13O    basis set group =>   2
Atom  14C    basis set group =>   1
Atom  15C    basis set group =>   1
Atom  16O    basis set group =>   2
Atom  17C    basis set group =>   1
Atom  18C    basis set group =>   1
Atom  19H    basis set group =>   5
Atom  20H    basis set group =>   5
Atom  21H    basis set group =>   5
Atom  22H    basis set group =>   5
Atom  23H    basis set group =>   5
Atom  24H    basis set group =>   5
Atom  25H    basis set group =>   5
Atom  26H    basis set group =>   5
Atom  27H    basis set group =>   5
Atom  28H    basis set group =>   5
Atom  29H    basis set group =>   5
Atom  30H    basis set group =>   5
Atom  31H    basis set group =>   5
Atom  32H    basis set group =>   5
Atom  33H    basis set group =>   5
Atom  34H    basis set group =>   5
Atom  35H    basis set group =>   5
Atom  36H    basis set group =>   5
Atom  37H    basis set group =>   5
Atom  38H    basis set group =>   5
Atom  39H    basis set group =>   5
Atom  40H    basis set group =>   5
---------------------------------
AUXILIARY/J BASIS SET INFORMATION
---------------------------------
There are 5 groups of distinct atoms

 Group   1 Type C   : 12s5p4d2f1g contracted to 6s4p3d1f1g pattern {711111/2111/211/2/1}
 Group   2 Type O   : 12s5p4d2f1g contracted to 6s4p3d1f1g pattern {711111/2111/211/2/1}
 Group   3 Type P   : 14s5p5d2f1g contracted to 8s4p3d1f1g pattern {71111111/2111/311/2/1}
 Group   4 Type S   : 14s5p5d2f1g contracted to 8s4p3d1f1g pattern {71111111/2111/311/2/1}
 Group   5 Type H   : 5s2p1d contracted to 3s1p1d pattern {311/2/1}

Atom   0C    basis set group =>   1
Atom   1C    basis set group =>   1
Atom   2O    basis set group =>   2
Atom   3P    basis set group =>   3
Atom   4S    basis set group =>   4
Atom   5O    basis set group =>   2
Atom   6C    basis set group =>   1
Atom   7C    basis set group =>   1
Atom   8S    basis set group =>   4
Atom   9C    basis set group =>   1
Atom  10S    basis set group =>   4
Atom  11P    basis set group =>   3
Atom  12S    basis set group =>   4
Atom  13O    basis set group =>   2
Atom  14C    basis set group =>   1
Atom  15C    basis set group =>   1
Atom  16O    basis set group =>   2
Atom  17C    basis set group =>   1
Atom  18C    basis set group =>   1
Atom  19H    basis set group =>   5
Atom  20H    basis set group =>   5
Atom  21H    basis set group =>   5
Atom  22H    basis set group =>   5
Atom  23H    basis set group =>   5
Atom  24H    basis set group =>   5
Atom  25H    basis set group =>   5
Atom  26H    basis set group =>   5
Atom  27H    basis set group =>   5
Atom  28H    basis set group =>   5
Atom  29H    basis set group =>   5
Atom  30H    basis set group =>   5
Atom  31H    basis set group =>   5
Atom  32H    basis set group =>   5
Atom  33H    basis set group =>   5
Atom  34H    basis set group =>   5
Atom  35H    basis set group =>   5
Atom  36H    basis set group =>   5
Atom  37H    basis set group =>   5
Atom  38H    basis set group =>   5
Atom  39H    basis set group =>   5
Atom  40H    basis set group =>   5
------------------------------------------------------------------------------
                             ORCA STARTUP CALCULATIONS
                           -- RI-GTO INTEGRALS CHOSEN --
------------------------------------------------------------------------------
------------------------------------------------------------------------------
                   ___                                                        
                  /   \      - P O W E R E D   B Y -                         
                 /     \                                                     
                 |  |  |   _    _      __       _____    __    __             
                 |  |  |  | |  | |    /  \     |  _  \  |  |  /  |          
                  \  \/   | |  | |   /    \    | | | |  |  | /  /          
                 / \  \   | |__| |  /  /\  \   | |_| |  |  |/  /          
                |  |  |   |  __  | /  /__\  \  |    /   |      \           
                |  |  |   | |  | | |   __   |  |    \   |  |\   \          
                \     /   | |  | | |  |  |  |  | |\  \  |  | \   \       
                 \___/    |_|  |_| |__|  |__|  |_| \__\ |__|  \__/        
                                                                              
                      - O R C A' S   B I G   F R I E N D -                    
                                      &                                       
                       - I N T E G R A L  F E E D E R -                       
                                                                              
 v1 FN, 2020, v2 2021, v3 2022-2024                                           
------------------------------------------------------------------------------


----------------------
SHARK INTEGRAL PACKAGE
----------------------

Number of atoms                             ...     41
Number of basis functions                   ...    334
Number of shells                            ...    170
Maximum angular momentum                    ...      2
Integral batch strategy                     ... SHARK/LIBINT Hybrid
RI-J (if used) integral strategy            ... SPLIT-RIJ (Revised 2003 algorithm where possible)
Printlevel                                  ...      1
Contraction scheme used                     ... SEGMENTED contraction
Prescreening option                         ... SCHWARTZ
   Thresh                                   ... 1.000e-09
   Tcut                                     ... 1.000e-10
   Tpresel                                  ... 1.000e-10 
Coulomb Range Separation                    ... NOT USED
Exchange Range Separation                   ... NOT USED
Multipole approximations                    ... NOT USED
Finite Nucleus Model                        ... NOT USED
CABS basis                                  ... NOT available
Auxiliary Coulomb fitting basis             ... AVAILABLE
   # of basis functions in Aux-J            ...   1185
   # of shells in Aux-J                     ...    407
   Maximum angular momentum in Aux-J        ...      4
Auxiliary J/K fitting basis                 ... NOT available
Auxiliary Correlation fitting basis         ... NOT available
Auxiliary 'external' fitting basis          ... NOT available

Checking pre-screening integrals            ... done (  0.0 sec) Dimension = 170
Check shell pair data                       ... done (  0.0 sec)
Shell pair information
Shell pair cut-off parameter TPreSel        ...   1.0e-10
Total number of shell pairs                 ...     14535
Shell pairs after pre-screening             ...     10745
Total number of primitive shell pairs       ...     62501
Primitive shell pairs kept                  ...     26657
          la=0 lb=0:   4215 shell pairs
          la=1 lb=0:   3623 shell pairs
          la=1 lb=1:    820 shell pairs
          la=2 lb=0:   1363 shell pairs
          la=2 lb=1:    607 shell pairs
          la=2 lb=2:    117 shell pairs

Calculating one electron integrals          ... done (  0.1 sec)
Calculating RI/J V-Matrix + Cholesky decomp.... done (  0.1 sec)
Calculating Nuclear repulsion               ... done (  0.0 sec) ENN=   2800.104301707545 Eh

Diagonalization of the overlap matrix:
Smallest eigenvalue                        ... 3.105e-03
Time for diagonalization                   ...    0.009 sec
Threshold for overlap eigenvalues          ... 1.000e-07
Number of eigenvalues below threshold      ... 0
Time for construction of square roots      ...    0.024 sec
Total time needed                          ...    0.042 sec

-------------------
DFT GRID GENERATION
-------------------

General Integration Accuracy     IntAcc      ... 4.159
Radial Grid Type                 RadialGrid  ... OptM3 with GC (2021)
Angular Grid (max. ang.)         AngularGrid ... 3 (Lebedev-194)
Angular grid pruning method      GridPruning ... 4 (adaptive)
Weight generation scheme         WeightScheme... mBecke (2022)
Basis function cutoff            BFCut       ... 1.0000e-10
Integration weight cutoff        WCut        ... 1.0000e-14
Partially contracted basis set               ... off
Rotationally invariant grid construction     ... off
Angular grids for H and He will be reduced by one unit

Total number of grid points                  ...    97181
Total number of batches                      ...     1539
Average number of points per batch           ...       63
Average number of grid points per atom       ...     2370
Initializing property integral containers    ... done (  0.0 sec)

SHARK setup successfully completed in   1.6 seconds

Maximum memory used throughout the entire STARTUP-calculation: 52.5 MB
-------------------------------------------------------------------------------
                                 ORCA GUESS
                   Start orbitals & Density for SCF / CASSCF
-------------------------------------------------------------------------------

------------
SCF SETTINGS
------------
Hamiltonian:
 Density Functional     Method          .... DFT(GTOs)
 Exchange Functional    Exchange        .... PBE
   PBE kappa parameter   XKappa         ....  0.804000
   PBE mue parameter    XMuePBE         ....  0.219520
 Correlation Functional Correlation     .... PBE
   PBE beta parameter  CBetaPBE         ....  0.066725
 LDA part of GGA corr.  LDAOpt          .... PW91-LDA
 Gradients option       PostSCFGGA      .... off
   NL short-range parameter             ....  6.400000
 RI-approximation to the Coulomb term is turned on
   Number of AuxJ basis functions       .... 1185


General Settings:
 Integral files         IntName         .... sp
 Hartree-Fock type      HFTyp           .... RHF
 Total Charge           Charge          ....    0
 Multiplicity           Mult            ....    1
 Number of Electrons    NEL             ....  202
 Basis Dimension        Dim             ....  334
 Nuclear Repulsion      ENuc            ....   2800.1043017075 Eh

Convergence Acceleration:
 AO-DIIS                CNVDIIS         .... on
   Start iteration      DIISMaxIt       ....    12
   Startup error        DIISStart       ....  0.200000
   # of expansion vecs  DIISMaxEq       ....     5
   Bias factor          DIISBfac        ....   1.050
   Max. coefficient     DIISMaxC        ....  10.000
 MO-DIIS                CNVKDIIS        .... off
 Trust-Rad. Augm. Hess. CNVTRAH         .... auto
   Auto Start mean grad. ratio tolernc. ....  1.125000
   Auto Start start iteration           ....    50
   Auto Start num. interpolation iter.  ....    10
   Max. Number of Micro iterations      ....    24
   Max. Number of Macro iterations      .... Maxiter - #DIIS iter
   Number of Davidson start vectors     ....     2
   Converg. threshold    (grad. norm)   ....   1.000e-04
   Grad. Scal. Fac. for Micro threshold ....   0.100
   Minimum threshold for Micro iter.    ....   1.000e-02
   NR start threshold (gradient norm)   ....   1.000e-04
   Initial trust radius                 ....   0.400
   Minimum AH scaling param. (alpha)    ....   1.000
   Maximum AH scaling param. (alpha)    .... 1000.000
   Quad. conv. algorithm                .... NR
   White noise on init. David. guess    .... on
   Maximum white noise                  ....   0.010
   Pseudo random numbers                .... off
   Inactive MOs                         .... canonical
   Orbital update algorithm             .... Taylor
   Preconditioner                       .... Diag
   Full preconditioner red. dimension   ....   250
 SOSCF                  CNVSOSCF        .... on
   Start iteration      SOSCFMaxIt      ....   150
   Startup grad/error   SOSCFStart      ....  0.003300
   Hessian update       SOSCFHessUp     .... L-BFGS
 Level Shifting         CNVShift        .... on
   Level shift para.    LevelShift      ....    0.2500
   Turn off err/grad.   ShiftErr        ....    0.0010
 Zerner damping         CNVZerner       .... off
 Static damping         CNVDamp         .... on
   Fraction old density DampFac         ....    0.7000
   Max. Damping (<1)    DampMax         ....    0.9800
   Min. Damping (>=0)   DampMin         ....    0.0000
   Turn off err/grad.   DampErr         ....    0.1000

SCF Procedure:
 Maximum # iterations   MaxIter         ....   125
 SCF integral mode      SCFMode         .... Direct
   Integral package                     .... SHARK and LIBINT hybrid scheme
 Reset frequency        DirectResetFreq ....    20
 Integral Threshold     Thresh          ....  1.000e-09 Eh
 Primitive CutOff       TCut            ....  1.000e-10 Eh

Convergence Tolerance:
 Convergence Check Mode ConvCheckMode   .... Total+1el-Energy
 Convergence forced     ConvForced      .... 0
 Energy Change          TolE            ....  1.000e-05 Eh
 1-El. energy change                    ....  1.000e-02 Eh
 Orbital Gradient       TolG            ....  1.000e-04
 Orbital Rotation angle TolX            ....  1.000e-04
 DIIS Error             TolErr          ....  5.000e-04

------------------------------
INITIAL GUESS: MODEL POTENTIAL
------------------------------
Loading Hartree-Fock densities                     ... done
Calculating cut-offs                               ... done
Initializing the effective Hamiltonian             ... done
Setting up the integral package (SHARK)            ... done
Starting the Coulomb interaction                   ... done (   0.7 sec)
Making the grid                                    ... done (   0.5 sec)
Mapping shells                                     ... done
Starting the XC term evaluation                    ... done (   0.4 sec)
  promolecular density results
     # of electrons  =    201.990114024
     EX              =   -229.994798635
     EC              =     -7.287633782
     EX+EC           =   -237.282432417
Transforming the Hamiltonian                       ... done (   0.0 sec)
Diagonalizing the Hamiltonian                      ... done (   0.0 sec)
Back transforming the eigenvectors                 ... done (   0.0 sec)
Now organizing SCF variables                       ... done
                      ------------------
                      INITIAL GUESS DONE (   1.7 sec)
                      ------------------
             **** ENERGY FILE WAS UPDATED (sp.en.tmp) ****
Finished Guess after   1.9 sec
Maximum memory used throughout the entire GUESS-calculation: 39.8 MB

-------------------------------------------------------------------------------------------
                                      ORCA LEAN-SCF
                              memory conserving SCF solver
-------------------------------------------------------------------------------------------

----------------------------------------D-I-I-S--------------------------------------------
Iteration    Energy (Eh)           Delta-E    RMSDP     MaxDP     DIISErr   Damp  Time(sec)
-------------------------------------------------------------------------------------------
               ***  Starting incremental Fock matrix formation  ***
    1    -2929.1953006524022385     0.00e+00  2.68e-03  1.39e-01  1.86e-01  0.700   2.4
    2    -2929.4188134108758277    -2.24e-01  1.73e-03  7.23e-02  7.49e-02  0.700   2.2
                               ***Turning on AO-DIIS***
    3    -2929.4897543424908690    -7.09e-02  6.76e-04  1.73e-02  2.14e-02  0.700   2.1
    4    -2929.5344896491919826    -4.47e-02  1.02e-03  3.23e-02  9.33e-03  0.000   2.0
    5    -2929.6387619666952560    -1.04e-01  3.07e-04  1.18e-02  7.54e-03  0.000   2.1
                              *** Initializing SOSCF ***
---------------------------------------S-O-S-C-F--------------------------------------
Iteration    Energy (Eh)           Delta-E    RMSDP     MaxDP     MaxGrad    Time(sec)
--------------------------------------------------------------------------------------
    6    -2929.6398199555928841    -1.06e-03  1.09e-04  3.06e-03  1.93e-03     2.0
               *** Restarting incremental Fock matrix formation ***
    7    -2929.6399475944676851    -1.28e-04  7.22e-05  1.84e-03  2.01e-04     2.3
    8    -2929.6399502044100700    -2.61e-06  3.33e-05  9.44e-04  2.52e-04     1.9
                 **** Energy Check signals convergence ****

               *****************************************************
               *                     SUCCESS                       *
               *           SCF CONVERGED AFTER   8 CYCLES          *
               *****************************************************

             **** ENERGY FILE WAS UPDATED (sp.en.tmp) ****

----------------
TOTAL SCF ENERGY
----------------

Total Energy       :      -2929.63995020441007 Eh          -79719.55591 eV

Components:
Nuclear Repulsion  :       2800.10430170754489 Eh           76194.71171 eV
Electronic Energy  :      -5729.74425191195587 Eh         -155914.26762 eV
One Electron Energy:      -9618.49208872727650 Eh         -261732.47596 eV
Two Electron Energy:       3888.74783681532108 Eh          105818.20833 eV

Virial components:
Potential Energy   :      -5848.93677283568650 Eh         -159157.66101 eV
Kinetic Energy     :       2919.29682263127643 Eh           79438.10510 eV
Virial Ratio       :          2.00354302018656

DFT components:
N(Alpha)           :      101.000122544886 electrons
N(Beta)            :      101.000122544886 electrons
N(Total)           :      202.000245089773 electrons
E(X)               :     -231.805711366356 Eh       
E(C)               :       -7.293745293984 Eh       
E(XC)              :     -239.099456660341 Eh       

---------------
SCF CONVERGENCE
---------------

  Last Energy change         ...    2.6099e-06  Tolerance :   1.0000e-05
  Last MAX-Density change    ...    9.4385e-04  Tolerance :   1.0000e-03
  Last RMS-Density change    ...    3.3313e-05  Tolerance :   1.0000e-04
  Last DIIS Error            ...    1.9335e-03  Tolerance :   5.0000e-04
  Last Orbital Gradient      ...    2.5219e-04  Tolerance :   1.0000e-04
  Last Orbital Rotation      ...    3.4694e-04  Tolerance :   1.0000e-04


----------------
ORBITAL ENERGIES
----------------

  NO   OCC          E(Eh)            E(eV) 
   0   2.0000     -88.046193     -2395.8587 
   1   2.0000     -88.045003     -2395.8263 
   2   2.0000     -87.990873     -2394.3534 
   3   2.0000     -87.987013     -2394.2483 
   4   2.0000     -76.431497     -2079.8068 
   5   2.0000     -76.424440     -2079.6148 
   6   2.0000     -18.802887      -511.6526 
   7   2.0000     -18.795735      -511.4579 
   8   2.0000     -18.789493      -511.2881 
   9   2.0000     -18.786554      -511.2081 
  10   2.0000      -9.959637      -271.0155 
  11   2.0000      -9.959428      -271.0098 
  12   2.0000      -9.957565      -270.9591 
  13   2.0000      -9.950392      -270.7639 
  14   2.0000      -9.945564      -270.6326 
  15   2.0000      -9.889826      -269.1158 
  16   2.0000      -9.888427      -269.0778 
  17   2.0000      -9.882261      -268.9100 
  18   2.0000      -9.876831      -268.7622 
  19   2.0000      -7.690741      -209.2757 
  20   2.0000      -7.690304      -209.2638 
  21   2.0000      -7.636007      -207.7863 
  22   2.0000      -7.632131      -207.6809 
  23   2.0000      -6.429056      -174.9435 
  24   2.0000      -6.422321      -174.7602 
  25   2.0000      -5.718657      -155.6126 
  26   2.0000      -5.718569      -155.6102 
  27   2.0000      -5.715381      -155.5234 
  28   2.0000      -5.714505      -155.4996 
  29   2.0000      -5.707679      -155.3138 
  30   2.0000      -5.707084      -155.2977 
  31   2.0000      -5.664990      -154.1522 
  32   2.0000      -5.661051      -154.0450 
  33   2.0000      -5.656655      -153.9254 
  34   2.0000      -5.656005      -153.9077 
  35   2.0000      -5.652909      -153.8235 
  36   2.0000      -5.652160      -153.8031 
  37   2.0000      -4.652067      -126.5892 
  38   2.0000      -4.650703      -126.5521 
  39   2.0000      -4.649235      -126.5121 
  40   2.0000      -4.644647      -126.3873 
  41   2.0000      -4.644263      -126.3768 
  42   2.0000      -4.642812      -126.3373 
  43   2.0000      -0.994006       -27.0483 
  44   2.0000      -0.983598       -26.7651 
  45   2.0000      -0.952067       -25.9071 
  46   2.0000      -0.943034       -25.6613 
  47   2.0000      -0.763751       -20.7827 
  48   2.0000      -0.724562       -19.7163 
  49   2.0000      -0.709231       -19.2991 
  50   2.0000      -0.695649       -18.9296 
  51   2.0000      -0.684762       -18.6333 
  52   2.0000      -0.675705       -18.3869 
  53   2.0000      -0.654976       -17.8228 
  54   2.0000      -0.640725       -17.4350 
  55   2.0000      -0.601328       -16.3630 
  56   2.0000      -0.595426       -16.2024 
  57   2.0000      -0.580205       -15.7882 
  58   2.0000      -0.568166       -15.4606 
  59   2.0000      -0.561906       -15.2902 
  60   2.0000      -0.505883       -13.7658 
  61   2.0000      -0.490223       -13.3396 
  62   2.0000      -0.481389       -13.0993 
  63   2.0000      -0.469919       -12.7871 
  64   2.0000      -0.455273       -12.3886 
  65   2.0000      -0.453289       -12.3346 
  66   2.0000      -0.444124       -12.0852 
  67   2.0000      -0.439309       -11.9542 
  68   2.0000      -0.432881       -11.7793 
  69   2.0000      -0.418518       -11.3884 
  70   2.0000      -0.411511       -11.1978 
  71   2.0000      -0.401762       -10.9325 
  72   2.0000      -0.394825       -10.7437 
  73   2.0000      -0.387942       -10.5564 
  74   2.0000      -0.387295       -10.5388 
  75   2.0000      -0.372895       -10.1470 
  76   2.0000      -0.366533        -9.9739 
  77   2.0000      -0.360562        -9.8114 
  78   2.0000      -0.357861        -9.7379 
  79   2.0000      -0.352787        -9.5998 
  80   2.0000      -0.351464        -9.5638 
  81   2.0000      -0.346389        -9.4257 
  82   2.0000      -0.341867        -9.3027 
  83   2.0000      -0.336516        -9.1571 
  84   2.0000      -0.328137        -8.9291 
  85   2.0000      -0.321656        -8.7527 
  86   2.0000      -0.317782        -8.6473 
  87   2.0000      -0.301220        -8.1966 
  88   2.0000      -0.297814        -8.1039 
  89   2.0000      -0.293244        -7.9796 
  90   2.0000      -0.282676        -7.6920 
  91   2.0000      -0.275941        -7.5087 
  92   2.0000      -0.270641        -7.3645 
  93   2.0000      -0.266750        -7.2586 
  94   2.0000      -0.265490        -7.2244 
  95   2.0000      -0.228607        -6.2207 
  96   2.0000      -0.222930        -6.0662 
  97   2.0000      -0.212445        -5.7809 
  98   2.0000      -0.209531        -5.7016 
  99   2.0000      -0.202919        -5.5217 
 100   2.0000      -0.200354        -5.4519 
 101   0.0000      -0.042318        -1.1515 
 102   0.0000      -0.031153        -0.8477 
 103   0.0000      -0.024159        -0.6574 
 104   0.0000       0.002322         0.0632 
 105   0.0000       0.015167         0.4127 
 106   0.0000       0.024239         0.6596 
 107   0.0000       0.030391         0.8270 
 108   0.0000       0.033012         0.8983 
 109   0.0000       0.041585         1.1316 
 110   0.0000       0.044630         1.2144 
 111   0.0000       0.051599         1.4041 
*Only the first 10 virtual orbitals were printed.

                    ********************************
                    * MULLIKEN POPULATION ANALYSIS *
                    ********************************

-----------------------
MULLIKEN ATOMIC CHARGES
-----------------------
   0 C :   -0.378642
   1 C :    0.005741
   2 O :   -0.380653
   3 P :    0.596643
   4 S :   -0.298509
   5 O :   -0.358619
   6 C :   -0.012942
   7 C :   -0.294288
   8 S :   -0.104231
   9 C :   -0.350649
  10 S :   -0.081179
  11 P :    0.625144
  12 S :   -0.323083
  13 O :   -0.367581
  14 C :   -0.008348
  15 C :   -0.318231
  16 O :   -0.371350
  17 C :    0.004219
  18 C :   -0.320756
  19 H :    0.114867
  20 H :    0.114645
  21 H :    0.182825
  22 H :    0.114696
  23 H :    0.105072
  24 H :    0.108992
  25 H :    0.100849
  26 H :    0.121043
  27 H :    0.110299
  28 H :    0.123535
  29 H :    0.208724
  30 H :    0.182050
  31 H :    0.111696
  32 H :    0.105541
  33 H :    0.124749
  34 H :    0.110811
  35 H :    0.122862
  36 H :    0.110946
  37 H :    0.108338
  38 H :    0.116376
  39 H :    0.108244
  40 H :    0.130154
Sum of atomic charges:   -0.0000000

--------------------------------
MULLIKEN REDUCED ORBITAL CHARGES
--------------------------------
  0 C s       :     3.141080  s :     3.141080
      pz      :     1.037487  p :     3.209653
      px      :     1.098912
      py      :     1.073253
      dz2     :     0.007031  d :     0.027909
      dxz     :     0.006855
      dyz     :     0.003167
      dx2y2   :     0.005746
      dxy     :     0.005110

  1 C s       :     3.070239  s :     3.070239
      pz      :     1.062369  p :     2.863655
      px      :     1.046445
      py      :     0.754842
      dz2     :     0.011543  d :     0.060365
      dxz     :     0.009646
      dyz     :     0.010785
      dx2y2   :     0.012531
      dxy     :     0.015860

  2 O s       :     3.758386  s :     3.758386
      pz      :     1.750574  p :     4.609309
      px      :     1.601455
      py      :     1.257280
      dz2     :     0.001827  d :     0.012958
      dxz     :     0.001795
      dyz     :     0.001965
      dx2y2   :     0.002323
      dxy     :     0.005048

  3 P s       :     5.215975  s :     5.215975
      pz      :     2.931649  p :     8.598165
      px      :     2.867154
      py      :     2.799362
      dz2     :     0.131552  d :     0.589218
      dxz     :     0.101682
      dyz     :     0.088546
      dx2y2   :     0.106579
      dxy     :     0.160858

  4 S s       :     5.911196  s :     5.911196
      pz      :     3.290474  p :    10.344605
      px      :     3.382931
      py      :     3.671200
      dz2     :     0.008512  d :     0.042707
      dxz     :     0.017528
      dyz     :     0.005069
      dx2y2   :     0.007139
      dxy     :     0.004459

  5 O s       :     3.754487  s :     3.754487
      pz      :     1.638020  p :     4.591063
      px      :     1.390764
      py      :     1.562279
      dz2     :     0.002193  d :     0.013069
      dxz     :     0.003081
      dyz     :     0.002058
      dx2y2   :     0.002815
      dxy     :     0.002922

  6 C s       :     3.084277  s :     3.084277
      pz      :     0.964211  p :     2.869390
      px      :     0.819663
      py      :     1.085516
      dz2     :     0.012384  d :     0.059275
      dxz     :     0.015660
      dyz     :     0.005990
      dx2y2   :     0.016824
      dxy     :     0.008415

  7 C s       :     3.094159  s :     3.094159
      pz      :     1.068589  p :     3.172236
      px      :     1.011474
      py      :     1.092173
      dz2     :     0.006289  d :     0.027893
      dxz     :     0.006781
      dyz     :     0.003319
      dx2y2   :     0.008055
      dxy     :     0.003449

  8 S s       :     5.881426  s :     5.881426
      pz      :     3.282150  p :    10.148106
      px      :     3.415574
      py      :     3.450382
      dz2     :     0.024826  d :     0.074699
      dxz     :     0.012890
      dyz     :     0.009538
      dx2y2   :     0.008771
      dxy     :     0.018673

  9 C s       :     3.216103  s :     3.216103
      pz      :     1.119017  p :     3.094843
      px      :     0.941402
      py      :     1.034424
      dz2     :     0.009553  d :     0.039703
      dxz     :     0.007457
      dyz     :     0.004157
      dx2y2   :     0.009120
      dxy     :     0.009416

 10 S s       :     5.879582  s :     5.879582
      pz      :     3.486433  p :    10.126746
      px      :     3.209889
      py      :     3.430424
      dz2     :     0.010560  d :     0.074851
      dxz     :     0.021722
      dyz     :     0.012337
      dx2y2   :     0.015490
      dxy     :     0.014743

 11 P s       :     5.190523  s :     5.190523
      pz      :     2.840422  p :     8.597054
      px      :     2.890796
      py      :     2.865836
      dz2     :     0.130526  d :     0.587280
      dxz     :     0.106638
      dyz     :     0.105352
      dx2y2   :     0.108323
      dxy     :     0.136442

 12 S s       :     5.919775  s :     5.919775
      pz      :     3.619750  p :    10.360486
      px      :     3.097558
      py      :     3.643178
      dz2     :     0.005589  d :     0.042822
      dxz     :     0.011958
      dyz     :     0.001691
      dx2y2   :     0.013634
      dxy     :     0.009949

 13 O s       :     3.769790  s :     3.769790
      pz      :     1.540035  p :     4.584697
      px      :     1.636202
      py      :     1.408460
      dz2     :     0.003112  d :     0.013094
      dxz     :     0.001988
      dyz     :     0.002493
      dx2y2   :     0.002156
      dxy     :     0.003345

 14 C s       :     3.075771  s :     3.075771
      pz      :     0.847122  p :     2.871828
      px      :     1.084919
      py      :     0.939787
      dz2     :     0.015738  d :     0.060750
      dxz     :     0.008660
      dyz     :     0.017517
      dx2y2   :     0.007856
      dxy     :     0.010980

 15 C s       :     3.107167  s :     3.107167
      pz      :     1.027716  p :     3.183084
      px      :     1.084922
      py      :     1.070446
      dz2     :     0.004954  d :     0.027981
      dxz     :     0.003629
      dyz     :     0.008320
      dx2y2   :     0.003954
      dxy     :     0.007124

 16 O s       :     3.758451  s :     3.758451
      pz      :     1.253438  p :     4.599592
      px      :     1.646531
      py      :     1.699622
      dz2     :     0.003339  d :     0.013307
      dxz     :     0.002982
      dyz     :     0.003369
      dx2y2   :     0.001632
      dxy     :     0.001986

 17 C s       :     3.074767  s :     3.074767
      pz      :     0.874919  p :     2.860726
      px      :     0.968056
      py      :     1.017751
      dz2     :     0.010518  d :     0.060288
      dxz     :     0.011915
      dyz     :     0.016466
      dx2y2   :     0.013537
      dxy     :     0.007853

 18 C s       :     3.104069  s :     3.104069
      pz      :     1.067970  p :     3.188749
      px      :     1.092929
      py      :     1.027849
      dz2     :     0.004150  d :     0.027938
      dxz     :     0.004886
      dyz     :     0.007335
      dx2y2   :     0.008079
      dxy     :     0.003489

 19 H s       :     0.885133  s :     0.885133

 20 H s       :     0.885355  s :     0.885355

 21 H s       :     0.817175  s :     0.817175

 22 H s       :     0.885304  s :     0.885304

 23 H s       :     0.894928  s :     0.894928

 24 H s       :     0.891008  s :     0.891008

 25 H s       :     0.899151  s :     0.899151

 26 H s       :     0.878957  s :     0.878957

 27 H s       :     0.889701  s :     0.889701

 28 H s       :     0.876465  s :     0.876465

 29 H s       :     0.791276  s :     0.791276

 30 H s       :     0.817950  s :     0.817950

 31 H s       :     0.888304  s :     0.888304

 32 H s       :     0.894459  s :     0.894459

 33 H s       :     0.875251  s :     0.875251

 34 H s       :     0.889189  s :     0.889189

 35 H s       :     0.877138  s :     0.877138

 36 H s       :     0.889054  s :     0.889054

 37 H s       :     0.891662  s :     0.891662

 38 H s       :     0.883624  s :     0.883624

 39 H s       :     0.891756  s :     0.891756

 40 H s       :     0.869846  s :     0.869846


------------------------
MULLIKEN OVERLAP CHARGES
------------------------
B(  0-C ,  1-C ) :   0.9018 B(  0-C ,  2-O ) :  -0.0967 B(  0-C , 19-H ) :   0.6878 
B(  0-C , 20-H ) :   0.7205 B(  0-C , 21-H ) :   0.7110 B(  0-C , 22-H ) :  -0.0663 
B(  1-C ,  2-O ) :   0.5548 B(  1-C ,  3-P ) :  -0.0830 B(  1-C , 22-H ) :   0.7276 
B(  1-C , 23-H ) :   0.7213 B(  2-O ,  3-P ) :   0.6230 B(  2-O ,  4-S ) :  -0.0652 
B(  2-O ,  5-O ) :  -0.0554 B(  2-O ,  8-S ) :  -0.0699 B(  2-O , 22-H ) :  -0.0662 
B(  2-O , 23-H ) :  -0.0601 B(  3-P ,  4-S ) :   0.9356 B(  3-P ,  5-O ) :   0.6211 
B(  3-P ,  6-C ) :  -0.0633 B(  3-P ,  8-S ) :   0.5496 B(  3-P ,  9-C ) :  -0.0636 
B(  4-S ,  5-O ) :  -0.0714 B(  4-S ,  8-S ) :  -0.0800 B(  4-S , 22-H ) :   0.0575 
B(  4-S , 29-H ) :   0.0926 B(  5-O ,  6-C ) :   0.5407 B(  5-O ,  7-C ) :  -0.1081 
B(  5-O ,  8-S ) :  -0.0812 B(  5-O , 24-H ) :  -0.0553 B(  5-O , 25-H ) :  -0.0657 
B(  6-C ,  7-C ) :   0.9023 B(  6-C , 24-H ) :   0.7383 B(  6-C , 25-H ) :   0.6914 
B(  7-C , 24-H ) :  -0.0530 B(  7-C , 25-H ) :  -0.0622 B(  7-C , 26-H ) :   0.7374 
B(  7-C , 27-H ) :   0.6923 B(  7-C , 28-H ) :   0.7400 B(  8-S ,  9-C ) :   0.4365 
B(  8-S , 10-S ) :  -0.1269 B(  8-S , 25-H ) :   0.0656 B(  8-S , 29-H ) :  -0.0753 
B(  8-S , 30-H ) :  -0.0608 B(  9-C , 10-S ) :   0.4194 B(  9-C , 29-H ) :   0.6320 
B(  9-C , 30-H ) :   0.7190 B( 10-S , 11-P ) :   0.4958 B( 10-S , 12-S ) :  -0.0625 
B( 10-S , 13-O ) :  -0.0650 B( 10-S , 16-O ) :  -0.0848 B( 10-S , 30-H ) :  -0.0617 
B( 11-P , 12-S ) :   0.9496 B( 11-P , 13-O ) :   0.5941 B( 11-P , 14-C ) :  -0.0725 
B( 11-P , 16-O ) :   0.6419 B( 11-P , 17-C ) :  -0.0799 B( 12-S , 13-O ) :  -0.0763 
B( 12-S , 16-O ) :  -0.0623 B( 12-S , 31-H ) :   0.0719 B( 12-S , 36-H ) :   0.0600 
B( 13-O , 14-C ) :   0.5522 B( 13-O , 15-C ) :  -0.0883 B( 13-O , 16-O ) :  -0.0579 
B( 13-O , 21-H ) :   0.0532 B( 13-O , 31-H ) :  -0.0657 B( 13-O , 32-H ) :  -0.0671 
B( 14-C , 15-C ) :   0.9247 B( 14-C , 31-H ) :   0.7184 B( 14-C , 32-H ) :   0.7240 
B( 15-C , 31-H ) :  -0.0650 B( 15-C , 32-H ) :  -0.0578 B( 15-C , 33-H ) :   0.7242 
B( 15-C , 34-H ) :   0.6944 B( 15-C , 35-H ) :   0.7407 B( 16-O , 17-C ) :   0.5533 
B( 16-O , 18-C ) :  -0.0902 B( 16-O , 36-H ) :  -0.0650 B( 16-O , 37-H ) :  -0.0601 
B( 17-C , 18-C ) :   0.8976 B( 17-C , 36-H ) :   0.7295 B( 17-C , 37-H ) :   0.7297 
B( 18-C , 36-H ) :  -0.0682 B( 18-C , 37-H ) :  -0.0508 B( 18-C , 38-H ) :   0.7224 
B( 18-C , 39-H ) :   0.6927 B( 18-C , 40-H ) :   0.7237 B( 20-H , 21-H ) :  -0.0517 
B( 22-H , 23-H ) :  -0.0656 B( 24-H , 25-H ) :  -0.0659 B( 31-H , 32-H ) :  -0.0674 
B( 36-H , 37-H ) :  -0.0683 


                     *******************************
                     * LOEWDIN POPULATION ANALYSIS *
                     *******************************

----------------------
LOEWDIN ATOMIC CHARGES
----------------------
   0 C :   -0.379550
   1 C :   -0.115844
   2 O :   -0.244251
   3 P :    0.572404
   4 S :   -0.292277
   5 O :   -0.240387
   6 C :   -0.117589
   7 C :   -0.360790
   8 S :    0.077318
   9 C :   -0.478524
  10 S :    0.095935
  11 P :    0.569495
  12 S :   -0.319100
  13 O :   -0.239703
  14 C :   -0.121881
  15 C :   -0.369689
  16 O :   -0.235678
  17 C :   -0.114817
  18 C :   -0.367638
  19 H :    0.131843
  20 H :    0.122856
  21 H :    0.129111
  22 H :    0.112365
  23 H :    0.118469
  24 H :    0.120789
  25 H :    0.101668
  26 H :    0.129296
  27 H :    0.129886
  28 H :    0.125945
  29 H :    0.128392
  30 H :    0.135474
  31 H :    0.109014
  32 H :    0.115646
  33 H :    0.120755
  34 H :    0.129773
  35 H :    0.119209
  36 H :    0.110150
  37 H :    0.119678
  38 H :    0.120200
  39 H :    0.129226
  40 H :    0.122820

-------------------------------
LOEWDIN REDUCED ORBITAL CHARGES
-------------------------------
  0 C s       :     2.954747  s :     2.954747
      pz      :     1.100420  p :     3.355883
      px      :     1.131088
      py      :     1.124374
      dz2     :     0.016822  d :     0.068920
      dxz     :     0.017877
      dyz     :     0.008149
      dx2y2   :     0.013248
      dxy     :     0.012824

  1 C s       :     2.926796  s :     2.926796
      pz      :     1.104802  p :     3.053842
      px      :     1.101593
      py      :     0.847448
      dz2     :     0.024758  d :     0.135206
      dxz     :     0.024602
      dyz     :     0.024455
      dx2y2   :     0.025920
      dxy     :     0.035471

  2 O s       :     3.498205  s :     3.498205
      pz      :     1.752734  p :     4.722302
      px      :     1.642385
      py      :     1.327183
      dz2     :     0.003236  d :     0.023744
      dxz     :     0.002069
      dyz     :     0.003765
      dx2y2   :     0.004193
      dxy     :     0.010481

  3 P s       :     5.056348  s :     5.056348
      pz      :     2.930992  p :     8.551451
      px      :     2.857422
      py      :     2.763037
      dz2     :     0.192791  d :     0.819797
      dxz     :     0.141578
      dyz     :     0.110244
      dx2y2   :     0.136830
      dxy     :     0.238354

  4 S s       :     5.760299  s :     5.760299
      pz      :     3.372092  p :    10.474478
      px      :     3.427182
      py      :     3.675205
      dz2     :     0.010176  d :     0.057500
      dxz     :     0.027174
      dyz     :     0.005705
      dx2y2   :     0.009594
      dxy     :     0.004850

  5 O s       :     3.502513  s :     3.502513
      pz      :     1.664699  p :     4.714079
      px      :     1.443236
      py      :     1.606144
      dz2     :     0.003816  d :     0.023795
      dxz     :     0.005840
      dyz     :     0.002775
      dx2y2   :     0.004941
      dxy     :     0.006423

  6 C s       :     2.930458  s :     2.930458
      pz      :     1.022708  p :     3.054778
      px      :     0.907375
      py      :     1.124696
      dz2     :     0.027907  d :     0.132352
      dxz     :     0.035607
      dyz     :     0.013017
      dx2y2   :     0.037795
      dxy     :     0.018027

  7 C s       :     2.952079  s :     2.952079
      pz      :     1.122739  p :     3.339603
      px      :     1.082167
      py      :     1.134696
      dz2     :     0.015266  d :     0.069108
      dxz     :     0.017180
      dyz     :     0.008012
      dx2y2   :     0.020045
      dxy     :     0.008605

  8 S s       :     5.650971  s :     5.650971
      pz      :     3.300201  p :    10.177651
      px      :     3.424662
      py      :     3.452788
      dz2     :     0.032334  d :     0.094060
      dxz     :     0.015687
      dyz     :     0.010802
      dx2y2   :     0.010008
      dxy     :     0.025229

  9 C s       :     3.060416  s :     3.060416
      pz      :     1.173085  p :     3.330637
      px      :     1.052557
      py      :     1.104995
      dz2     :     0.021948  d :     0.087471
      dxz     :     0.016500
      dyz     :     0.008096
      dx2y2   :     0.019487
      dxy     :     0.021440

 10 S s       :     5.640702  s :     5.640702
      pz      :     3.506460  p :    10.168940
      px      :     3.234599
      py      :     3.427882
      dz2     :     0.011891  d :     0.094423
      dxz     :     0.028772
      dyz     :     0.014177
      dx2y2   :     0.020377
      dxy     :     0.019205

 11 P s       :     5.054991  s :     5.054991
      pz      :     2.817652  p :     8.559821
      px      :     2.896726
      py      :     2.845443
      dz2     :     0.191167  d :     0.815692
      dxz     :     0.138629
      dyz     :     0.142513
      dx2y2   :     0.144495
      dxy     :     0.198888

 12 S s       :     5.765434  s :     5.765434
      pz      :     3.629459  p :    10.495733
      px      :     3.207376
      py      :     3.658898
      dz2     :     0.007513  d :     0.057933
      dxz     :     0.015818
      dyz     :     0.002000
      dx2y2   :     0.020345
      dxy     :     0.012258

 13 O s       :     3.505597  s :     3.505597
      pz      :     1.565135  p :     4.710088
      px      :     1.673512
      py      :     1.471440
      dz2     :     0.005806  d :     0.024018
      dxz     :     0.002732
      dyz     :     0.004962
      dx2y2   :     0.003498
      dxy     :     0.007020

 14 C s       :     2.927149  s :     2.927149
      pz      :     0.931621  p :     3.059459
      px      :     1.140405
      py      :     0.987433
      dz2     :     0.035091  d :     0.135273
      dxz     :     0.018380
      dyz     :     0.040474
      dx2y2   :     0.016516
      dxy     :     0.024812

 15 C s       :     2.953680  s :     2.953680
      pz      :     1.087622  p :     3.346782
      px      :     1.130589
      py      :     1.128570
      dz2     :     0.012875  d :     0.069227
      dxz     :     0.008902
      dyz     :     0.021070
      dx2y2   :     0.009014
      dxy     :     0.017367

 16 O s       :     3.498189  s :     3.498189
      pz      :     1.342607  p :     4.713315
      px      :     1.668485
      py      :     1.702223
      dz2     :     0.007539  d :     0.024174
      dxz     :     0.005650
      dyz     :     0.006314
      dx2y2   :     0.002026
      dxy     :     0.002645

 17 C s       :     2.927320  s :     2.927320
      pz      :     0.948137  p :     3.053260
      px      :     1.035795
      py      :     1.069328
      dz2     :     0.022760  d :     0.134237
      dxz     :     0.025750
      dyz     :     0.036289
      dx2y2   :     0.033676
      dxy     :     0.015762

 18 C s       :     2.952712  s :     2.952712
      pz      :     1.126911  p :     3.345718
      px      :     1.136894
      py      :     1.081913
      dz2     :     0.010673  d :     0.069209
      dxz     :     0.011598
      dyz     :     0.017977
      dx2y2   :     0.020842
      dxy     :     0.008119

 19 H s       :     0.868157  s :     0.868157

 20 H s       :     0.877144  s :     0.877144

 21 H s       :     0.870889  s :     0.870889

 22 H s       :     0.887635  s :     0.887635

 23 H s       :     0.881531  s :     0.881531

 24 H s       :     0.879211  s :     0.879211

 25 H s       :     0.898332  s :     0.898332

 26 H s       :     0.870704  s :     0.870704

 27 H s       :     0.870114  s :     0.870114

 28 H s       :     0.874055  s :     0.874055

 29 H s       :     0.871608  s :     0.871608

 30 H s       :     0.864526  s :     0.864526

 31 H s       :     0.890986  s :     0.890986

 32 H s       :     0.884354  s :     0.884354

 33 H s       :     0.879245  s :     0.879245

 34 H s       :     0.870227  s :     0.870227

 35 H s       :     0.880791  s :     0.880791

 36 H s       :     0.889850  s :     0.889850

 37 H s       :     0.880322  s :     0.880322

 38 H s       :     0.879800  s :     0.879800

 39 H s       :     0.870774  s :     0.870774

 40 H s       :     0.877180  s :     0.877180


---------------------------------
LOEWDIN BOND ORDERS (THRESH 0.050000)
---------------------------------
B(  0-C ,  1-C ) :   1.1574 B(  0-C ,  2-O ) :   0.0593 B(  0-C , 19-H ) :   0.9242 
B(  0-C , 20-H ) :   0.9349 B(  0-C , 21-H ) :   0.9186 B(  1-C ,  2-O ) :   1.0870 
B(  1-C ,  3-P ) :   0.0645 B(  1-C , 22-H ) :   0.9076 B(  1-C , 23-H ) :   0.9167 
B(  2-O ,  3-P ) :   1.2691 B(  2-O ,  4-S ) :   0.0883 B(  2-O ,  5-O ) :   0.0505 
B(  2-O ,  8-S ) :   0.0578 B(  3-P ,  4-S ) :   1.7483 B(  3-P ,  5-O ) :   1.3009 
B(  3-P ,  6-C ) :   0.0637 B(  3-P ,  8-S ) :   1.0282 B(  4-S ,  5-O ) :   0.0742 
B(  4-S ,  8-S ) :   0.1278 B(  4-S , 29-H ) :   0.0532 B(  5-O ,  6-C ) :   1.0767 
B(  5-O ,  7-C ) :   0.0585 B(  5-O ,  8-S ) :   0.0752 B(  6-C ,  7-C ) :   1.1580 
B(  6-C , 24-H ) :   0.9186 B(  6-C , 25-H ) :   0.9053 B(  7-C , 26-H ) :   0.9357 
B(  7-C , 27-H ) :   0.9265 B(  7-C , 28-H ) :   0.9324 B(  8-S ,  9-C ) :   1.1537 
B(  8-S , 10-S ) :   0.0825 B(  9-C , 10-S ) :   1.1753 B(  9-C , 29-H ) :   0.8997 
B(  9-C , 30-H ) :   0.9262 B( 10-S , 11-P ) :   1.0689 B( 10-S , 12-S ) :   0.1022 
B( 10-S , 13-O ) :   0.0705 B( 10-S , 16-O ) :   0.0528 B( 11-P , 12-S ) :   1.7572 
B( 11-P , 13-O ) :   1.2502 B( 11-P , 14-C ) :   0.0651 B( 11-P , 16-O ) :   1.2880 
B( 11-P , 17-C ) :   0.0660 B( 12-S , 13-O ) :   0.0952 B( 12-S , 16-O ) :   0.0924 
B( 13-O , 14-C ) :   1.0916 B( 13-O , 15-C ) :   0.0578 B( 14-C , 15-C ) :   1.1556 
B( 14-C , 31-H ) :   0.9060 B( 14-C , 32-H ) :   0.9154 B( 15-C , 33-H ) :   0.9283 
B( 15-C , 34-H ) :   0.9257 B( 15-C , 35-H ) :   0.9322 B( 16-O , 17-C ) :   1.0783 
B( 16-O , 18-C ) :   0.0583 B( 17-C , 18-C ) :   1.1571 B( 17-C , 36-H ) :   0.9091 
B( 17-C , 37-H ) :   0.9151 B( 18-C , 38-H ) :   0.9307 B( 18-C , 39-H ) :   0.9255 
B( 18-C , 40-H ) :   0.9299 

------------------------------------------
LOEWDIN REDUCED ORBITAL POPULATIONS PER MO
-------------------------------------------
THRESHOLD FOR PRINTING IS 0.1%%
                      0         1         2         3         4         5   
                 -88.04619 -88.04500 -87.99087 -87.98701 -76.43150 -76.42444
                   2.00000   2.00000   2.00000   2.00000   2.00000   2.00000
                  --------  --------  --------  --------  --------  --------
 3 P  s               0.0       0.0       0.0       0.0     100.0       0.0
 4 S  s               0.0       0.0     100.0       0.0       0.0       0.0
 8 S  s             100.0       0.0       0.0       0.0       0.0       0.0
10 S  s               0.0     100.0       0.0       0.0       0.0       0.0
11 P  s               0.0       0.0       0.0       0.0       0.0     100.0
12 S  s               0.0       0.0       0.0     100.0       0.0       0.0

                      6         7         8         9        10        11   
                 -18.80289 -18.79573 -18.78949 -18.78655  -9.95964  -9.95943
                   2.00000   2.00000   2.00000   2.00000   2.00000   2.00000
                  --------  --------  --------  --------  --------  --------
 1 C  s               0.0       0.0       0.0       0.0       0.1      99.5
 2 O  s              99.9       0.0       0.0       0.0       0.0       0.0
 5 O  s               0.0      99.9       0.0       0.0       0.0       0.0
 6 C  s               0.0       0.0       0.0       0.0      99.5       0.1
13 O  s               0.0       0.0      99.9       0.0       0.0       0.0
16 O  s               0.0       0.0       0.0      99.9       0.0       0.0

                     12        13        14        15        16        17   
                  -9.95756  -9.95039  -9.94556  -9.88983  -9.88843  -9.88226
                   2.00000   2.00000   2.00000   2.00000   2.00000   2.00000
                  --------  --------  --------  --------  --------  --------
 0 C  s               0.0       0.0       0.0       0.0      99.7       0.0
 7 C  s               0.0       0.0       0.0      99.7       0.0       0.0
 9 C  s              99.8       0.0       0.0       0.0       0.0       0.0
14 C  s               0.0      99.7       0.0       0.0       0.0       0.0
15 C  s               0.0       0.0       0.0       0.0       0.0      99.7
17 C  s               0.0       0.0      99.7       0.0       0.0       0.0

                     18        19        20        21        22        23   
                  -9.87683  -7.69074  -7.69030  -7.63601  -7.63213  -6.42906
                   2.00000   2.00000   2.00000   2.00000   2.00000   2.00000
                  --------  --------  --------  --------  --------  --------
 2 O  py              0.0       0.0       0.0       0.0       0.0       0.1
 3 P  s               0.0       0.0       0.0       0.0       0.0      99.3
 4 S  s               0.0       0.0       0.0      99.9       0.0       0.0
 5 O  py              0.0       0.0       0.0       0.0       0.0       0.1
 8 S  s               0.0      99.7       0.0       0.0       0.0       0.0
10 S  s               0.0       0.0      99.7       0.0       0.0       0.0
12 S  s               0.0       0.0       0.0       0.0      99.9       0.0
17 C  py              0.1       0.0       0.0       0.0       0.0       0.0
18 C  s              99.7       0.0       0.0       0.0       0.0       0.0

                     24        25        26        27        28        29   
                  -6.42232  -5.71866  -5.71857  -5.71538  -5.71450  -5.70768
                   2.00000   2.00000   2.00000   2.00000   2.00000   2.00000
                  --------  --------  --------  --------  --------  --------
 8 S  pz              0.0       0.0      34.4      61.8       0.0       3.8
 8 S  px              0.0       0.0      41.1       9.3       0.0      49.6
 8 S  py              0.0       0.0      24.5      28.8       0.0      46.7
10 S  pz              0.0       1.2       0.0       0.0      62.8       0.0
10 S  px              0.0      65.0       0.0       0.0       8.1       0.0
10 S  py              0.0      33.9       0.0       0.0      29.1       0.0
11 P  s              99.3       0.0       0.0       0.0       0.0       0.0
13 O  py              0.1       0.0       0.0       0.0       0.0       0.0
16 O  pz              0.2       0.0       0.0       0.0       0.0       0.0

                     30        31        32        33        34        35   
                  -5.70708  -5.66499  -5.66105  -5.65665  -5.65601  -5.65291
                   2.00000   2.00000   2.00000   2.00000   2.00000   2.00000
                  --------  --------  --------  --------  --------  --------
 4 S  pz              0.0      57.6       0.0      19.3      23.1       0.0
 4 S  px              0.0      41.9       0.0      18.3      39.8       0.0
 4 S  py              0.0       0.5       0.0      62.4      37.1       0.0
10 S  pz             36.0       0.0       0.0       0.0       0.0       0.0
10 S  px             26.9       0.0       0.0       0.0       0.0       0.0
10 S  py             37.0       0.0       0.0       0.0       0.0       0.0
12 S  pz              0.0       0.0       6.2       0.0       0.0      87.5
12 S  px              0.0       0.0      86.6       0.0       0.0       2.6
12 S  py              0.0       0.0       7.2       0.0       0.0       9.9

                     36        37        38        39        40        41   
                  -5.65216  -4.65207  -4.65070  -4.64924  -4.64465  -4.64426
                   2.00000   2.00000   2.00000   2.00000   2.00000   2.00000
                  --------  --------  --------  --------  --------  --------
 3 P  pz              0.0       2.2      20.3      77.4       0.0       0.0
 3 P  px              0.0       0.1      79.5      20.3       0.0       0.0
 3 P  py              0.0      97.5       0.1       2.2       0.0       0.0
11 P  pz              0.0       0.0       0.0       0.0      64.2      34.5
11 P  px              0.0       0.0       0.0       0.0       3.9      19.0
11 P  py              0.0       0.0       0.0       0.0      31.8      46.4
12 S  pz              6.2       0.0       0.0       0.0       0.0       0.0
12 S  px             10.8       0.0       0.0       0.0       0.0       0.0
12 S  py             83.0       0.0       0.0       0.0       0.0       0.0

                     42        43        44        45        46        47   
                  -4.64281  -0.99401  -0.98360  -0.95207  -0.94303  -0.76375
                   2.00000   2.00000   2.00000   2.00000   2.00000   2.00000
                  --------  --------  --------  --------  --------  --------
 0 C  s               0.0       0.2       0.0       0.3       0.0       0.1
 0 C  pz              0.0       0.1       0.0       0.2       0.0       0.0
 0 C  px              0.0       0.1       0.0       0.2       0.0       0.0
 0 C  py              0.0       0.2       0.0       0.2       0.0       0.0
 1 C  s               0.0       3.8       0.0       4.2       0.0       0.3
 1 C  pz              0.0       0.3       0.0       0.3       0.0       0.0
 1 C  px              0.0       0.3       0.0       0.3       0.0       0.0
 1 C  py              0.0       3.7       0.0       3.1       0.0       0.0
 1 C  dx2y2           0.0       0.2       0.0       0.2       0.0       0.0
 2 O  s               0.0      33.1       0.0      26.2       0.0       0.1
 2 O  px              0.0       1.5       0.0       0.8       0.0       0.0
 2 O  py              0.0       0.2       0.0       0.3       0.0       0.4
 3 P  s               0.0      14.0       0.0       0.1       0.0       2.7
 3 P  pz              0.0       0.0       0.0       0.0       0.0       1.2
 3 P  px              0.0       4.7       0.0       0.1       0.0       0.8
 3 P  py              0.0       0.1       0.0      10.8       0.0       0.0
 3 P  dz2             0.0       0.9       0.0       0.0       0.0       0.2
 3 P  dx2y2           0.0       0.2       0.0       0.0       0.0       0.0
 3 P  dxy             0.0       0.0       0.0       3.3       0.0       0.0
 4 S  s               0.0       0.3       0.0       0.0       0.0       0.6
 4 S  pz              0.0       0.2       0.0       0.0       0.0       0.1
 4 S  px              0.0       0.2       0.0       0.0       0.0       0.1
 5 O  s               0.0      24.0       0.0      34.9       0.0       0.3
 5 O  pz              0.0       0.4       0.0       0.7       0.0       0.0
 5 O  px              0.0       0.0       0.0       0.1       0.0       0.5
 5 O  py              0.0       1.2       0.0       0.4       0.0       0.1
 6 C  s               0.0       2.8       0.0       4.9       0.0       0.5
 6 C  pz              0.0       1.0       0.0       1.4       0.0       0.1
 6 C  px              0.0       2.1       0.0       2.8       0.0       0.0
 6 C  py              0.0       0.2       0.0       0.1       0.0       0.0
 6 C  dxz             0.0       0.2       0.0       0.3       0.0       0.0
 6 C  dx2y2           0.0       0.1       0.0       0.1       0.0       0.0
 7 C  s               0.0       0.2       0.0       0.3       0.0       0.2
 7 C  px              0.0       0.4       0.0       0.5       0.0       0.1
 8 S  s               0.0       0.3       0.0       0.0       0.0      18.9
 8 S  pz              0.0       0.3       0.0       0.0       0.0       0.4
 8 S  px              0.0       0.0       0.0       0.0       0.0       1.0
 8 S  py              0.0       0.0       0.0       0.0       0.0       1.4
 8 S  dxy             0.0       0.0       0.0       0.0       0.0       0.2
 9 C  s               0.0       0.0       0.0       0.0       0.0      26.7
 9 C  pz              0.0       0.0       0.0       0.0       0.0       0.6
 9 C  py              0.0       0.0       0.0       0.0       0.0       1.6
10 S  s               0.0       0.0       0.4       0.0       0.0      18.5
10 S  pz              0.0       0.0       0.1       0.0       0.0       1.4
10 S  px              0.0       0.0       0.0       0.0       0.0       1.3
10 S  py              0.0       0.0       0.3       0.0       0.0       0.1
10 S  dxz             0.0       0.0       0.0       0.0       0.0       0.2
11 P  s               0.0       0.0      14.2       0.0       0.0       2.0
11 P  pz              1.2       0.0       2.3       0.0       5.0       0.5
11 P  px             77.0       0.0       1.7       0.0       1.3       0.3
11 P  py             21.7       0.0       0.8       0.0       4.4       1.3
11 P  dz2             0.0       0.0       0.1       0.0       2.3       0.0
11 P  dyz             0.0       0.0       0.3       0.0       0.1       0.1
11 P  dxy             0.0       0.0       0.6       0.0       0.9       0.1
12 S  s               0.0       0.0       0.3       0.0       0.0       0.2
12 S  px              0.0       0.0       0.4       0.0       0.0       0.1
13 O  s               0.0       0.0      29.6       0.0      29.3       0.2
[...]
 1 C  px              0.0       0.0       0.2       0.0
 1 C  py              0.4       0.0       1.8       0.0
 1 C  dz2             0.2       0.0       0.9       0.0
 1 C  dxz             0.0       0.0       0.1       0.0
 1 C  dyz             0.2       0.0       1.1       0.0
 1 C  dx2y2           0.8       0.0       3.2       0.0
 1 C  dxy             0.1       0.0       1.1       0.0
 2 O  s               0.0       0.0       0.2       0.0
 2 O  pz              0.0       0.0       0.2       0.0
 2 O  py              1.4       0.0       4.7       0.0
 2 O  dz2             0.0       0.0       0.5       0.0
 2 O  dxz             0.2       0.0       1.3       0.0
 2 O  dyz             0.9       0.0       2.4       0.0
 2 O  dx2y2           0.5       0.0       8.1       0.0
 2 O  dxy            10.1       0.0      36.4       0.1
 3 P  s               0.6       0.0       0.0       0.0
 3 P  px              0.4       0.0       0.0       0.0
 3 P  py              0.2       0.0       3.0       0.0
 3 P  dyz             0.3       0.0       0.0       0.0
 3 P  dx2y2           0.0       0.0       0.4       0.0
 3 P  dxy             0.0       0.0       1.6       0.0
 5 O  s               3.3       0.0       0.3       0.0
 5 O  pz              0.8       0.0       0.1       0.0
 5 O  px              2.3       0.0       1.8       0.0
 5 O  py              0.2       0.0       1.0       0.0
 5 O  dz2             0.0       0.0       4.0       0.0
 5 O  dxz            39.8       0.0       5.5       0.0
 5 O  dyz             0.8       0.0       0.5       0.0
 5 O  dx2y2          17.8       0.0       7.0       0.0
 5 O  dxy             1.5       0.0       7.9       0.0
 6 C  s               1.6       0.0       0.3       0.0
 6 C  pz              0.9       0.0       0.1       0.0
 6 C  px              2.2       0.0       0.4       0.0
 6 C  dxz             7.8       0.0       0.8       0.0
 6 C  dyz             0.1       0.0       0.2       0.0
 6 C  dx2y2           2.9       0.0       0.5       0.0
 6 C  dxy             0.5       0.0       0.2       0.0
 7 C  dz2             0.1       0.0       0.0       0.0
 7 C  dx2y2           0.1       0.0       0.0       0.0
11 P  s               0.0       0.6       0.0       0.0
11 P  pz              0.0       0.2       0.0       1.4
11 P  px              0.0       0.1       0.0       0.2
11 P  py              0.0       0.1       0.0       0.8
11 P  dz2             0.0       0.1       0.0       1.2
11 P  dxz             0.0       0.3       0.0       0.1
11 P  dxy             0.0       0.3       0.0       0.1
13 O  s               0.0       0.2       0.0       0.6
13 O  pz              0.0       0.6       0.0       1.4
13 O  px              0.0       0.1       0.0       0.4
13 O  py              0.0       0.9       0.0       2.7
13 O  dz2             0.0       5.4       0.0      15.4
13 O  dyz             0.0      10.4       0.1      23.4
13 O  dx2y2           0.0       1.1       0.0       2.3
13 O  dxy             0.0       1.9       0.0       5.3
14 C  s               0.0       0.5       0.0       1.3
14 C  pz              0.0       0.6       0.0       1.4
14 C  py              0.0       0.3       0.0       0.8
14 C  dz2             0.0       0.3       0.0       0.6
14 C  dyz             0.0       2.3       0.0       5.2
14 C  dx2y2           0.0       0.4       0.0       1.0
16 O  s               0.0       2.1       0.0       0.1
16 O  pz              0.0       2.9       0.0       2.7
16 O  px              0.0       0.7       0.0       0.2
16 O  py              0.0       0.3       0.0       0.0
16 O  dz2             0.0       1.2       0.0       4.4
16 O  dxz             0.0      28.4       0.0       6.2
16 O  dyz             0.0      15.1       0.0      13.6
16 O  dx2y2           0.0       1.0       0.0       0.6
16 O  dxy             0.0       6.9       0.0       1.6
17 C  s               0.0       1.6       0.0       0.4
17 C  pz              0.0       1.5       0.0       0.5
17 C  px              0.0       0.8       0.0       0.2
17 C  py              0.0       0.5       0.0       0.1
17 C  dz2             0.0       1.0       0.0       0.5
17 C  dxz             0.0       4.8       0.0       1.2
17 C  dyz             0.0       2.2       0.0       0.5
17 C  dx2y2           0.0       0.3       0.0       0.1
17 C  dxy             0.0       1.4       0.0       0.1
18 C  dyz             0.0       0.1       0.0       0.0
18 C  dx2y2           0.0       0.1       0.0       0.0


                      *****************************
                      * MAYER POPULATION ANALYSIS *
                      *****************************

  NA   - Mulliken gross atomic population
  ZA   - Total nuclear charge
  QA   - Mulliken gross atomic charge
  VA   - Mayer's total valence
  BVA  - Mayer's bonded valence
  FA   - Mayer's free valence

  ATOM       NA         ZA         QA         VA         BVA        FA
  0 C      6.3786     6.0000    -0.3786     3.9824     3.9824     0.0000
  1 C      5.9943     6.0000     0.0057     3.9923     3.9923     0.0000
  2 O      8.3807     8.0000    -0.3807     2.1797     2.1797     0.0000
  3 P     14.4034    15.0000     0.5966     4.9790     4.9790    -0.0000
  4 S     16.2985    16.0000    -0.2985     2.0717     2.0717    -0.0000
  5 O      8.3586     8.0000    -0.3586     2.1626     2.1626    -0.0000
  6 C      6.0129     6.0000    -0.0129     4.0003     4.0003     0.0000
  7 C      6.2943     6.0000    -0.2943     3.9896     3.9896     0.0000
  8 S     16.1042    16.0000    -0.1042     2.2832     2.2832    -0.0000
  9 C      6.3506     6.0000    -0.3506     3.8090     3.8090     0.0000
 10 S     16.0812    16.0000    -0.0812     2.2360     2.2360    -0.0000
 11 P     14.3749    15.0000     0.6251     4.9448     4.9448    -0.0000
 12 S     16.3231    16.0000    -0.3231     2.0381     2.0381     0.0000
 13 O      8.3676     8.0000    -0.3676     2.1928     2.1928    -0.0000
 14 C      6.0083     6.0000    -0.0083     3.9942     3.9942     0.0000
 15 C      6.3182     6.0000    -0.3182     3.9981     3.9981     0.0000
 16 O      8.3713     8.0000    -0.3713     2.1867     2.1867     0.0000
 17 C      5.9958     6.0000     0.0042     3.9972     3.9972     0.0000
 18 C      6.3208     6.0000    -0.3208     3.9975     3.9975     0.0000
 19 H      0.8851     1.0000     0.1149     0.9535     0.9535     0.0000
 20 H      0.8854     1.0000     0.1146     0.9583     0.9583     0.0000
 21 H      0.8172     1.0000     0.1828     0.9779     0.9779     0.0000
 22 H      0.8853     1.0000     0.1147     0.9813     0.9813     0.0000
 23 H      0.8949     1.0000     0.1051     0.9474     0.9474     0.0000
 24 H      0.8910     1.0000     0.1090     0.9482     0.9482     0.0000
 25 H      0.8992     1.0000     0.1008     0.9831     0.9831     0.0000
 26 H      0.8790     1.0000     0.1210     0.9582     0.9582     0.0000
 27 H      0.8897     1.0000     0.1103     0.9543     0.9543     0.0000
 28 H      0.8765     1.0000     0.1235     0.9806     0.9806    -0.0000
 29 H      0.7913     1.0000     0.2087     0.9844     0.9844    -0.0000
 30 H      0.8180     1.0000     0.1820     0.9280     0.9280     0.0000
 31 H      0.8883     1.0000     0.1117     0.9856     0.9856     0.0000
 32 H      0.8945     1.0000     0.1055     0.9468     0.9468    -0.0000
 33 H      0.8753     1.0000     0.1247     0.9770     0.9770     0.0000
 34 H      0.8892     1.0000     0.1108     0.9545     0.9545    -0.0000
 35 H      0.8771     1.0000     0.1229     0.9692     0.9692    -0.0000
 36 H      0.8891     1.0000     0.1109     0.9798     0.9798     0.0000
 37 H      0.8917     1.0000     0.1083     0.9550     0.9550    -0.0000
 38 H      0.8836     1.0000     0.1164     0.9771     0.9771     0.0000
 39 H      0.8918     1.0000     0.1082     0.9538     0.9538    -0.0000
 40 H      0.8698     1.0000     0.1302     0.9795     0.9795    -0.0000

  Mayer bond orders larger than 0.100000
B(  0-C ,  1-C ) :   1.1644 B(  0-C , 19-H ) :   0.9366 B(  0-C , 20-H ) :   0.9427 
B(  0-C , 21-H ) :   0.9103 B(  1-C ,  2-O ) :   0.9024 B(  1-C , 22-H ) :   0.9164 
B(  1-C , 23-H ) :   0.9323 B(  2-O ,  3-P ) :   1.0880 B(  3-P ,  4-S ) :   1.6384 
B(  3-P ,  5-O ) :   1.1294 B(  3-P ,  8-S ) :   0.9590 B(  4-S ,  8-S ) :   0.1121 
B(  5-O ,  6-C ) :   0.9002 B(  6-C ,  7-C ) :   1.1643 B(  6-C , 24-H ) :   0.9362 
B(  6-C , 25-H ) :   0.9071 B(  7-C , 26-H ) :   0.9472 B(  7-C , 27-H ) :   0.9391 
B(  7-C , 28-H ) :   0.9412 B(  8-S ,  9-C ) :   0.9790 B(  9-C , 10-S ) :   1.0046 
B(  9-C , 29-H ) :   0.8561 B(  9-C , 30-H ) :   0.9107 B( 10-S , 11-P ) :   0.9614 
B( 11-P , 12-S ) :   1.6433 B( 11-P , 13-O ) :   1.0690 B( 11-P , 16-O ) :   1.1220 
B( 13-O , 14-C ) :   0.9069 B( 14-C , 15-C ) :   1.1655 B( 14-C , 31-H ) :   0.9132 
B( 14-C , 32-H ) :   0.9287 B( 15-C , 33-H ) :   0.9365 B( 15-C , 34-H ) :   0.9384 
B( 15-C , 35-H ) :   0.9407 B( 16-O , 17-C ) :   0.8982 B( 17-C , 18-C ) :   1.1683 
B( 17-C , 36-H ) :   0.9184 B( 17-C , 37-H ) :   0.9299 B( 18-C , 38-H ) :   0.9381 
B( 18-C , 39-H ) :   0.9380 B( 18-C , 40-H ) :   0.9351 

-------
TIMINGS
-------

Total SCF time: 0 days 0 hours 0 min 17 sec 

Total time                  ....      17.587 sec
Sum of individual times     ....      17.122 sec  ( 97.4%)

SCF preparation             ....       0.275 sec  (  1.6%)
Fock matrix formation       ....      15.653 sec  ( 89.0%)
  Startup                   ....       0.060 sec  (  0.4% of F)
  Split-RI-J                ....       9.404 sec  ( 60.1% of F)
  XC integration            ....       5.696 sec  ( 36.4% of F)
    XC Preparation          ....       0.000 sec  (  0.0% of XC)
    Basis function eval.    ....       2.197 sec  ( 38.6% of XC)
    Density eval.           ....       1.137 sec  ( 20.0% of XC)
    XC-Functional eval.     ....       0.411 sec  (  7.2% of XC)
    XC-Potential eval.      ....       1.281 sec  ( 22.5% of XC)
Diagonalization             ....       0.000 sec  (  0.0%)
Density matrix formation    ....       0.270 sec  (  1.5%)
Total Energy calculation    ....       0.041 sec  (  0.2%)
Population analysis         ....       0.206 sec  (  1.2%)
Orbital Transformation      ....       0.091 sec  (  0.5%)
Orbital Orthonormalization  ....       0.000 sec  (  0.0%)
DIIS solution               ....       0.466 sec  (  2.6%)
  MO trafo                  ....       0.000 sec  (  0.0 % of DIIS)
  Orb grad                  ....       0.000 sec  (  0.0 % of DIIS)
  Energy W gradient         ....       0.000 sec  (  0.0 % of DIIS)
  DIIS error                ....       0.021 sec  (  4.5 % of DIIS)
  DIIS work                 ....       0.377 sec  ( 81.0 % of DIIS)
  Form Q                    ....       0.000 sec  (  0.0 % of DIIS)
  Form QpQm                 ....       0.000 sec  (  0.0 % of DIIS)
  Exp/Cayley                ....       0.000 sec  (  0.0 % of DIIS)
  Orb update                ....       0.000 sec  (  0.0 % of DIIS)
  Wake-sleep                ....       0.020 sec  (  4.2 % of DIIS)
SOSCF solution              ....       0.121 sec  (  0.7%)
  MO trafo                  ....       0.068 sec  ( 55.8 % of SOSCF)
  Orb grad                  ....       0.001 sec  (  1.1 % of SOSCF)
  Rot update                ....       0.014 sec  ( 11.3 % of SOSCF)
  Step                      ....       0.038 sec  ( 31.7 % of SOSCF)
Finished LeanSCF after  17.7 sec

Maximum memory used throughout the entire LEANSCF-calculation: 35.2 MB


-------------------------------------------------------------------------------
                          DFT DISPERSION CORRECTION                            
                                                                               
                                DFTD4 V3.4.0                                   
-------------------------------------------------------------------------------
The PBE functional is recognized
Active option DFTDOPT                   ...         5   

-------------------------   ----------------
Dispersion correction           -0.066879899
-------------------------   ----------------

------------------   -----------------
gCP correction             0.187721514
------------------   -----------------

-------------------------   --------------------
FINAL SINGLE POINT ENERGY     -2929.519108589533
-------------------------   --------------------


------------------------------------------------------------------------------
                              ORCA PROPERTY CALCULATIONS
------------------------------------------------------------------------------

GBWName                                 ... sp.gbw
Number of atoms                         ...     41
Number of basis functions               ...    334
Max core memory                         ...   1024 MB

Electric properties:
Dipole moment                           ... YES
Quadrupole moment                       ...  NO
Static polarizability (Dipole/Dipole)   ...  NO
Static polarizability (Dipole/Quad.)    ...  NO
Static polarizability (Quad./Quad.)     ...  NO
Static polarizability (Velocity)        ...  NO

Atomic electric properties:
Dipole moment                           ...  NO
Quadrupole moment                       ...  NO
Static polarizability                   ...  NO

Choice of electric origin               ... Center of mass
Position of electric origin             ...     0.000002     0.000007    -0.000003

General magnetic properties:
Magnetizability                         ...  NO

EPR properties:
g-Tensor (aka g-matrix)                 ...  NO
Zero-Field splitting spin-orbit         ...  NO
Zero-field splitting spin-spin          ...  NO
Hyperfine couplings                     ...  NO (   0 nuclei)
Quadrupole couplings                    ...  NO (   0 nuclei)
Contact density                         ...  NO (   0 nuclei)

NMR properties:
Chemical shifts                         ...  NO (   0 nuclei)
Spin-rotation constants                 ...  NO (   0 nuclei)
Spin-spin couplings                     ...  NO (   0 nuclei,    0 pairs)

Choice of magnetic origin               ... GIAO
Position of magnetic origin             ...     0.000000     0.000000     0.000000

Properties with geometric perturbations:
SCF Hessian                             ...  NO
IR spectrum                             ...  NO
VCD spectrum                            ...  NO
X-ray spectroscopy properties:
SCF XES/XAS/RIXS spectra                ...  NO


-------------
DIPOLE MOMENT
-------------

Method             : SCF
Type of density    : Electron Density
Multiplicity       :   1
Irrep              :   0
Energy             : -2929.6399502044100700 Eh
Relativity type    : 
Basis              : AO
                                X                 Y                 Z
Electronic contribution:    -13.185628080     -14.835258800      -2.253348312
Nuclear contribution   :     15.045365040      15.562915882       2.157450439
                        -----------------------------------------
Total Dipole Moment    :      1.859736961       0.727657082      -0.095897873
                        -----------------------------------------
Magnitude (a.u.)       :      1.999325585
Magnitude (Debye)      :      5.081881773



--------------------
Rotational spectrum 
--------------------
 
Rotational constants in cm-1:             0.012710             0.005204             0.004959 
Rotational constants in MHz :           381.038944           156.025965           148.654356 

Dipole components along the rotational axes: 
x,y,z [a.u.] :    -1.553551    -0.300545    -1.222069 
x,y,z [Debye]:    -3.948814    -0.763925    -3.106253 

 

Dipole moment calculation done in   0.0 sec 

Maximum memory used throughout the entire PROP-calculation: 24.5 MB

--------------------------------
SUGGESTED CITATIONS FOR THIS RUN
--------------------------------

Below you find a list of papers that are relevant to this ORCA run
We neither can nor want to force you to cite these papers, but we appreciate if you do
You receive ORCA, which is the product of decades of hard work by many enthusiastic individuals, for free
The only thing we kindly ask in return is that you cite our papers,
We deeply appreciate it, if you show your appreciation for ORCA by not just citing the generic ORCA reference.

Please note that relegating all ORCA citations to the supporting information does *not* help us.
SI sections are not indexed - citations you put there will not count into any citation statistics
But we need these citations in order to attract the funding resources that allow us to do what we are doing

Therefore, if you are a happy ORCA user, please consider citing a few of the papers listed below in the main body of your paper

In addition to the list printed below, the program has created the file sp.bibtex that contains the list in bibtex format
You can import this file easily into all common literature databanks and citation aid programs


List of essential papers. We consider these as the minimum necessary citations

  1. Neese,F.
     Software update: the ORCA program system, version 5.0
     WIRES Comput. Molec. Sci., 2022 12(1)e1606
     doi.org/10.1002/wcms.1606

List of papers to cite with high priority. The work reported in these papers was absolutely
necessary for this run to complete.
Our perspective: the developers of density functionals and basis sets usually get cited in chemistry papers
Good! But without the algorithms to do something with them, the functionals or basis sets would not do anything.
Hence, in our opinion, the algorithm design and method developments papers are equally worthy of getting cited

  1. Neese,F.
     An improvement of the resolution of the identity approximation for the formation of the Coulomb matrix
     J. Comp. Chem., 2003 24(14)1740-1747
     doi.org/10.1002/jcc.10318
  2. Neese,F.
     The SHARK Integral Generation and Digestion System
     J. Comp. Chem., 2022  1-16
     doi.org/10.1002/jcc.26942
  3. Caldeweyher,E.; Bannwarth,C.; Grimme,S.
     Extension of the D3 dispersion coefficient model
     J. Chem. Phys., 2017 147 034112-XXXX
     doi.org/10.1063/1.4993215
  4. Caldeweyher,E.; Ehlert,S.; Hansen,A.; Neugebauer,H.; Spicher,S.; Bannwarth,C.; Grimme,S.
     A generally applicable atomic-charge dependent London dispersion correction
     J. Chem. Phys., 2019 150 154122-XXXX
     doi.org/10.1063/1.5090222
  5. Caldeweyher,E.; Mewes,J.; Ehlert,S.; Grimme,S.
     Extension and evaluation of the D4 London-dispersion model for periodic systems
     Phys. Chem. Chem. Phys., 2020 22(16)8499-8512
     doi.org/10.1039/D0CP00502A

List of suggested additional citations. These are papers that are important in the 'surrounding' of 
of this run, or papers that preceded the highly important papers. If you like your results we are grateful for a citation.

  1. Neese,F.
     The ORCA program system
     WIRES Comput. Molec. Sci., 2012 2(1)73-78
     doi.org/10.1002/wcms.81
  2. Neese,F.
     Software update: the ORCA program system, version 4.0
     WIRES Comput. Molec. Sci., 2018 8(1)1-6
     doi.org/10.1002/wcms.1327
  3. Neese,F.; Wennmohs,F.; Becker,U.; Riplinger,C.
     The ORCA quantum chemistry program package
     J. Chem. Phys., 2020 152 Art. No. L224108
     doi.org/10.1063/5.0004608

List of optional additional citations

  1. Neese,F.
     Approximate second-order SCF convergence for spin unrestricted wavefunctions
     Chem. Phys. Lett., 2000 325(1-3)93-98
     doi.org/10.1016/s0009-2614(00)00662-x

Timings for individual modules:

Sum of individual times          ...       21.330 sec (=   0.356 min)
Startup calculation              ...        1.595 sec (=   0.027 min)   7.5 %
SCF iterations                   ...       19.624 sec (=   0.327 min)  92.0 %
Property calculations            ...        0.111 sec (=   0.002 min)   0.5 %
                             ****ORCA TERMINATED NORMALLY****
TOTAL RUN TIME: 0 days 0 hours 0 minutes 22 seconds 197 msec
