38
 energy: -64.700759488655 gnorm: 0.055255572650 xtb: 6.7.1 (edcfbbe)
C            2.09259372424212       -3.29617008216581       -2.73860904827896
C            3.15299457359087       -2.93634024157802       -1.72134894279644
O            2.86020550582102       -1.61653347969481       -1.16090418859075
C            2.18108229867414       -1.55924772588960       -0.00589976287491
O            1.86134148847583       -2.52796633059383        0.66093210016102
C            1.86570783572555       -0.13171397594944        0.36350316630108
C            0.90812569364123        0.50760555784184       -0.64543298861617
H            1.41099121789768        0.57876146889721       -1.61977807179657
C            0.49814618990395        1.94274227901524       -0.32141680129645
O           -0.46886431543845        2.50325829022262       -0.80173662211992
O            1.39096512449267        2.51727377568147        0.47818450563468
C            1.16656250976126        3.92697375726529        0.81555827361162
C            2.44425267940173        4.44027269854178        1.42668954564553
S           -0.55197281433248       -0.56370638907579       -1.04458289389925
P           -1.91544164365615       -0.19830090054368        0.54698853888380
S           -1.18546769152407        0.49621900867265        2.20438948267946
O           -3.08400887389475        0.74612058279357       -0.01339812056361
C           -3.73940919605568        0.47660814495737       -1.28652376966176
O           -2.69044735906389       -1.61208347216226        0.58723588585876
C           -2.05747346401766       -2.78667955122151        1.16688728362710
H            2.34134514340338       -4.26193789921317       -3.18971024831326
H            1.10851995688351       -3.37873804257145       -2.26487559642411
H            2.04555772284507       -2.54318516524584       -3.53208879617562
H            4.13827005776800       -2.82526228040790       -2.18072888928510
H            3.20959507191150       -3.66596635808517       -0.90949177478345
H            2.79790724283565        0.44094646725536        0.36442763311835
H            1.43776767194742       -0.12304461307609        1.36507903399905
H            0.89947836275364        4.46398070295729       -0.09827154463168
H            0.32488828896998        3.96323450347111        1.51517737353113
H            2.28693763393368        5.47042593685051        1.76344906694679
H            2.73823195869636        3.83511262460266        2.29008319091435
H            3.25787158407356        4.43543041060910        0.69367198922526
H           -3.02397990799945        0.58421497783671       -2.10663482170834
H           -4.52201151375934        1.23004347509500       -1.37510780265930
H           -4.17941822707482       -0.52372985586824       -1.28678696879447
H           -1.12549529944386       -3.01921072031339        0.64222686409377
H           -2.77387677107889       -3.59810030589950        1.03753983892540
H           -1.86317747612175       -2.61950298430946        2.23019953866943
38
 energy: -64.704829948451 gnorm: 0.025034799835 xtb: 6.7.1 (edcfbbe)
C            2.09339925027608       -3.29864792429761       -2.74146064815668
C            3.14808346479770       -2.92498368677287       -1.71962075370805
O            2.85411845776529       -1.61979220311549       -1.15457340638376
C            2.17033221216435       -1.56182292282060       -0.01669998184998
O            1.83994207367317       -2.52666759274295        0.63491563520137
C            1.86364617490309       -0.13140002206226        0.36688716246023
C            0.92676824097830        0.50435022436762       -0.65671394917728
H            1.42513500466750        0.57154560920875       -1.63177815593393
C            0.48720534079919        1.91799840414416       -0.30149994841235
O           -0.50334326306638        2.44848926361712       -0.75507149609387
O            1.37477250421908        2.50984043980737        0.47457688668731
C            1.16065179267643        3.90944582758618        0.81668478496510
C            2.43794570982183        4.44049352085532        1.42661828055978
S           -0.52875396259400       -0.54881336992554       -1.06143499766389
P           -1.88838665005436       -0.18982832927111        0.52107362025364
S           -1.18401091844066        0.50023904729192        2.20694304870951
O           -3.05761795680925        0.74582763751152       -0.03235240286778
C           -3.73014729903113        0.47575802027621       -1.28509586467398
O           -2.66852812559855       -1.59656126318666        0.59091415476136
C           -2.04986726572428       -2.76758971401574        1.16437996418824
H            2.34244736853274       -4.25930605067983       -3.18759287225692
H            1.11524887955686       -3.37330061732375       -2.26828505648123
H            2.04371243423267       -2.54615784166274       -3.52570497118378
H            4.13204284553531       -2.81139192300344       -2.17784098774700
H            3.19416285304730       -3.65119724221675       -0.90448551617545
H            2.79294030979030        0.44154234815808        0.37726734918221
H            1.42053782976298       -0.12207478868132        1.36386613332548
H            0.88455207145890        4.44353025800209       -0.09606209233211
H            0.32279098451527        3.94847507731881        1.51829352178394
H            2.28141850091841        5.46507725272335        1.75858863833393
H            2.72644815959280        3.83529009810050        2.28306204417743
H            3.24617013182233        4.42699423829219        0.69818510873397
H           -3.02021144638287        0.57715590748716       -2.10603322932224
H           -4.50790045791536        1.23323265789264       -1.35790255944348
H           -4.16365617157340       -0.52337562012103       -1.27115041789299
H           -1.12184735941324       -3.00134210710973        0.64154822680237
H           -2.77389949657793       -3.56958112374245        1.03430003872963
H           -1.84800723813792       -2.59964720118716        2.22215036745771
38
 energy: -64.706596214401 gnorm: 0.011880965248 xtb: 6.7.1 (edcfbbe)
C            2.09168216493683       -3.29600312156218       -2.74374935034808
C            3.14456223867300       -2.91473408802026       -1.71712642042228
O            2.84817220668325       -1.62425186123081       -1.14790025303092
C            2.16382950341441       -1.57045195824590       -0.02263560791139
O            1.80832534328185       -2.53566092675853        0.61114375752193
C            1.86156533440156       -0.13665315373864        0.37024746146970
C            0.93605371099820        0.49676148315481       -0.66070288248918
H            1.44103341539214        0.56597284255231       -1.63041296119111
C            0.47697085200769        1.89710534922278       -0.28682117064362
O           -0.56194175659286        2.38691828205879       -0.68602932467648
O            1.36300404257998        2.50578931783402        0.46217249023736
C            1.14288062115022        3.88941384088208        0.81873990045116
C            2.42405983194019        4.43076771606294        1.42434901266564
S           -0.50726449075758       -0.55154284043131       -1.07929016990335
P           -1.85548539350449       -0.16417798973776        0.50177961338662
S           -1.15700683477882        0.51765304190340        2.19575945768322
O           -3.02424034476986        0.75644579002025       -0.05000013909705
C           -3.71424420665351        0.47948975679163       -1.28365894780039
O           -2.63305584594471       -1.56741315058763        0.59195851891335
C           -2.03206837371295       -2.73888301576080        1.15717293725663
H            2.34602114716975       -4.25278659886703       -3.18379377384371
H            1.11723588317957       -3.36891909512504       -2.26973872820291
H            2.04074764275886       -2.54384000138294       -3.52338271499533
H            4.12600830008234       -2.79788346595684       -2.17683826883239
H            3.18612326414043       -3.64521456825726       -0.90493803582381
H            2.78873170689995        0.43639162091844        0.39613688712063
H            1.40102057523430       -0.13018563018744        1.36025841486493
H            0.85484290220274        4.42949300619395       -0.08799751476802
H            0.31188999755914        3.92692216814458        1.52824657185513
H            2.26159320384524        5.45111837275049        1.75057545809140
H            2.71080829369043        3.82673991004414        2.27775713648601
H            3.22649836279697        4.41362113180406        0.69532282206941
H           -3.01777121053484        0.57223935494700       -2.11514831556883
H           -4.49024407349959        1.23744680178543       -1.34550034725710
H           -4.14554432393175       -0.51839219511635       -1.25554473518099
H           -1.10544951477779       -2.98227030991903        0.63982605122432
H           -2.76426988221490       -3.53162711133921        1.02494524905108
H           -1.82677930915682       -2.57759441614396        2.21371358019494
38
 energy: -64.707198288764 gnorm: 0.010479100930 xtb: 6.7.1 (edcfbbe)
C            2.09187563079965       -3.29177227901481       -2.74631274270368
C            3.14638814750951       -2.91179100593090       -1.71736991121298
O            2.84922654063204       -1.62838765931292       -1.14308680011705
C            2.15380475728951       -1.58017163158869       -0.02791508001518
O            1.77778981373270       -2.54674175522111        0.59549830478524
C            1.86146481004368       -0.14504639872307        0.37442384748179
C            0.94574367365474        0.49226520004270       -0.66338957722814
H            1.46574506018245        0.57852829720184       -1.62397484867237
C            0.46178727110990        1.87739605899290       -0.26250246840042
O           -0.60115167634166        2.34089938564735       -0.63323109736255
O            1.36021207602558        2.50494382374548        0.44950828197885
C            1.12609026087073        3.87775028941854        0.81863793962665
C            2.40941516270018        4.42354433238822        1.42047415862695
S           -0.49203677960527       -0.55211473633392       -1.09164879098863
P           -1.83687929734145       -0.14359832555863        0.49053589204362
S           -1.12634476290085        0.53879049636763        2.17881258152612
O           -3.00420112004221        0.76777652838457       -0.05973517762568
C           -3.70601540203544        0.48506500443197       -1.28335735194885
O           -2.61242357225221       -1.54501909340182        0.59658374320739
C           -2.01755063638312       -2.71821984307588        1.15411838722693
H            2.34841848852135       -4.24802448539774       -3.18531039609900
H            1.11779555724385       -3.36560691570324       -2.27081555549741
H            2.04079655549680       -2.53828579063655       -3.52508044984015
H            4.12668186071345       -2.79381113588312       -2.17864200606210
H            3.18761867734005       -3.65041220514442       -0.91181039425599
H            2.79003385131228        0.42419817308451        0.41390650077996
H            1.39005984925324       -0.14409279121360        1.35937986792908
H            0.82477729066336        4.42746725710646       -0.07910960732904
H            0.30168637428270        3.90537459596438        1.53728105812433
H            2.24282766556808        5.44352638047064        1.74466480093485
H            2.69839942356254        3.81998582233269        2.27389449543805
H            3.20845501483236        4.40551292498852        0.68763710932166
H           -3.01989283325211        0.57148610798049       -2.12499874157528
H           -4.48227901157038        1.24260430810849       -1.34173282485468
H           -4.13737690336746       -0.51295695982621       -1.24607025904176
H           -1.09182107511764       -2.96785005468417        0.63621135981185
H           -2.75332482820976       -3.50751971588700        1.02165027354767
H           -1.80750093073260       -2.56388791541722        2.21177113699652
38
 energy: -64.707444876827 gnorm: 0.008315795714 xtb: 6.7.1 (edcfbbe)
C            2.09253763231277       -3.28881801026163       -2.74926003081596
C            3.14948551544399       -2.91463193894214       -1.71998679611900
O            2.85531428945913       -1.63341685283575       -1.13870150043396
C            2.14838041628447       -1.58945264085646       -0.02944524721580
O            1.75840773431281       -2.55689417037339        0.58626425466603
C            1.85996635505829       -0.15534877626341        0.37803828626136
C            0.94750698323601        0.48834196310575       -0.66143171803733
H            1.47952546610110        0.58682738076163       -1.61430434402880
C            0.46064558890759        1.87057698746659       -0.25766783919787
O           -0.61784298897719        2.31712612525734       -0.60244022012069
O            1.36651628106137        2.50881671802104        0.43287373916257
C            1.11419203555191        3.87296192314796        0.82088347768764
C            2.39648654817480        4.42236984237102        1.42073231411956
S           -0.48658922853444       -0.55529889001059       -1.10120337219293
P           -1.82720493036067       -0.12906818820327        0.48407560377773
S           -1.11117525223624        0.55562450415480        2.16989560687877
O           -2.99614155446621        0.77556791262785       -0.06374146769594
C           -3.70440023398387        0.48935190317762       -1.28372671791311
O           -2.60054813804744       -1.53039302940561        0.60068679397655
C           -2.00529323625984       -2.70530127520824        1.15392031375574
H            2.34719269226287       -4.24541746518326       -3.19140732368814
H            1.11796395887187       -3.36310776000441       -2.27254843411860
H            2.04184116579994       -2.53310221573596       -3.52737692107605
H            4.12929626493741       -2.79577256061822       -2.18266790453481
H            3.19270524395417       -3.65965172880372       -0.92016769791141
H            2.79055183600443        0.40985027819153        0.42352335040250
H            1.38542717604418       -0.15728192801238        1.36077616309650
H            0.80304712613776        4.43234688844780       -0.06779794676190
H            0.29234799176196        3.88283029641367        1.54396551812285
H            2.22848912613704        5.44290394231019        1.74603463550684
H            2.69033671714071        3.81841973788069        2.27353995603425
H            3.19364892769985        4.40629861354623        0.68420498326562
H           -3.02329898103648        0.57339726095200       -2.13051774502944
H           -4.48176709629010        1.24625739065725       -1.34177407911258
H           -4.13541659112865       -0.50943069595668       -1.24203199506680
H           -1.07998044549981       -2.95590161811015        0.63345300587640
H           -2.74148976111488       -3.49460575441065        1.02149874478961
H           -1.79236965053211       -2.55516988059256        2.21272821224720
38
 energy: -64.707559752302 gnorm: 0.003871546618 xtb: 6.7.1 (edcfbbe)
C            2.09288381243025       -3.28698573174372       -2.75175081154264
C            3.15257792350185       -2.92032727032528       -1.72358595016120
O            2.86292273410930       -1.63878502115818       -1.13632055469072
C            2.14582931290662       -1.59703931926457       -0.03130650129047
O            1.74808924228554       -2.56498419864538        0.57839006387165
C            1.86029629847778       -0.16429275966506        0.37949796920132
C            0.95091092392531        0.48677322388947       -0.66042488387783
H            1.48958005083451        0.59180049186283       -1.60860247863413
C            0.46302386368658        1.86800594343562       -0.25517696072155
O           -0.61996268840379        2.30690028007990       -0.58534967833717
O            1.37660478144046        2.51438037066408        0.41761132641962
C            1.10976262300340        3.87289306121940        0.82164318247760
C            2.38809501958989        4.42590513145830        1.42312825721768
S           -0.48694248572419       -0.55002454015542       -1.10219496821150
P           -1.82882641700992       -0.12186969155797        0.48296397034064
S           -1.10966835863487        0.56381457504231        2.16685480163946
O           -3.00086686421538        0.77763587890284       -0.06338071145975
C           -3.70790500169112        0.49139050058439       -1.28527794229498
O           -2.59833358167785       -1.52497709750494        0.60542165023724
C           -1.99670208997579       -2.69941411501496        1.15592292866747
H            2.34351850606385       -4.24373597908139       -3.19829619962684
H            1.11793007024894       -3.36076690109082       -2.27430270419949
H            2.04310215863425       -2.52908602045006       -3.52878611950865
H            4.13206887228580       -2.80069812130322       -2.18747373690600
H            3.19776249372500       -3.66869310417649       -0.92715382124402
H            2.79283849513447        0.39753923959536        0.42681074019726
H            1.38510711021427       -0.16754755319745        1.36146354266691
H            0.79099064457608        4.43934650587632       -0.05943432475266
H            0.28838496069625        3.86303029424091        1.54576835446684
H            2.21849554499298        5.44653333772001        1.75013991415337
H            2.68594021243721        3.82220514431633        2.27561734765518
H            3.18515639235121        4.41322334557488        0.68528207004829
H           -3.02625340339773        0.57683945860122       -2.13151506292030
H           -4.48624781254013        1.24764084944455       -1.34435446924232
H           -4.13791760884898       -0.50808133197751       -1.24421353743181
H           -1.07107797458365       -2.94525608902866        0.63271005949798
H           -2.73005517425009       -3.49151991705591        1.02356891065285
H           -1.78281760240995       -2.54996858140921        2.21500198619923
38
 energy: -64.707611178257 gnorm: 0.004169295230 xtb: 6.7.1 (edcfbbe)
C            2.09271745824369       -3.28640944380402       -2.75320805920862
C            3.15425360709547       -2.92482412050114       -1.72643140603720
O            2.86830679316585       -1.64251743477612       -1.13567132277356
C            2.14450655797777       -1.60113752300605       -0.03393579453849
O            1.74263609222451       -2.56955849762287        0.57087280765421
C            1.86056591616322       -0.16913091866667        0.37874952334359
C            0.95144343939899        0.48519051225153       -0.66025161611252
H            1.49001556767930        0.58989590338766       -1.60779806677119
C            0.46599268777230        1.86764023737824       -0.25456397076034
O           -0.62708477914925        2.30000658766670       -0.56397560782661
O            1.38704112566295        2.51988640203382        0.40340280493761
C            1.11105781054815        3.87408394559421        0.82112648144957
C            2.38469469302147        4.43084582355268        1.42640004161889
S           -0.48906144620483       -0.54753107434307       -1.10261245457772
P           -1.83098116573089       -0.11888877684523        0.48331691774991
S           -1.11520870213722        0.56667844070018        2.16934580418256
O           -3.00627212918749        0.77686701370365       -0.06280870585838
C           -3.71037328929113        0.49176785847294       -1.28761215284797
O           -2.59752916601032       -1.52375708006983        0.60736686185242
C           -1.99073623302618       -2.69670548997687        1.15795791950506
H            2.33962841036070       -4.24291478375416       -3.20293638729795
H            1.11797900097470       -3.35885313124064       -2.27521387365249
H            2.04384766600946       -2.52691364591173       -3.52872104958107
H            4.13340268465706       -2.80489074124509       -2.19120837137512
H            3.20011089717107       -3.67390528013659       -0.93103026410917
H            2.79402431467177        0.39135153573492        0.42528072604004
H            1.38593134996902       -0.17282905029052        1.36095650807820
H            0.78724212680519        4.44544447254405       -0.05431889381690
H            0.28949654736653        3.84843560745346        1.54450342992436
H            2.21211554676194        5.45068840969471        1.75472335121533
H            2.68414022174238        3.82764329639577        2.27863352423012
H            3.18302106820163        4.42196435828085        0.68977467913850
H           -3.02632665664280        0.57914141239665       -2.13144130991488
H           -4.48914891399209        1.24770032346811       -1.34736912288866
H           -4.13991993843052       -0.50785523292844       -1.24864533933227
H           -1.06396093064382       -2.93718833482210        0.63460957472111
H           -2.72078814460950       -3.49169364662162        1.02474654470009
H           -1.77848510440082       -2.54592364544487        2.21688192749606
38
 energy: -64.707641703690 gnorm: 0.002554305528 xtb: 6.7.1 (edcfbbe)
C            2.09197948851175       -3.28589831955273       -2.75363329601450
C            3.15465173438873       -2.92710463972252       -1.72808902719413
O            2.87138119677253       -1.64397387182779       -1.13553534584804
C            2.14339014558955       -1.60239779836314       -0.03624055294013
O            1.73747912595947       -2.57191011027994        0.56335820468383
C            1.85917657738712       -0.17080376500587        0.37748329772078
C            0.94959533368454        0.48426651370144       -0.66051792546781
H            1.48710410637328        0.58587905443427       -1.60872853257328
C            0.46792191324291        1.86797216646200       -0.25263611543785
O           -0.62575740060516        2.29999849997667       -0.55205634540256
O            1.39412024737410        2.52348716690087        0.39436584693884
C            1.11568669388735        3.87573858907602        0.81920723123371
C            2.38510871345102        4.43469935840254        1.42963878565046
S           -0.49308581767625       -0.54591051154190       -1.10299840336047
P           -1.83382565390158       -0.11918036175737        0.48471933188692
S           -1.12223532198591        0.56259967364757        2.17434732242193
O           -3.01268713012379        0.77391740160519       -0.06127471698381
C           -3.71232231026490        0.49075904208453       -1.28969157349460
O           -2.59785401803159       -1.52596423549738        0.60705341407214
C           -1.98670980486375       -2.69648582755057        1.15995471097025
H            2.33638303903955       -4.24201361617278       -3.20513360859674
H            1.11772513791974       -3.35723141894877       -2.27511536861455
H            2.04371425546324       -2.52545547063964       -3.52788036459471
H            4.13345446189754       -2.80726479824670       -2.19348838048074
H            3.20042767526033       -3.67567492674089       -0.93246964779234
H            2.79276794651472        0.38989386448293        0.42274086848609
H            1.38506771552283       -0.17493992285025        1.36017731739736
H            0.79123944436729        4.44958122591440       -0.05350576117210
H            0.29292876076236        3.84171097304949        1.53984950632252
H            2.20867661384396        5.45379392660912        1.75761071207670
H            2.68346708364685        3.83282831135314        2.28278867723512
H            3.18611155008183        4.42877089650331        0.69617035902966
H           -3.02486818297609        0.58034774448354       -2.13027298203695
H           -4.49120074211457        1.24649216609705       -1.35010874172881
H           -4.14161599071499       -0.50888193429074       -1.25390379033343
H           -1.05806422453333       -2.93216473530150        0.63853335818539
H           -2.71312084017572       -3.49446788165593        1.02542021213769
H           -1.77791653878678       -2.54320814013518        2.21875698217463
38
 energy: -64.707659759016 gnorm: 0.002037013451 xtb: 6.7.1 (edcfbbe)
C            2.09132818509468       -3.28531290471893       -2.75323079888763
C            3.15465003267287       -2.92714890342811       -1.72808555402493
O            2.87278265441301       -1.64401894160162       -1.13529611367939
C            2.14162790241407       -1.60193136154372       -0.03865147038245
O            1.73076749266785       -2.57193695043916        0.55700034292254
C            1.85905273896272       -0.16997651791754        0.37598409742701
C            0.95031272927517        0.48505303598702       -0.66227477689780
H            1.48582726026789        0.58423722240870       -1.61199613379211
C            0.46935234892793        1.86817480422003       -0.25110297811076
O           -0.63047915659809        2.29680597546241       -0.53716136515538
O            1.39944105215552        2.52645315411074        0.38677611450961
C            1.11958044778370        3.87673711890705        0.81661618688281
C            2.38707032343754        4.43598665395140        1.43113211254631
S           -0.49474450691768       -0.54275432599347       -1.10115742066087
P           -1.83657148544116       -0.12126637771307        0.48550694742228
S           -1.12436089150925        0.55730214548521        2.17593224844491
O           -3.01685481452134        0.77103802591514       -0.06052219254863
C           -3.71282708067916        0.48960434919708       -1.29118504977596
O           -2.59947627235638       -1.52908145407797        0.60647576844831
C           -1.98583558195832       -2.69713212817739        1.16144041543857
H            2.33501937250944       -4.24116134606786       -3.20482356816382
H            1.11754857804534       -3.35608301569956       -2.27414812738443
H            2.04312477003642       -2.52458899338167       -3.52687595894303
H            4.13322496107029       -2.80789744232531       -2.19374304959678
H            3.19948250460296       -3.67539062809497       -0.93209943849185
H            2.79259779582185        0.39084254691103        0.42111203600823
H            1.38451231659853       -0.17437718558971        1.35874316711129
H            0.79587613435123        4.45310218575844       -0.05465509722530
H            0.29618690819398        3.83973849224429        1.53589178496728
H            2.20736232307549        5.45429833906471        1.75885026786229
H            2.68335784204875        3.83435157372361        2.28485330170535
H            3.19033045794597        4.43193383902419        0.70046998906560
H           -3.02285988226711        0.58003465419364       -2.12954023452123
H           -4.49123550275735        1.24556633121970       -1.35225150703375
H           -4.14216382417080       -0.50998478697988       -1.25764434342823
H           -1.05551566142719       -2.93028561842648        0.64228958329893
H           -2.70956484577921       -3.49721171926854        1.02597069613912
H           -1.77963264180204       -2.54191555763696        2.22029577706037
38
 energy: -64.707670730024 gnorm: 0.001462569820 xtb: 6.7.1 (edcfbbe)
C            2.09104605292819       -3.28474582641645       -2.75217410826077
C            3.15450310013831       -2.92582220823056       -1.72681559601359
O            2.87254882034192       -1.64303297830475       -1.13463439990120
C            2.13898568735117       -1.60059810096100       -0.04018403341150
O            1.72544194398151       -2.57030689168943        0.55406429278263
C            1.85793494073985       -0.16835770991898        0.37512935582977
C            0.94877118975446        0.48592291355688       -0.66287626186561
H            1.48366668067095        0.58449963454929       -1.61334640007615
C            0.46837671720279        1.86836621487088       -0.24957171329766
O           -0.63367651510231        2.29531408852810       -0.52938505280536
O            1.40077066600897        2.52800815534425        0.38276299558646
C            1.12225743163573        3.87764044557643        0.81364597042684
C            2.38962839128008        4.43507335022871        1.43118658972456
S           -0.49592391166055       -0.54250945314353       -1.10240721017410
P           -1.83633924568787       -0.12297073854767        0.48580464623737
S           -1.12587827553820        0.55151682260154        2.17858448520302
O           -3.01727868388101        0.76949137199790       -0.05978342578795
C           -3.71154598857497        0.48875128646223       -1.29127067083961
O           -2.59925415321573       -1.53124078452792        0.60396518151999
C           -1.98623722071690       -2.69790089814683        1.16162543003202
H            2.33534436426339       -4.24055497436438       -3.20314030082235
H            1.11746761648469       -3.35570000706639       -2.27271923762613
H            2.04245538932727       -2.52415740818248       -3.52589671363921
H            4.13304408931822       -2.80714608017960       -2.19243016704525
H            3.19849335978419       -3.67413816341698       -0.93071378209319
H            2.79130494699979        0.39265335645355        0.42002758219051
H            1.38361904358967       -0.17283033689264        1.35799853360430
H            0.80117424860516        4.45575784741460       -0.05774167402622
H            0.29796657979011        3.84251569312837        1.53197084656163
H            2.20906911183662        5.45313308014344        1.75893693703189
H            2.68329743232833        3.83264932850089        2.28523363317659
H            3.19450860616928        4.43105873548049        0.70245381999282
H           -3.02060951137259        0.57893299120472       -2.12897370561516