      -----------------------------------------------------------      
     |                   =====================                   |     
     |                           x T B                           |     
     |                   =====================                   |     
     |                         S. Grimme                         |     
     |          Mulliken Center for Theoretical Chemistry        |     
     |                    University of Bonn                     |     
      -----------------------------------------------------------      

   * xtb version 6.7.1 (edcfbbe) compiled by 'albert@albert-system' on 2024-07-22

   xtb is free software: you can redistribute it and/or modify it under
   the terms of the GNU Lesser General Public License as published by
   the Free Software Foundation, either version 3 of the License, or
   (at your option) any later version.
   
   xtb is distributed in the hope that it will be useful,
   but WITHOUT ANY WARRANTY; without even the implied warranty of
   MERCHANTABILITY or FITNESS FOR A PARTICULAR PURPOSE.  See the
   GNU Lesser General Public License for more details.
   
   Cite this work as:
   * C. Bannwarth, E. Caldeweyher, S. Ehlert, A. Hansen, P. Pracht,
     J. Seibert, S. Spicher, S. Grimme, WIREs Comput. Mol. Sci., 2020, 11,
     e01493. DOI: 10.1002/wcms.1493
   
   for GFN2-xTB:
   * C. Bannwarth, S. Ehlert and S. Grimme., J. Chem. Theory Comput., 2019,
     15, 1652-1671. DOI: 10.1021/acs.jctc.8b01176
   for GFN1-xTB:
   * S. Grimme, C. Bannwarth, P. Shushkov, J. Chem. Theory Comput., 2017,
     13, 1989-2009. DOI: 10.1021/acs.jctc.7b00118
   for GFN0-xTB:
   * P. Pracht, E. Caldeweyher, S. Ehlert, S. Grimme, ChemRxiv, 2019, preprint.
     DOI: 10.26434/chemrxiv.8326202.v1
   for GFN-FF:
   * S. Spicher and S. Grimme, Angew. Chem. Int. Ed., 2020, 59, 15665-15673.
     DOI: 10.1002/anie.202004239
   
   for ALPB and GBSA implicit solvation:
   * S. Ehlert, M. Stahn, S. Spicher, S. Grimme, J. Chem. Theory Comput.,
     2021, 17, 4250-4261. DOI: 10.1021/acs.jctc.1c00471
   
   for ddCOSMO and CPCM-X implicit solvation:
   * M. Stahn, S. Ehlert, S. Grimme, J. Phys. Chem. A,
     2023, XX, XXXX-XXXX. DOI: 10.1021/acs.jpca.3c04382
   
   for DFT-D4:
   * E. Caldeweyher, C. Bannwarth and S. Grimme, J. Chem. Phys., 2017,
     147, 034112. DOI: 10.1063/1.4993215
   * E. Caldeweyher, S. Ehlert, A. Hansen, H. Neugebauer, S. Spicher,
     C. Bannwarth and S. Grimme, J. Chem. Phys., 2019, 150, 154122.
     DOI: 10.1063/1.5090222
   * E. Caldeweyher, J.-M. Mewes, S. Ehlert and S. Grimme, Phys. Chem. Chem. Phys.
     2020, 22, 8499-8512. DOI: 10.1039/D0CP00502A
   
   for sTDA-xTB:
   * S. Grimme and C. Bannwarth, J. Chem. Phys., 2016, 145, 054103.
     DOI: 10.1063/1.4959605
   
   in the mass-spec context:
   * V. Asgeirsson, C. Bauer and S. Grimme, Chem. Sci., 2017, 8, 4879.
     DOI: 10.1039/c7sc00601b
   * J. Koopman and S. Grimme, ACS Omega 2019, 4, 12, 15120-15133.
     DOI: 10.1021/acsomega.9b02011
   
   for metadynamics refer to:
   * S. Grimme, J. Chem. Theory Comput., 2019, 155, 2847-2862
     DOI: 10.1021/acs.jctc.9b00143
   
   for SPH calculations refer to:
   * S. Spicher and S. Grimme, J. Chem. Theory Comput., 2021, 17, 1701-1714
     DOI: 10.1021/acs.jctc.0c01306
   
   for ONIOM refer to:
   * C. Plett, A. Katbashev, S. Ehlert, S. Grimme, M. Bursch,
     Phys. Chem. Chem. Phys., 2023, 25, 17860-17868. DOI: 10.1039/D3CP02178E
   
   for DIPRO refer to:
   * J. Kohn, N. Gildemeister, S. Grimme, D. Fazzi, A. Hansen,
     J. Chem. Phys., 2023, just accepted.
   
   for PTB refer to:
   * S. Grimme, M. Mueller, A. Hansen, J. Chem. Phys., 2023, 158, 124111.
     DOI: 10.1063/5.0137838
   
   with help from (in alphabetical order)
   P. Atkinson, C. Bannwarth, F. Bohle, G. Brandenburg, E. Caldeweyher
   M. Checinski, S. Dohm, S. Ehlert, S. Ehrlich, I. Gerasimov, C. Hölzer
   A. Katbashev, J. Kohn, J. Koopman, C. Lavigne, S. Lehtola, F. März, M. Müller,
   F. Musil, H. Neugebauer, J. Pisarek, C. Plett, P. Pracht, F. Pultar,
   J. Seibert, P. Shushkov, S. Spicher, M. Stahn, M. Steiner, T. Strunk,
   J. Stückrath, T. Rose, and J. Unsleber
   
 * started run on 2025/04/10 at 19:49:20.965     
   ID    Z sym.   atoms
    1    6 C      1, 2, 7, 8, 10, 15, 16, 18, 19
    2    8 O      3, 6, 14, 17
    3   15 P      4, 12
    4   16 S      5, 9, 11, 13
    5    1 H      20-41

           -------------------------------------------------
          |                Calculation Setup                |
           -------------------------------------------------

          program call               : /srv/scratch/z5358697/.xtb/bin/xtb xtb_opt.coord --opt normal --orca -I xtb_opt-xcontrol-inp
          hostname                   : k163
          coordinate file            : xtb_opt.coord
          omp threads                :                    24

           -------------------------------------------------
          |                   Orca driver                   |
           -------------------------------------------------
orca executable           : /apps/z_install_tree/linux-rocky8-ivybridge/gcc-12.2.0/orca-6.0.0-srtngmq3qlimg2qxbl6avaaiffipurdx/bin/orca
orca input file           : xtb_opt.inp
orca input line           : 
orca parallel             : true
orca number of threads    : 24
                         * ORCA takes the control...
  ------------------------------------------------------------------------

                                 *****************
                                 * O   R   C   A *
                                 *****************

                                            #,                                       
                                            ###                                      
                                            ####                                     
                                            #####                                    
                                            ######                                   
                                           ########,                                 
                                     ,,################,,,,,                         
                               ,,#################################,,                 
                          ,,##########################################,,             
                       ,#########################################, ''#####,          
                    ,#############################################,,   '####,        
                  ,##################################################,,,,####,       
                ,###########''''           ''''###############################       
              ,#####''   ,,,,##########,,,,          '''####'''          '####       
            ,##' ,,,,###########################,,,                        '##       
           ' ,,###''''                  '''############,,,                           
         ,,##''                                '''############,,,,        ,,,,,,###''
      ,#''                                            '''#######################'''  
     '                                                          ''''####''''         
             ,#######,   #######,   ,#######,      ##                                
            ,#'     '#,  ##    ##  ,#'     '#,    #''#        ,####,   ,####,        
            ##       ##  ##   ,#'  ##            #'  '#       #'       #'  '#        
            ##       ##  #######   ##           ,######,      #####,   #    #        
            '#,     ,#'  ##    ##  '#,     ,#' ,#      #,     #,   #   #,  ,#        
             '#######'   ##     ##  '#######'  #'      '#     '####' # '####'        



                #########################################################
                #                        -***-                          #
                #          Department of theory and spectroscopy        #
                #                                                       #
                #                      Frank Neese                      #
                #                                                       #
                #     Directorship, Architecture, Infrastructure        #
                #                    SHARK, DRIVERS                     #
                #        Core code/Algorithms in most modules           #
                #                                                       #
                #        Max Planck Institute fuer Kohlenforschung      #
                #                Kaiser Wilhelm Platz 1                 #
                #                 D-45470 Muelheim/Ruhr                 #
                #                      Germany                          #
                #                                                       #
                #                  All rights reserved                  #
                #                        -***-                          #
                #########################################################


                         Program Version 6.0.0  -   RELEASE  -


 With contributions from (in alphabetic order):
   Daniel Aravena         : Magnetic Suceptibility
   Michael Atanasov       : Ab Initio Ligand Field Theory (pilot matlab implementation)
   Alexander A. Auer      : GIAO ZORA, VPT2 properties, NMR spectrum
   Ute Becker             : All parallelization in ORCA, NUMFREQ, NUMCALC
   Giovanni Bistoni       : ED, misc. LED, open-shell LED, HFLD
   Martin Brehm           : Molecular dynamics
   Dmytro Bykov           : pre 5.0 version of the SCF Hessian
   Marcos Casanova-Páez   : Triplet and SCS-CIS(D). UHF-(DLPNO)-IP/EA/STEOM-CCSD. UHF-CVS-IP/STEOM-CCSD
   Vijay G. Chilkuri      : MRCI spin determinant printing, contributions to CSF-ICE
   Pauline Colinet        : FMM embedding
   Dipayan Datta          : RHF DLPNO-CCSD density
   Achintya Kumar Dutta   : EOM-CC, STEOM-CC
   Nicolas Foglia         : Exact transition moments, OPA infrastructure, MCD improvements
   Dmitry Ganyushin       : Spin-Orbit,Spin-Spin,Magnetic field MRCI
   Miquel Garcia          : C-PCM and meta-GGA Hessian, CCSD/C-PCM, Gaussian charge scheme
   Tiago L. C. Gouveia    : GS-ROHF, GS-ROCIS
   Yang Guo               : DLPNO-NEVPT2, F12-NEVPT2, CIM, IAO-localization
   Andreas Hansen         : Spin unrestricted coupled pair/coupled cluster methods
   Ingolf Harden          : AUTO-CI MPn and infrastructure 
   Benjamin Helmich-Paris : MC-RPA, TRAH-(SCF,CASSCF), AVAS, COSX integrals, SCF dyn. polar.
   Lee Huntington         : MR-EOM, pCC
   Robert Izsak           : Overlap fitted RIJCOSX, COSX-SCS-MP3, EOM
   Riya Kayal             : Wick's Theorem for AUTO-CI, AUTO-CI UHF-CCSDT
   Emily Kempfer          : AUTO-CI, RHF CISDT and CCSDT
   Christian Kollmar      : KDIIS, OOCD, Brueckner-CCSD(T), CCSD density, CASPT2, CASPT2-K, improved NEVPT2
   Axel Koslowski         : Symmetry handling
   Simone Kossmann        : Meta GGA functionals, TD-DFT gradient, OOMP2, (MP2 Hessian; deprecated post 5.0)
   Lucas Lang             : DCDCAS
   Marvin Lechner         : AUTO-CI (C++ implementation), FIC-MRCC
   Spencer Leger          : CASSCF response
   Dagmar Lenk            : GEPOL surface, SMD, ORCA-2-JSON
   Dimitrios Liakos       : Extrapolation schemes; Compound Job, initial MDCI parallelization
   Dimitrios Manganas     : Further ROCIS development; embedding schemes. LFT, Crystal Embedding
   Dimitrios Pantazis     : SARC Basis sets
   Anastasios Papadopoulos: AUTO-CI, single reference methods and gradients
   Taras Petrenko         : pre 6.0 DFT Hessian and TD-DFT gradient, (ASA, deprecated), ECA, 1-Electron XAS/XES, NRVS
   Peter Pinski           : DLPNO-MP2, DLPNO-MP2 Gradient
   Christoph Reimann      : Effective Core Potentials
   Marius Retegan         : Local ZFS, SOC
   Christoph Riplinger    : Optimizer, TS searches, QM/MM, DLPNO-CCSD(T), (RO)-DLPNO pert. Triples
   Michael Roemelt        : Original ROCIS implementation
   Masaaki Saitow         : Open-shell DLPNO-CCSD energy and density
   Barbara Sandhoefer     : DKH picture change effects
   Kantharuban Sivalingam : CASSCF convergence/infrastructure, NEVPT2 and variants, FIC-MRCI
   Bernardo de Souza      : ESD, SOC TD-DFT
   Georgi Stoychev        : AutoAux, RI-MP2 NMR, DLPNO-MP2 response, X2C
   Van Anh Tran           : RI-MP2 g-tensors
   Willem Van den Heuvel  : Paramagnetic NMR
   Zikuan Wang            : NOTCH, Electric field optimization 
   Frank Wennmohs         : Technical directorship and infrastructure
   Hang Xu                : AUTO-CI-Response properties 


 We gratefully acknowledge several colleagues who have allowed us to
 interface, adapt or use parts of their codes:
   Stefan Grimme, W. Hujo, H. Kruse, P. Pracht,  : VdW corrections, initial TS optimization,
                  C. Bannwarth, S. Ehlert,         DFT functionals, gCP, sTDA/sTD-DF
                  L. Wittmann, M. Mueller
   Ed Valeev, F. Pavosevic, A. Kumar             : LibInt (2-el integral package), F12 methods
   Garnet Chan, S. Sharma, J. Yang, R. Olivares  : DMRG
   Ulf Ekstrom                                   : XCFun DFT Library
   Mihaly Kallay                                 : mrcc  (arbitrary order and MRCC methods)
   Frank Weinhold                                : gennbo (NPA and NBO analysis)
   Simon Mueller                                 : openCOSMO-RS
   Christopher J. Cramer and Donald G. Truhlar   : smd solvation model
   Lars Goerigk                                  : TD-DFT with DH, B97 family of functionals
   V. Asgeirsson, H. Jonsson                     : NEB implementation
   FAccTs GmbH                                   : IRC, NEB, NEB-TS, DLPNO-Multilevel, CI-OPT
                                                   MM, QMMM, 2- and 3-layer-ONIOM, Crystal-QMMM,
                                                   LR-CPCM, SF, NACMEs, symmetry and pop. for TD-DFT,
                                                   nearIR, NL-DFT gradient (VV10), updates on ESD,
                                                   ML-optimized integration grids, MBIS, APM,
                                                   GOAT, DOCKER, SOLVATOR, interface openCOSMO-RS
   S Lehtola, MJT Oliveira, MAL Marques          : LibXC Library
   Liviu Ungur et al                             : ANISO software


 Your calculation uses the libint2 library for the computation of 2-el integrals
 For citations please refer to: http://libint.valeyev.net

 Your ORCA version has been built with support for libXC version: 6.2.2
 For citations please refer to: https://libxc.gitlab.io

 This ORCA versions uses:
   CBLAS   interface :  Fast vector & matrix operations
   LAPACKE interface :  Fast linear algebra routines
   SCALAPACK package :  Parallel linear algebra routines
   Shared memory     :  Shared parallel matrices
   BLAS/LAPACK       :  OpenBLAS 0.3.27  USE64BITINT DYNAMIC_ARCH NO_AFFINITY SapphireRapids SINGLE_THREADED
        Core in use  :  SapphireRapids
   Copyright (c) 2011-2014, The OpenBLAS Project




***************************************
The coordinates will be read from file: xtb_opt.xyz
***************************************


Your calculation utilizes the geometrical counterpoise correction gCP
Please cite in your paper:
H.Kruse, S. Grimme J.Chem.Phys., 136, (2012), 154101 
   

Your calculation utilizes the atom-pairwise dispersion correction
based on EEQ partial charges (D4)


Your calculation utilizes the SMD solvation module
Please cite in your paper:
A.V. Marenich, C.J. Cramer, D.G. Truhlar J. Phys. Chem. B, 113, (2009), 6378 

================================================================================

----- Orbital basis set information -----
Your calculation utilizes the basis: def2-mTZVPP
   Stefan Grimme, Andreas Hansen, Sebastian Ehlert, and Jan-Michael Mewes 
   J. Chem. Phys. 154, 064103 (2021). DOI: 10.1063/5.0040021

----- AuxJ basis set information -----
Your calculation utilizes the auxiliary basis: def2/J
   F. Weigend, Phys. Chem. Chem. Phys. 8, 1057 (2006).

================================================================================
                                        WARNINGS
                       Please study these warnings very carefully!
================================================================================

WARNING: Old DensityContainer found on disk!
         Will remove this file - 
         If you want to keep old densities, please start your calculation with a different basename. 

Using LibXC functional ID 497 : Re-regularized SCAN exchange by Furness et al
[ 1]  J. W. Furness, A. D. Kaplan, J. Ning, J. P. Perdew, and J. Sun.,  J. Phys. Chem. Lett. 11, 8208-8215 (2020)
[ 2]  J. W. Furness, A. D. Kaplan, J. Ning, J. P. Perdew, and J. Sun.,  J. Phys. Chem. Lett. 11, 9248-9248 (2020)
Using LibXC functional ID 498 : Re-regularized SCAN correlation by Furness et al
[ 1]  J. W. Furness, A. D. Kaplan, J. Ning, J. P. Perdew, and J. Sun.,  J. Phys. Chem. Lett. 11, 8208-8215 (2020)
[ 2]  J. W. Furness, A. D. Kaplan, J. Ning, J. P. Perdew, and J. Sun.,  J. Phys. Chem. Lett. 11, 9248-9248 (2020)
Using LibXC functional ID 497 : Re-regularized SCAN exchange by Furness et al
[ 1]  J. W. Furness, A. D. Kaplan, J. Ning, J. P. Perdew, and J. Sun.,  J. Phys. Chem. Lett. 11, 8208-8215 (2020)
[ 2]  J. W. Furness, A. D. Kaplan, J. Ning, J. P. Perdew, and J. Sun.,  J. Phys. Chem. Lett. 11, 9248-9248 (2020)
Using LibXC functional ID 498 : Re-regularized SCAN correlation by Furness et al
[ 1]  J. W. Furness, A. D. Kaplan, J. Ning, J. P. Perdew, and J. Sun.,  J. Phys. Chem. Lett. 11, 8208-8215 (2020)
[ 2]  J. W. Furness, A. D. Kaplan, J. Ning, J. P. Perdew, and J. Sun.,  J. Phys. Chem. Lett. 11, 9248-9248 (2020)

================================================================================
                                       INPUT FILE
================================================================================
NAME = xtb_opt.inp
|  1> ! r2scan-3c def2/J RI DEFGRID2 scfconv7 ENGRAD tightSCF miniprint
|  2> %cpcm
|  3>     smd true
|  4>     smdsolvent "water"
|  5> end
|  6> * xyzfile 0 1 xtb_opt.xyz
|  7> 
|  8>                          ****END OF INPUT****
================================================================================

                     *******************************
                     * Energy+Gradient Calculation *
                     *******************************

---------------------------------
CARTESIAN COORDINATES (ANGSTROEM)
---------------------------------
  C      3.051162   -0.207425    3.375812
  C      1.701350   -0.440133    2.743829
  O      1.577377    0.247073    1.448509
  P      2.336011   -0.272512    0.134002
  S      2.585045   -2.194855   -0.049045
  O      3.663553    0.641437    0.175267
  C      4.757632    0.410026   -0.779488
  C      5.810288    1.452701   -0.508970
  S      1.244821    0.684213   -1.411181
  C      0.043959   -0.634703   -1.846603
  S     -1.173733   -1.101318   -0.559519
  P     -2.446302    0.605046   -0.550440
  S     -2.772218    1.421932   -2.283516
  O     -1.865429    1.669225    0.494394
  C     -1.592124    1.326302    1.904596
  C     -2.665818    1.907375    2.789189
  O     -3.691137   -0.003705    0.265670
  C     -4.624971   -0.947713   -0.371028
  C     -5.091581   -1.909550    0.689198
  H      3.045949   -0.644684    4.379595
  H      3.852578   -0.682762    2.802383
  H      3.261693    0.861998    3.466098
  H      0.895701   -0.004344    3.338503
  H      1.495843   -1.503656    2.588100
  H      5.136185   -0.604057   -0.621288
  H      4.357168    0.492000   -1.795640
  H      5.415336    2.460295   -0.665722
  H      6.186775    1.369880    0.514570
  H      6.646032    1.297510   -1.198055
  H      0.585561   -1.553152   -2.089707
  H     -0.483292   -0.272827   -2.734542
  H     -1.515764    0.239507    2.008069
  H     -0.615217    1.768505    2.109578
  H     -3.640364    1.457650    2.583165
  H     -2.405007    1.705490    3.833296
  H     -2.734895    2.990677    2.656775
  H     -5.445363   -0.353186   -0.781725
  H     -4.116363   -1.467169   -1.189043
  H     -4.255645   -2.501324    1.073738
  H     -5.564655   -1.377111    1.518947
  H     -5.827199   -2.591463    0.251771

----------------------------
CARTESIAN COORDINATES (A.U.)
----------------------------
  NO LB      ZA    FRAG     MASS         X           Y           Z
   0 C     6.0000    0    12.011    5.765861   -0.391976    6.379360
   1 C     6.0000    0    12.011    3.215086   -0.831731    5.185085
   2 O     8.0000    0    15.999    2.980810    0.466901    2.737286
   3 P    15.0000    0    30.974    4.414421   -0.514974    0.253228
   4 S    16.0000    0    32.060    4.885028   -4.147676   -0.092682
   5 O     8.0000    0    15.999    6.923111    1.212141    0.331206
   6 C     6.0000    0    12.011    8.990621    0.774836   -1.473019
   7 C     6.0000    0    12.011   10.979852    2.745207   -0.961814
   8 S    16.0000    0    32.060    2.352370    1.292976   -2.666746
   9 C     6.0000    0    12.011    0.083070   -1.199415   -3.489574
  10 S    16.0000    0    32.060   -2.218033   -2.081190   -1.057338
  11 P    15.0000    0    30.974   -4.622841    1.143370   -1.040181
  12 S    16.0000    0    32.060   -5.238733    2.687061   -4.315220
  13 O     8.0000    0    15.999   -3.525151    3.154379    0.934270
  14 C     6.0000    0    12.011   -3.008678    2.506348    3.599165
  15 C     6.0000    0    12.011   -5.037666    3.604417    5.270803
  16 O     8.0000    0    15.999   -6.975238   -0.007001    0.502044
  17 C     6.0000    0    12.011   -8.739928   -1.790918   -0.701142
  18 C     6.0000    0    12.011   -9.621694   -3.608527    1.302396
  19 H     1.0000    0     1.008    5.756009   -1.218276    8.276236
  20 H     1.0000    0     1.008    7.280317   -1.290234    5.295736
  21 H     1.0000    0     1.008    6.163707    1.628940    6.549976
  22 H     1.0000    0     1.008    1.692630   -0.008209    6.308856
  23 H     1.0000    0     1.008    2.826734   -2.841499    4.890800
  24 H     1.0000    0     1.008    9.705983   -1.141503   -1.174065
  25 H     1.0000    0     1.008    8.233854    0.929745   -3.393268
  26 H     1.0000    0     1.008   10.233502    4.649285   -1.258032
  27 H     1.0000    0     1.008   11.691309    2.588698    0.972397
  28 H     1.0000    0     1.008   12.559180    2.451939   -2.263996
  29 H     1.0000    0     1.008    1.106551   -2.935031   -3.948974
  30 H     1.0000    0     1.008   -0.913289   -0.515568   -5.167536
  31 H     1.0000    0     1.008   -2.864378    0.452603    3.794700
  32 H     1.0000    0     1.008   -1.162592    3.341991    3.986524
  33 H     1.0000    0     1.008   -6.879291    2.754560    4.881474
  34 H     1.0000    0     1.008   -4.544804    3.222910    7.243880
  35 H     1.0000    0     1.008   -5.168202    5.651561    5.020578
  36 H     1.0000    0     1.008  -10.290244   -0.667426   -1.477245
  37 H     1.0000    0     1.008   -7.778799   -2.772547   -2.246966
  38 H     1.0000    0     1.008   -8.042003   -4.726818    2.029070
  39 H     1.0000    0     1.008  -10.515673   -2.602362    2.870393
  40 H     1.0000    0     1.008  -11.011811   -4.897155    0.475778

------------------------------------------------------------------------------
                   ___                                                        
                  /   \      - P O W E R E D   B Y -                         
                 /     \                                                     
                 |  |  |   _    _      __       _____    __    __             
                 |  |  |  | |  | |    /  \     |  _  \  |  |  /  |          
                  \  \/   | |  | |   /    \    | | | |  |  | /  /          
                 / \  \   | |__| |  /  /\  \   | |_| |  |  |/  /          
                |  |  |   |  __  | /  /__\  \  |    /   |      \           
                |  |  |   | |  | | |   __   |  |    \   |  |\   \          
                \     /   | |  | | |  |  |  |  | |\  \  |  | \   \       
                 \___/    |_|  |_| |__|  |__|  |_| \__\ |__|  \__/        
                                                                              
                      - O R C A' S   B I G   F R I E N D -                    
                                      &                                       
                       - I N T E G R A L  F E E D E R -                       
                                                                              
 v1 FN, 2020, v2 2021, v3 2022-2024                                           
------------------------------------------------------------------------------


----------------------
SHARK INTEGRAL PACKAGE
----------------------

Number of atoms                             ...     41
Number of basis functions                   ...    539
Number of shells                            ...    253
Maximum angular momentum                    ...      2
Integral batch strategy                     ... SHARK/LIBINT Hybrid
RI-J (if used) integral strategy            ... SPLIT-RIJ (Revised 2003 algorithm where possible)
Printlevel                                  ...      1
Contraction scheme used                     ... SEGMENTED contraction
Prescreening option                         ... SCHWARTZ
   Thresh                                   ... 3.000e-11
   Tcut                                     ... 1.000e-12
   Tpresel                                  ... 1.000e-12 
Coulomb Range Separation                    ... NOT USED
Exchange Range Separation                   ... NOT USED
Multipole approximations                    ... NOT USED
Finite Nucleus Model                        ... NOT USED
CABS basis                                  ... NOT available
Auxiliary Coulomb fitting basis             ... AVAILABLE
   # of basis functions in Aux-J            ...   1185
   # of shells in Aux-J                     ...    407
   Maximum angular momentum in Aux-J        ...      4
Auxiliary J/K fitting basis                 ... NOT available
Auxiliary Correlation fitting basis         ... NOT available
Auxiliary 'external' fitting basis          ... NOT available

Checking pre-screening integrals            ... done (  0.0 sec) Dimension = 253
Check shell pair data                       ... done (  0.0 sec)
Shell pair information
Shell pair cut-off parameter TPreSel        ...   1.0e-12
Total number of shell pairs                 ...     32131
Shell pairs after pre-screening             ...     21208
Total number of primitive shell pairs       ...    124843
Primitive shell pairs kept                  ...     49748
          la=0 lb=0:   5992 shell pairs
          la=1 lb=0:   7700 shell pairs
          la=1 lb=1:   2530 shell pairs
          la=2 lb=0:   2826 shell pairs
          la=2 lb=1:   1813 shell pairs
          la=2 lb=2:    347 shell pairs

Calculating one electron integrals          ... done (  0.1 sec)
Calculating RI/J V-Matrix + Cholesky decomp.... done (  0.3 sec)
Calculating Nuclear repulsion               ... done (  0.0 sec) ENN=   2685.397889211539 Eh

Diagonalization of the overlap matrix:
Smallest eigenvalue                        ... 3.510e-04
Time for diagonalization                   ...    0.031 sec
Threshold for overlap eigenvalues          ... 1.000e-07
Number of eigenvalues below threshold      ... 0
Time for construction of square roots      ...    0.100 sec
Total time needed                          ...    0.221 sec

-------------------
DFT GRID GENERATION
-------------------

General Integration Accuracy     IntAcc      ... 4.388
Radial Grid Type                 RadialGrid  ... OptM3 with GC (2021)
Angular Grid (max. ang.)         AngularGrid ... 4 (Lebedev-302)
Angular grid pruning method      GridPruning ... 4 (adaptive)
Weight generation scheme         WeightScheme... mBecke (2022)
Basis function cutoff            BFCut       ... 1.0000e-11
Integration weight cutoff        WCut        ... 1.0000e-14
Partially contracted basis set               ... off
Rotationally invariant grid construction     ... off
Angular grids for H and He will be reduced by one unit
Diffuse basis detected: some atoms will have their outermost
                        angular grid increased by 1.

Total number of grid points                  ...   193007
Total number of batches                      ...     3032
Average number of points per batch           ...       63
Average number of grid points per atom       ...     4707
Initializing property integral containers    ... done (  0.0 sec)

SHARK setup successfully completed in   4.1 seconds

Maximum memory used throughout the entire STARTUP-calculation: 102.2 MB
Occupation numbers will be reassigned to an Aufbau configuration
             **** ENERGY FILE WAS UPDATED (xtb_opt.en.tmp) ****
Finished Guess after   1.0 sec
Maximum memory used throughout the entire GUESS-calculation: 55.2 MB
--------------------
CPCM SOLVATION MODEL
--------------------
CPCM parameters:
  Epsilon                                         ...      78.3550
  Refrac                                          ...       1.3328
  Rsolv                                           ...       1.3000
  Surface type                                    ... GAUSSIAN VDW
  Discretization scheme                           ... Constant charge density
    Threshold for H atoms                         ...       5.0000 (charges/Ang^2)
    Threshold for non-H atoms                     ...       5.0000 (charges/Ang^2)
  Epsilon function type                           ...         CPCM
Solvent:                                          ... WATER
SMD-CDS solvent descriptors:
  Soln                                            ...       1.3328
  Soln25                                          ...       1.3323
  Sola                                            ...       0.0000
  Solb                                            ...       0.0000
  Solg                                            ...       0.0000
  Solc                                            ...       0.0000
  Solh                                            ...       0.0000
Radii:
  Scheme                                          ... Element-dependent radii
  Radius for C  used is    3.4960 Bohr (=   1.8500 Ang.)
  Radius for O  used is    2.8724 Bohr (=   1.5200 Ang.)
  Radius for P  used is    4.0062 Bohr (=   2.1200 Ang.)
  Radius for S  used is    4.7054 Bohr (=   2.4900 Ang.)
  Radius for H  used is    2.2677 Bohr (=   1.2000 Ang.)
Calculating surface                               ...        done! (  0.0s)
Cavity surface points                             ...         3509
Cavity Volume                                     ...    2845.8699
Cavity Surface-area                               ...    1474.0532
Calculating surface distance matrix               ...        done! (  0.1s)
Performing Cholesky decomposition & store         ...        done! (  1.9s)
Overall time for CPCM initialization              ...                 2.0s

----------------------------------------D-I-I-S--------------------------------------------
Iteration    Energy (Eh)           Delta-E    RMSDP     MaxDP     DIISErr   Damp  Time(sec)
-------------------------------------------------------------------------------------------
               ***  Starting incremental Fock matrix formation  ***
                              *** Initializing SOSCF ***
---------------------------------------S-O-S-C-F--------------------------------------
Iteration    Energy (Eh)           Delta-E    RMSDP     MaxDP     MaxGrad    Time(sec)
--------------------------------------------------------------------------------------
    1    -2932.5226050489295631     0.00e+00  1.35e-06  1.52e-04  7.37e-06    13.6
               *** Restarting incremental Fock matrix formation ***
    2    -2932.5226050354281142     1.35e-08  2.16e-06  2.16e-04  2.63e-05    13.2
    3    -2932.5226048577683287     1.78e-07  1.52e-06  1.25e-04  4.59e-05     8.4
    4    -2932.5226050888636564    -2.31e-07  2.16e-07  2.10e-05  1.29e-06     8.3
                  *** Gradient check signals convergence ***

               *****************************************************
               *                     SUCCESS                       *
               *           SCF CONVERGED AFTER   4 CYCLES          *
               *****************************************************


SMD CDS free energy correction energy :                 7.15881     Kcal/mol
Total Energy after SMD CDS correction =             -2932.511196801 Eh
             **** ENERGY FILE WAS UPDATED (xtb_opt.en.tmp) ****

----------------
TOTAL SCF ENERGY
----------------

Total Energy       :      -2932.51119680106012 Eh          -79797.68650 eV

Components:
Nuclear Repulsion  :       2685.39788921153877 Eh           73073.39154 eV
Electronic Energy  :      -5617.89059033221383 Eh         -152870.57475 eV
One Electron Energy:      -9392.95500572707533 Eh         -255595.29992 eV
Two Electron Energy:       3775.06441539486150 Eh          102724.72517 eV
CPCM Dielectric    :         -0.02990396818821 Eh              -0.81373 eV
SMD CDS (Gcds)     :          0.01140828780368 Eh               0.31044 eV

Virial components:
Potential Energy   :      -5855.62421560748771 Eh         -159339.63558 eV
Kinetic Energy     :       2923.11301880642804 Eh           79541.94908 eV
Virial Ratio       :          2.00321512645394

DFT components:
N(Alpha)           :      100.999991840162 electrons
N(Beta)            :      100.999991840162 electrons
N(Total)           :      201.999983680324 electrons
E(X)               :     -233.399058820272 Eh       
E(C)               :       -7.102057609385 Eh       
E(XC)              :     -240.501116429657 Eh       

CPCM Solvation Model Properties:
Surface-charge          :         -0.04642671195654
Corrected charge        :          0.00000000000000
Outlying charge corr.   :          0.00010778880325 Eh               0.00293 eV
Free-energy (cav+disp)  :          0.01140828780368 Eh               0.31044 eV

---------------
SCF CONVERGENCE
---------------

  Last Energy change         ...    2.3110e-07  Tolerance :   1.0000e-07
  Last MAX-Density change    ...    2.0964e-05  Tolerance :   1.0000e-07
  Last RMS-Density change    ...    2.1625e-07  Tolerance :   5.0000e-09
  Last DIIS Error            ...    1.3100e-04  Tolerance :   1.0000e-07
  Last Orbital Gradient      ...    1.2943e-06  Tolerance :   1.0000e-04
  Last Orbital Rotation      ...    5.1581e-06  Tolerance :   1.0000e-04


----------------
ORBITAL ENERGIES
----------------

  NO   OCC          E(Eh)            E(eV) 
   0   2.0000     -88.583143     -2410.4699 
   1   2.0000     -88.582374     -2410.4489 
   2   2.0000     -88.532532     -2409.0927 
   3   2.0000     -88.532001     -2409.0782 
   4   2.0000     -76.922167     -2093.1586 
   5   2.0000     -76.921596     -2093.1430 
   6   2.0000     -18.995822      -516.9026 
   7   2.0000     -18.995157      -516.8845 
   8   2.0000     -18.994970      -516.8794 
   9   2.0000     -18.993778      -516.8470 
  10   2.0000     -10.110007      -275.1073 
  11   2.0000     -10.094051      -274.6731 
  12   2.0000     -10.093115      -274.6476 
  13   2.0000     -10.092275      -274.6248 
  14   2.0000     -10.092171      -274.6219 
  15   2.0000     -10.022697      -272.7314 
  16   2.0000     -10.022428      -272.7241 
  17   2.0000     -10.022143      -272.7164 
  18   2.0000     -10.021445      -272.6974 
  19   2.0000      -7.876694      -214.3357 
  20   2.0000      -7.875884      -214.3137 
  21   2.0000      -7.827787      -213.0049 
  22   2.0000      -7.827327      -212.9924 
  23   2.0000      -6.599860      -179.5913 
  24   2.0000      -6.599403      -179.5789 
  25   2.0000      -5.823667      -158.4700 
  26   2.0000      -5.822829      -158.4472 
  27   2.0000      -5.820428      -158.3819 
  28   2.0000      -5.819533      -158.3575 
  29   2.0000      -5.814009      -158.2072 
  30   2.0000      -5.813305      -158.1881 
  31   2.0000      -5.775193      -157.1510 
  32   2.0000      -5.774860      -157.1419 
  33   2.0000      -5.768096      -156.9579 
  34   2.0000      -5.767910      -156.9528 
  35   2.0000      -5.767621      -156.9450 
  36   2.0000      -5.767320      -156.9368 
  37   2.0000      -4.745588      -129.1340 
  38   2.0000      -4.744810      -129.1129 
  39   2.0000      -4.744713      -129.1102 
  40   2.0000      -4.744327      -129.0997 
  41   2.0000      -4.743538      -129.0782 
  42   2.0000      -4.743453      -129.0759 
  43   2.0000      -1.042649       -28.3719 
  44   2.0000      -1.040561       -28.3151 
  45   2.0000      -1.001640       -27.2560 
  46   2.0000      -1.001310       -27.2470 
  47   2.0000      -0.795664       -21.6511 
  48   2.0000      -0.755962       -20.5708 
  49   2.0000      -0.744622       -20.2622 
  50   2.0000      -0.727777       -19.8038 
  51   2.0000      -0.724984       -19.7278 
  52   2.0000      -0.711203       -19.3528 
  53   2.0000      -0.692089       -18.8327 
  54   2.0000      -0.677336       -18.4312 
  55   2.0000      -0.625646       -17.0247 
  56   2.0000      -0.611553       -16.6412 
  57   2.0000      -0.599249       -16.3064 
  58   2.0000      -0.590959       -16.0808 
  59   2.0000      -0.588348       -16.0098 
  60   2.0000      -0.532989       -14.5034 
  61   2.0000      -0.522168       -14.2089 
  62   2.0000      -0.493578       -13.4309 
  63   2.0000      -0.489270       -13.3137 
  64   2.0000      -0.472940       -12.8693 
  65   2.0000      -0.457163       -12.4400 
  66   2.0000      -0.448590       -12.2067 
  67   2.0000      -0.444098       -12.0845 
  68   2.0000      -0.441817       -12.0225 
  69   2.0000      -0.427530       -11.6337 
  70   2.0000      -0.413270       -11.2457 
  71   2.0000      -0.407842       -11.0979 
  72   2.0000      -0.405024       -11.0213 
  73   2.0000      -0.397944       -10.8286 
  74   2.0000      -0.394279       -10.7289 
  75   2.0000      -0.386674       -10.5219 
  76   2.0000      -0.379847       -10.3362 
  77   2.0000      -0.364133        -9.9086 
  78   2.0000      -0.358503        -9.7554 
  79   2.0000      -0.357734        -9.7344 
  80   2.0000      -0.356666        -9.7054 
  81   2.0000      -0.351776        -9.5723 
  82   2.0000      -0.349971        -9.5232 
  83   2.0000      -0.345443        -9.4000 
  84   2.0000      -0.343276        -9.3410 
  85   2.0000      -0.333946        -9.0871 
  86   2.0000      -0.321237        -8.7413 
  87   2.0000      -0.319398        -8.6913 
  88   2.0000      -0.314271        -8.5517 
  89   2.0000      -0.306259        -8.3337 
  90   2.0000      -0.300583        -8.1793 
  91   2.0000      -0.291908        -7.9432 
  92   2.0000      -0.285862        -7.7787 
  93   2.0000      -0.279322        -7.6007 
  94   2.0000      -0.276379        -7.5207 
  95   2.0000      -0.254839        -6.9345 
  96   2.0000      -0.244283        -6.6473 
  97   2.0000      -0.237301        -6.4573 
  98   2.0000      -0.231968        -6.3122 
  99   2.0000      -0.227273        -6.1844 
 100   2.0000      -0.224325        -6.1042 
 101   0.0000      -0.052337        -1.4242 
 102   0.0000      -0.029642        -0.8066 
 103   0.0000      -0.013209        -0.3594 
 104   0.0000      -0.006172        -0.1680 
 105   0.0000       0.003391         0.0923 
 106   0.0000       0.017324         0.4714 
 107   0.0000       0.025136         0.6840 
 108   0.0000       0.029942         0.8148 
 109   0.0000       0.045764         1.2453 
 110   0.0000       0.064163         1.7460 
 111   0.0000       0.070867         1.9284 
*Only the first 10 virtual orbitals were printed.
Total SCF time: 0 days 0 hours 0 min 46 sec 
Finished LeanSCF after  46.8 sec

Maximum memory used throughout the entire LEANSCF-calculation: 140.7 MB


-------------------------------------------------------------------------------
                          DFT DISPERSION CORRECTION                            
                                                                               
                                DFTD4 V3.4.0                                   
-------------------------------------------------------------------------------
-------------------------   ----------------
Dispersion correction           -0.020235065
-------------------------   ----------------

------------------   -----------------
gCP correction             0.044860729
------------------   -----------------

-------------------------   --------------------
FINAL SINGLE POINT ENERGY     -2932.486571136909
-------------------------   --------------------

------------------------------------------------------------------------------
                         ORCA SCF GRADIENT CALCULATION
------------------------------------------------------------------------------

Nuc. rep. gradient        (SHARK) ... done (  0.0 sec)
HCore & Overlap gradient  (SHARK) ... done (  2.0 sec)
Split-RIJ-J gradient      (SHARK) ... done (  9.2 sec)
XC gradient                       ... done ( 23.5 sec)
CPCM gradient                     ... done (  7.9 sec)
SMD gradient                      ... done (  0.0 sec)
Dispersion correction             ... done (  0.0 sec)

-------------------
DISPERSION GRADIENT
-------------------

   1   C   :    0.000051935   -0.000007073    0.000155338
   2   C   :    0.000053362   -0.000042743    0.000154362
   3   O   :    0.000064046    0.000007398    0.000106684
   4   P   :    0.000165039   -0.000088970   -0.000040724
   5   S   :    0.000109283   -0.000290498   -0.000044024
   6   O   :    0.000092838    0.000044777   -0.000024768
   7   C   :    0.000115252    0.000022678   -0.000062361
   8   C   :    0.000121881    0.000067485   -0.000027486
   9   S   :    0.000086681    0.000071472   -0.000250555
  10   C   :    0.000011962   -0.000057948   -0.000149729
  11   S   :   -0.000062964   -0.000172873   -0.000172359
  12   P   :   -0.000168563    0.000099274   -0.000136647
  13   S   :   -0.000121845    0.000164534   -0.000238640
  14   O   :   -0.000060828    0.000121622    0.000040622
  15   C   :   -0.000067806    0.000102011    0.000124264
  16   C   :   -0.000048958    0.000095195    0.000135524
  17   O   :   -0.000102325   -0.000016851   -0.000000889
  18   C   :   -0.000117157   -0.000064877   -0.000023901
  19   C   :   -0.000111420   -0.000096570    0.000033137
  20   H   :    0.000012708   -0.000003328    0.000048975
  21   H   :    0.000013699   -0.000008816    0.000063974
  22   H   :    0.000015090    0.000014159    0.000062643
  23   H   :    0.000022916   -0.000004771    0.000077882
  24   H   :    0.000021609   -0.000037274    0.000059758
  25   H   :    0.000053698   -0.000004808   -0.000018808
  26   H   :    0.000046518    0.000020765   -0.000029324
  27   H   :    0.000040641    0.000032382   -0.000008295
  28   H   :    0.000049056    0.000026476   -0.000006511
  29   H   :    0.000032540    0.000014296   -0.000009969
  30   H   :    0.000005698   -0.000041443   -0.000047084
  31   H   :    0.000000958   -0.000005318   -0.000060189
  32   H   :   -0.000039675    0.000024627    0.000061455
  33   H   :   -0.000027551    0.000069731    0.000057202
  34   H   :   -0.000012894    0.000038476    0.000056134
  35   H   :   -0.000017432    0.000025321    0.000046717
  36   H   :   -0.000009598    0.000036273    0.000037987
  37   H   :   -0.000054965   -0.000012463   -0.000005855
  38   H   :   -0.000046840   -0.000032694   -0.000008148
  39   H   :   -0.000044673   -0.000050851    0.000019869
  40   H   :   -0.000043908   -0.000031779    0.000016216
  41   H   :   -0.000028010   -0.000027005    0.000007522

Difference to translation invariance:
           :   -0.0000000000    0.0000000000    0.0000000000

Difference to rotation invariance:
           :   -0.0000000000    0.0000000000   -0.0000000000

Norm of the Dispersion gradient    ...    0.0008917043
RMS gradient                       ...    0.0000804023
MAX gradient                       ...    0.0002904980
gCP correction                   ... done

------------------
CARTESIAN GRADIENT
------------------

   1   C   :    0.000006228   -0.000011581    0.000043636
   2   C   :   -0.000038623    0.000021915   -0.000033397
   3   O   :    0.000016538   -0.000009896    0.000024587
   4   P   :    0.000034561    0.000031746    0.000025975
   5   S   :   -0.000015202    0.000033682   -0.000015280
   6   O   :    0.000022257   -0.000038133   -0.000082023
   7   C   :    0.000009164    0.000044461    0.000054052
   8   C   :   -0.000022733   -0.000007061    0.000030908
   9   S   :   -0.000049595   -0.000078039    0.000079415
  10   C   :   -0.000008369   -0.000046183   -0.000101502
  11   S   :   -0.000020290    0.000203470    0.000016393
  12   P   :    0.000050755   -0.000143252    0.000071688
  13   S   :   -0.000015826    0.000010202   -0.000028710
  14   O   :   -0.000067390    0.000041580    0.000030735
  15   C   :    0.000019927   -0.000055288   -0.000078762
  16   C   :    0.000002211    0.000034727    0.000007175
  17   O   :   -0.000099021    0.000035924   -0.000160636
  18   C   :   -0.000008554   -0.000093924    0.000105913
  19   C   :    0.000065062    0.000116609   -0.000110334
  20   H   :   -0.000026157    0.000039090   -0.000007049
  21   H   :   -0.000014249   -0.000027825    0.000033558
  22   H   :   -0.000002738   -0.000032677   -0.000025990
  23   H   :   -0.000007845   -0.000024975   -0.000003740
  24   H   :   -0.000000426    0.000001407   -0.000012752
  25   H   :   -0.000003928   -0.000005373   -0.000004237
  26   H   :    0.000006482    0.000017821   -0.000006421
  27   H   :    0.000018532   -0.000002027    0.000002522
  28   H   :    0.000008440   -0.000021282    0.000013120
  29   H   :    0.000028770   -0.000019951   -0.000003990
  30   H   :    0.000012085    0.000023691   -0.000002312
  31   H   :    0.000014059    0.000000500    0.000027696
  32   H   :   -0.000033257    0.000044088    0.000011708
  33   H   :   -0.000011132   -0.000018871   -0.000009755
  34   H   :    0.000009194    0.000029403    0.000021599
  35   H   :   -0.000007863    0.000012489   -0.000054465
  36   H   :   -0.000005333   -0.000039502    0.000017204
  37   H   :    0.000034704   -0.000086589    0.000065684
  38   H   :   -0.000070594    0.000092525    0.000073789
  39   H   :    0.000057789   -0.000023219   -0.000018054
  40   H   :    0.000095952   -0.000057084   -0.000040394
  41   H   :    0.000016412    0.000007403    0.000042446

Difference to translation invariance:
           :    0.0000000000   -0.0000000000   -0.0000000000

Difference to rotation invariance:
           :    0.0001116102   -0.0007843586    0.0003359176

Norm of the Cartesian gradient     ...    0.0005512710
RMS gradient                       ...    0.0000497064
MAX gradient                       ...    0.0002034703

-------
TIMINGS
-------

Total SCF gradient time     ....       48.685 sec

Densities                   ....       0.007 sec  (  0.0%)
One electron gradient       ....       2.023 sec  (  4.2%)
RI-J Coulomb gradient       ....       9.210 sec  ( 18.9%)
XC gradient                 ....      23.530 sec  ( 48.3%)
CPCM gradient               ....       7.948 sec  ( 16.3%)
   A-Matrix (El+Nuc)        ....       0.273 sec  (  0.6%)
   Potential                ....       7.675 sec  ( 15.8%)
SMD gradient                ....       0.046 sec  (  0.1%)

Maximum memory used throughout the entire SCFGRAD-calculation: 84.6 MB

------------------------------------------------------------------------------
                              ORCA PROPERTY CALCULATIONS
------------------------------------------------------------------------------

GBWName                                 ... xtb_opt.gbw
Number of atoms                         ...     41
Number of basis functions               ...    539
Max core memory                         ...   1024 MB

Electric properties:
Dipole moment                           ... YES
Quadrupole moment                       ...  NO
Static polarizability (Dipole/Dipole)   ...  NO
Static polarizability (Dipole/Quad.)    ...  NO
Static polarizability (Quad./Quad.)     ...  NO
Static polarizability (Velocity)        ...  NO

Atomic electric properties:
Dipole moment                           ...  NO
Quadrupole moment                       ...  NO
Static polarizability                   ...  NO

Choice of electric origin               ... Center of mass
Position of electric origin             ...     0.043331     0.125827     0.027277

General magnetic properties:
Magnetizability                         ...  NO

EPR properties:
g-Tensor (aka g-matrix)                 ...  NO
Zero-Field splitting spin-orbit         ...  NO
Zero-field splitting spin-spin          ...  NO
Hyperfine couplings                     ...  NO (   0 nuclei)
Quadrupole couplings                    ...  NO (   0 nuclei)
Contact density                         ...  NO (   0 nuclei)

NMR properties:
Chemical shifts                         ...  NO (   0 nuclei)
Spin-rotation constants                 ...  NO (   0 nuclei)
Spin-spin couplings                     ...  NO (   0 nuclei,    0 pairs)

Choice of magnetic origin               ... GIAO
Position of magnetic origin             ...     0.000000     0.000000     0.000000

Properties with geometric perturbations:
SCF Hessian                             ...  NO
IR spectrum                             ...  NO
VCD spectrum                            ...  NO
X-ray spectroscopy properties:
SCF XES/XAS/RIXS spectra                ...  NO


-------------
DIPOLE MOMENT
-------------

Method             : SCF
Type of density    : Electron Density
Multiplicity       :   1
Irrep              :   0
Energy             : -2932.5111968010601231 Eh
Relativity type    : 
Basis              : AO
                                X                 Y                 Z
Electronic contribution:     -3.213958664      -0.473693522     -18.983886232
Nuclear contribution   :      3.677000540      -0.455908607      20.946331881
                        -----------------------------------------
Total Dipole Moment    :      0.463041875      -0.929602129       1.962445650
                        -----------------------------------------
Magnitude (a.u.)       :      2.220306471
Magnitude (Debye)      :      5.643570546



--------------------
Rotational spectrum 
--------------------
 
Rotational constants in cm-1:             0.012392             0.004373             0.004075 
Rotational constants in MHz :           371.509827           131.098476           122.164201 

Dipole components along the rotational axes: 
x,y,z [a.u.] :     0.621455     1.992359    -0.757668 
x,y,z [Debye]:     1.579614     5.064173    -1.925839 

 

Dipole moment calculation done in   0.1 sec 

Maximum memory used throughout the entire PROP-calculation: 51.4 MB

--------------------------------
SUGGESTED CITATIONS FOR THIS RUN
--------------------------------

Below you find a list of papers that are relevant to this ORCA run
We neither can nor want to force you to cite these papers, but we appreciate if you do
You receive ORCA, which is the product of decades of hard work by many enthusiastic individuals, for free
The only thing we kindly ask in return is that you cite our papers,
We deeply appreciate it, if you show your appreciation for ORCA by not just citing the generic ORCA reference.

Please note that relegating all ORCA citations to the supporting information does *not* help us.
SI sections are not indexed - citations you put there will not count into any citation statistics
But we need these citations in order to attract the funding resources that allow us to do what we are doing

Therefore, if you are a happy ORCA user, please consider citing a few of the papers listed below in the main body of your paper

In addition to the list printed below, the program has created the file xtb_opt.bibtex that contains the list in bibtex format
You can import this file easily into all common literature databanks and citation aid programs


List of essential papers. We consider these as the minimum necessary citations

  1. Neese,F.
     Software update: the ORCA program system, version 5.0
     WIRES Comput. Molec. Sci., 2022 12(1)e1606
     doi.org/10.1002/wcms.1606
  2. Grimme,S.; Hansen,A.; Ehlert,S.; Mewes,J.
     r2SCAN-3c: A 'Swiss army knife' composite electronic-structure method
     J. Chem. Phys., 2021 154 064103
     doi.org/10.1063/5.0040021

List of papers to cite with high priority. The work reported in these papers was absolutely
necessary for this run to complete.
Our perspective: the developers of density functionals and basis sets usually get cited in chemistry papers
Good! But without the algorithms to do something with them, the functionals or basis sets would not do anything.
Hence, in our opinion, the algorithm design and method developments papers are equally worthy of getting cited

  1. Neese,F.
     An improvement of the resolution of the identity approximation for the formation of the Coulomb matrix
     J. Comp. Chem., 2003 24(14)1740-1747
     doi.org/10.1002/jcc.10318
  2. Garcia-Rates,M.; Neese,F.
     Effect of the Solute Cavity on the Solvation Energy and its Derivatives within the Framework of the Gaussian Charge Scheme
     J. Comput. Chem., 2020 41 922-939
     doi.org/10.1002/jcc.26139
  3. Neese,F.
     The SHARK Integral Generation and Digestion System
     J. Comp. Chem., 2022  1-16
     doi.org/10.1002/jcc.26942
  4. Lehtola,S.; Steigemann,C.; Oliveira,M.; Marques,M.
     Recent developments in Libxc - A comprehensive library of functionals for density functional theory
     Software X, 2018 7 
     doi.org/10.1016/j.softx.2017.11.002
  5. Caldeweyher,E.; Bannwarth,C.; Grimme,S.
     Extension of the D3 dispersion coefficient model
     J. Chem. Phys., 2017 147 034112-XXXX
     doi.org/10.1063/1.4993215
  6. Caldeweyher,E.; Ehlert,S.; Hansen,A.; Neugebauer,H.; Spicher,S.; Bannwarth,C.; Grimme,S.
     A generally applicable atomic-charge dependent London dispersion correction
     J. Chem. Phys., 2019 150 154122-XXXX
     doi.org/10.1063/1.5090222
  7. Caldeweyher,E.; Mewes,J.; Ehlert,S.; Grimme,S.
     Extension and evaluation of the D4 London-dispersion model for periodic systems
     Phys. Chem. Chem. Phys., 2020 22(16)8499-8512
     doi.org/10.1039/D0CP00502A

List of suggested additional citations. These are papers that are important in the 'surrounding' of 
of this run, or papers that preceded the highly important papers. If you like your results we are grateful for a citation.

  1. Neese,F.
     The ORCA program system
     WIRES Comput. Molec. Sci., 2012 2(1)73-78
     doi.org/10.1002/wcms.81
  2. Neese,F.
     Software update: the ORCA program system, version 4.0
     WIRES Comput. Molec. Sci., 2018 8(1)1-6
     doi.org/10.1002/wcms.1327
  3. Neese,F.; Wennmohs,F.; Becker,U.; Riplinger,C.
     The ORCA quantum chemistry program package
     J. Chem. Phys., 2020 152 Art. No. L224108
     doi.org/10.1063/5.0004608

List of optional additional citations

  1. Neese,F.
     Approximate second-order SCF convergence for spin unrestricted wavefunctions
     Chem. Phys. Lett., 2000 325(1-3)93-98
     doi.org/10.1016/s0009-2614(00)00662-x

Timings for individual modules:

Sum of individual times          ...      101.134 sec (=   1.686 min)
Startup calculation              ...        4.181 sec (=   0.070 min)   4.1 %
SCF iterations                   ...       47.793 sec (=   0.797 min)  47.3 %
Property calculations            ...        0.278 sec (=   0.005 min)   0.3 %
SCF Gradient evaluation          ...       48.882 sec (=   0.815 min)  48.3 %
                             ****ORCA TERMINATED NORMALLY****
TOTAL RUN TIME: 0 days 0 hours 1 minutes 42 seconds 242 msec
  ------------------------------------------------------------------------
          * successful ORCA run, taking over control again...

         :::::::::::::::::::::::::::::::::::::::::::::::::::::
         ::                  ORCA SUMMARY                   ::
         :::::::::::::::::::::::::::::::::::::::::::::::::::::
         :: total energy           -2932.486571136909 Eh    ::
         :: gradient norm              0.000551271000 Eh/a0 ::
         :: HOMO-LUMO gap              0.000000000000 eV    ::
         :::::::::::::::::::::::::::::::::::::::::::::::::::::

      ----------------------------------------------------------- 
     |                       L-ANC optimizer                     |
      ----------------------------------------------------------- 
          low memory version by Sebastian Ehlert

          ...................................................
          :                      SETUP                      :
          :.................................................:
          :   energy convergence        0.5000000E-05 Eh    :
          :   grad. convergence         0.1000000E-02 Eh/a0 :
          :   optimization log               true           :
          :   writing optlog all                1     steps :
          :   Hessian reset                     8     steps :
          :   maximium step len.        1.0000000     a0    :
          :   LBFGS images                      8           :
          ...................................................
 * calculating model hessian...
Using Lindh-Hessian (1995)
 Shifting diagonal of input Hessian by   1.001347301895294E-002
 Lowest  eigenvalues of input Hessian
    0.010000    0.000000    0.000000    0.000000    0.000000    0.000000
    0.000000    0.010029    0.010465    0.010514    0.010722    0.011333
    0.011690    0.011788    0.011907    0.012160    0.012384    0.013003
 Highest eigenvalues
    1.288269    1.296450    1.723085    1.733314    1.869836    1.903778
 

........................................................................
.............................. CYCLE    1 ..............................
........................................................................
                         * ORCA takes the control...
  ------------------------------------------------------------------------

                                 *****************
                                 * O   R   C   A *
                                 *****************

                                            #,                                       
                                            ###                                      
                                            ####                                     
                                            #####                                    
                                            ######                                   
                                           ########,                                 
                                     ,,################,,,,,                         
                               ,,#################################,,                 
                          ,,##########################################,,             
                       ,#########################################, ''#####,          
                    ,#############################################,,   '####,        
                  ,##################################################,,,,####,       
                ,###########''''           ''''###############################       
              ,#####''   ,,,,##########,,,,          '''####'''          '####       
            ,##' ,,,,###########################,,,                        '##       
           ' ,,###''''                  '''############,,,                           
         ,,##''                                '''############,,,,        ,,,,,,###''
      ,#''                                            '''#######################'''  
     '                                                          ''''####''''         
             ,#######,   #######,   ,#######,      ##                                
            ,#'     '#,  ##    ##  ,#'     '#,    #''#        ,####,   ,####,        
            ##       ##  ##   ,#'  ##            #'  '#       #'       #'  '#        
            ##       ##  #######   ##           ,######,      #####,   #    #        
            '#,     ,#'  ##    ##  '#,     ,#' ,#      #,     #,   #   #,  ,#        
             '#######'   ##     ##  '#######'  #'      '#     '####' # '####'        



                #########################################################
                #                        -***-                          #
                #          Department of theory and spectroscopy        #
                #                                                       #
                #                      Frank Neese                      #
                #                                                       #
                #     Directorship, Architecture, Infrastructure        #
                #                    SHARK, DRIVERS                     #
                #        Core code/Algorithms in most modules           #
                #                                                       #
                #        Max Planck Institute fuer Kohlenforschung      #
                #                Kaiser Wilhelm Platz 1                 #
                #                 D-45470 Muelheim/Ruhr                 #
                #                      Germany                          #
                #                                                       #
                #                  All rights reserved                  #
                #                        -***-                          #
                #########################################################


                         Program Version 6.0.0  -   RELEASE  -


 With contributions from (in alphabetic order):
   Daniel Aravena         : Magnetic Suceptibility
   Michael Atanasov       : Ab Initio Ligand Field Theory (pilot matlab implementation)
   Alexander A. Auer      : GIAO ZORA, VPT2 properties, NMR spectrum
   Ute Becker             : All parallelization in ORCA, NUMFREQ, NUMCALC
   Giovanni Bistoni       : ED, misc. LED, open-shell LED, HFLD
   Martin Brehm           : Molecular dynamics
   Dmytro Bykov           : pre 5.0 version of the SCF Hessian
   Marcos Casanova-Páez   : Triplet and SCS-CIS(D). UHF-(DLPNO)-IP/EA/STEOM-CCSD. UHF-CVS-IP/STEOM-CCSD
   Vijay G. Chilkuri      : MRCI spin determinant printing, contributions to CSF-ICE
   Pauline Colinet        : FMM embedding
   Dipayan Datta          : RHF DLPNO-CCSD density
   Achintya Kumar Dutta   : EOM-CC, STEOM-CC
   Nicolas Foglia         : Exact transition moments, OPA infrastructure, MCD improvements
   Dmitry Ganyushin       : Spin-Orbit,Spin-Spin,Magnetic field MRCI
   Miquel Garcia          : C-PCM and meta-GGA Hessian, CCSD/C-PCM, Gaussian charge scheme
   Tiago L. C. Gouveia    : GS-ROHF, GS-ROCIS
   Yang Guo               : DLPNO-NEVPT2, F12-NEVPT2, CIM, IAO-localization
   Andreas Hansen         : Spin unrestricted coupled pair/coupled cluster methods
   Ingolf Harden          : AUTO-CI MPn and infrastructure 
   Benjamin Helmich-Paris : MC-RPA, TRAH-(SCF,CASSCF), AVAS, COSX integrals, SCF dyn. polar.
   Lee Huntington         : MR-EOM, pCC
   Robert Izsak           : Overlap fitted RIJCOSX, COSX-SCS-MP3, EOM
   Riya Kayal             : Wick's Theorem for AUTO-CI, AUTO-CI UHF-CCSDT
   Emily Kempfer          : AUTO-CI, RHF CISDT and CCSDT
   Christian Kollmar      : KDIIS, OOCD, Brueckner-CCSD(T), CCSD density, CASPT2, CASPT2-K, improved NEVPT2
   Axel Koslowski         : Symmetry handling
   Simone Kossmann        : Meta GGA functionals, TD-DFT gradient, OOMP2, (MP2 Hessian; deprecated post 5.0)
   Lucas Lang             : DCDCAS
   Marvin Lechner         : AUTO-CI (C++ implementation), FIC-MRCC
   Spencer Leger          : CASSCF response
   Dagmar Lenk            : GEPOL surface, SMD, ORCA-2-JSON
   Dimitrios Liakos       : Extrapolation schemes; Compound Job, initial MDCI parallelization
   Dimitrios Manganas     : Further ROCIS development; embedding schemes. LFT, Crystal Embedding
   Dimitrios Pantazis     : SARC Basis sets
   Anastasios Papadopoulos: AUTO-CI, single reference methods and gradients
   Taras Petrenko         : pre 6.0 DFT Hessian and TD-DFT gradient, (ASA, deprecated), ECA, 1-Electron XAS/XES, NRVS
   Peter Pinski           : DLPNO-MP2, DLPNO-MP2 Gradient
   Christoph Reimann      : Effective Core Potentials
   Marius Retegan         : Local ZFS, SOC
   Christoph Riplinger    : Optimizer, TS searches, QM/MM, DLPNO-CCSD(T), (RO)-DLPNO pert. Triples
   Michael Roemelt        : Original ROCIS implementation
   Masaaki Saitow         : Open-shell DLPNO-CCSD energy and density
   Barbara Sandhoefer     : DKH picture change effects
   Kantharuban Sivalingam : CASSCF convergence/infrastructure, NEVPT2 and variants, FIC-MRCI
   Bernardo de Souza      : ESD, SOC TD-DFT
   Georgi Stoychev        : AutoAux, RI-MP2 NMR, DLPNO-MP2 response, X2C
   Van Anh Tran           : RI-MP2 g-tensors
   Willem Van den Heuvel  : Paramagnetic NMR
   Zikuan Wang            : NOTCH, Electric field optimization 
   Frank Wennmohs         : Technical directorship and infrastructure
   Hang Xu                : AUTO-CI-Response properties 


 We gratefully acknowledge several colleagues who have allowed us to
 interface, adapt or use parts of their codes:
   Stefan Grimme, W. Hujo, H. Kruse, P. Pracht,  : VdW corrections, initial TS optimization,
                  C. Bannwarth, S. Ehlert,         DFT functionals, gCP, sTDA/sTD-DF
                  L. Wittmann, M. Mueller
   Ed Valeev, F. Pavosevic, A. Kumar             : LibInt (2-el integral package), F12 methods
   Garnet Chan, S. Sharma, J. Yang, R. Olivares  : DMRG
   Ulf Ekstrom                                   : XCFun DFT Library
   Mihaly Kallay                                 : mrcc  (arbitrary order and MRCC methods)
   Frank Weinhold                                : gennbo (NPA and NBO analysis)
   Simon Mueller                                 : openCOSMO-RS
   Christopher J. Cramer and Donald G. Truhlar   : smd solvation model
   Lars Goerigk                                  : TD-DFT with DH, B97 family of functionals
   V. Asgeirsson, H. Jonsson                     : NEB implementation
   FAccTs GmbH                                   : IRC, NEB, NEB-TS, DLPNO-Multilevel, CI-OPT
                                                   MM, QMMM, 2- and 3-layer-ONIOM, Crystal-QMMM,
                                                   LR-CPCM, SF, NACMEs, symmetry and pop. for TD-DFT,
                                                   nearIR, NL-DFT gradient (VV10), updates on ESD,
                                                   ML-optimized integration grids, MBIS, APM,
                                                   GOAT, DOCKER, SOLVATOR, interface openCOSMO-RS
   S Lehtola, MJT Oliveira, MAL Marques          : LibXC Library
   Liviu Ungur et al                             : ANISO software


 Your calculation uses the libint2 library for the computation of 2-el integrals
 For citations please refer to: http://libint.valeyev.net

 Your ORCA version has been built with support for libXC version: 6.2.2
 For citations please refer to: https://libxc.gitlab.io

 This ORCA versions uses:
   CBLAS   interface :  Fast vector & matrix operations
   LAPACKE interface :  Fast linear algebra routines
   SCALAPACK package :  Parallel linear algebra routines
   Shared memory     :  Shared parallel matrices
   BLAS/LAPACK       :  OpenBLAS 0.3.27  USE64BITINT DYNAMIC_ARCH NO_AFFINITY SapphireRapids SINGLE_THREADED
        Core in use  :  SapphireRapids
   Copyright (c) 2011-2014, The OpenBLAS Project




***************************************
The coordinates will be read from file: xtb_opt.xyz
***************************************


Your calculation utilizes the geometrical counterpoise correction gCP
Please cite in your paper:
H.Kruse, S. Grimme J.Chem.Phys., 136, (2012), 154101 
   

Your calculation utilizes the atom-pairwise dispersion correction
based on EEQ partial charges (D4)


Your calculation utilizes the SMD solvation module
Please cite in your paper:
A.V. Marenich, C.J. Cramer, D.G. Truhlar J. Phys. Chem. B, 113, (2009), 6378 

================================================================================

----- Orbital basis set information -----
Your calculation utilizes the basis: def2-mTZVPP
   Stefan Grimme, Andreas Hansen, Sebastian Ehlert, and Jan-Michael Mewes 
   J. Chem. Phys. 154, 064103 (2021). DOI: 10.1063/5.0040021

----- AuxJ basis set information -----
Your calculation utilizes the auxiliary basis: def2/J
   F. Weigend, Phys. Chem. Chem. Phys. 8, 1057 (2006).

================================================================================
                                        WARNINGS
                       Please study these warnings very carefully!
================================================================================

WARNING: Old DensityContainer found on disk!
         Will remove this file - 
         If you want to keep old densities, please start your calculation with a different basename. 

Using LibXC functional ID 497 : Re-regularized SCAN exchange by Furness et al
[ 1]  J. W. Furness, A. D. Kaplan, J. Ning, J. P. Perdew, and J. Sun.,  J. Phys. Chem. Lett. 11, 8208-8215 (2020)
[ 2]  J. W. Furness, A. D. Kaplan, J. Ning, J. P. Perdew, and J. Sun.,  J. Phys. Chem. Lett. 11, 9248-9248 (2020)
Using LibXC functional ID 498 : Re-regularized SCAN correlation by Furness et al
[ 1]  J. W. Furness, A. D. Kaplan, J. Ning, J. P. Perdew, and J. Sun.,  J. Phys. Chem. Lett. 11, 8208-8215 (2020)
[ 2]  J. W. Furness, A. D. Kaplan, J. Ning, J. P. Perdew, and J. Sun.,  J. Phys. Chem. Lett. 11, 9248-9248 (2020)
Using LibXC functional ID 497 : Re-regularized SCAN exchange by Furness et al
[ 1]  J. W. Furness, A. D. Kaplan, J. Ning, J. P. Perdew, and J. Sun.,  J. Phys. Chem. Lett. 11, 8208-8215 (2020)
[ 2]  J. W. Furness, A. D. Kaplan, J. Ning, J. P. Perdew, and J. Sun.,  J. Phys. Chem. Lett. 11, 9248-9248 (2020)
Using LibXC functional ID 498 : Re-regularized SCAN correlation by Furness et al
[ 1]  J. W. Furness, A. D. Kaplan, J. Ning, J. P. Perdew, and J. Sun.,  J. Phys. Chem. Lett. 11, 8208-8215 (2020)
[ 2]  J. W. Furness, A. D. Kaplan, J. Ning, J. P. Perdew, and J. Sun.,  J. Phys. Chem. Lett. 11, 9248-9248 (2020)

================================================================================
                                       INPUT FILE
================================================================================
NAME = xtb_opt.inp
|  1> ! r2scan-3c def2/J RI DEFGRID2 scfconv7 ENGRAD tightSCF miniprint
|  2> %cpcm
|  3>     smd true
|  4>     smdsolvent "water"
|  5> end
|  6> * xyzfile 0 1 xtb_opt.xyz
|  7> 
|  8>                          ****END OF INPUT****
================================================================================

                     *******************************
                     * Energy+Gradient Calculation *
                     *******************************

---------------------------------
CARTESIAN COORDINATES (ANGSTROEM)
---------------------------------
  C      3.051803   -0.206815    3.375303
  C      1.701771   -0.439938    2.743966
  O      1.576962    0.246898    1.448464
  P      2.335487   -0.272726    0.133894
  S      2.585410   -2.195156   -0.048192
  O      3.662955    0.641368    0.175402
  C      4.757098    0.409913   -0.779409
  C      5.809340    1.453229   -0.509447
  S      1.245431    0.684788   -1.411965
  C      0.044295   -0.634669   -1.845637
  S     -1.173654   -1.104287   -0.559757
  P     -2.444858    0.604060   -0.549870
  S     -2.771004    1.421508   -2.282581
  O     -1.863686    1.668108    0.494951
  C     -1.591224    1.325802    1.905505
  C     -2.665720    1.906632    2.789302
  O     -3.689691   -0.004721    0.266343
  C     -4.624322   -0.947478   -0.371479
  C     -5.094023   -1.908476    0.688656
  H      3.047488   -0.645191    4.378671
  H      3.853210   -0.681058    2.800927
  H      3.261672    0.862702    3.466606
  H      0.896332   -0.004098    3.338918
  H      1.496386   -1.503541    2.588580
  H      5.136140   -0.603918   -0.620806
  H      4.356526    0.491254   -1.795550
  H      5.413841    2.460583   -0.666338
  H      6.186067    1.371002    0.514045
  H      6.645028    1.298367   -1.198604
  H      0.586039   -1.552919   -2.089300
  H     -0.483222   -0.273145   -2.733648
  H     -1.514359    0.238974    2.008992
  H     -0.614632    1.768571    2.110849
  H     -3.639954    1.456433    2.582583
  H     -2.405505    1.705075    3.833722
  H     -2.735034    2.989961    2.656453
  H     -5.443323   -0.351668   -0.783587
  H     -4.115242   -1.468215   -1.188707
  H     -4.259284   -2.500614    1.075144
  H     -5.568558   -1.375258    1.517270
  H     -5.829061   -2.590224    0.249904

----------------------------
CARTESIAN COORDINATES (A.U.)
----------------------------
  NO LB      ZA    FRAG     MASS         X           Y           Z
   0 C     6.0000    0    12.011    5.767072   -0.390825    6.378399
   1 C     6.0000    0    12.011    3.215881   -0.831362    5.185345
   2 O     8.0000    0    15.999    2.980026    0.466569    2.737200
   3 P    15.0000    0    30.974    4.413430   -0.515377    0.253022
   4 S    16.0000    0    32.060    4.885717   -4.148243   -0.091070
   5 O     8.0000    0    15.999    6.921982    1.212009    0.331462
   6 C     6.0000    0    12.011    8.989612    0.774624   -1.472869
   7 C     6.0000    0    12.011   10.978061    2.746204   -0.962715
   8 S    16.0000    0    32.060    2.353524    1.294062   -2.668227
   9 C     6.0000    0    12.011    0.083706   -1.199351   -3.487749
  10 S    16.0000    0    32.060   -2.217884   -2.086799   -1.057787
  11 P    15.0000    0    30.974   -4.620112    1.141509   -1.039103
  12 S    16.0000    0    32.060   -5.236439    2.686262   -4.313453
  13 O     8.0000    0    15.999   -3.521856    3.152268    0.935323
  14 C     6.0000    0    12.011   -3.006978    2.505403    3.600883
  15 C     6.0000    0    12.011   -5.037481    3.603011    5.271018
  16 O     8.0000    0    15.999   -6.972506   -0.008921    0.503316
  17 C     6.0000    0    12.011   -8.738703   -1.790474   -0.701993
  18 C     6.0000    0    12.011   -9.626309   -3.606498    1.301371
  19 H     1.0000    0     1.008    5.758917   -1.219235    8.274489
  20 H     1.0000    0     1.008    7.281512   -1.287012    5.292986
  21 H     1.0000    0     1.008    6.163668    1.630271    6.550935
  22 H     1.0000    0     1.008    1.693821   -0.007743    6.309641
  23 H     1.0000    0     1.008    2.827760   -2.841280    4.891707
  24 H     1.0000    0     1.008    9.705898   -1.141240   -1.173153
  25 H     1.0000    0     1.008    8.232641    0.928335   -3.393097
  26 H     1.0000    0     1.008   10.230677    4.649828   -1.259197
  27 H     1.0000    0     1.008   11.689973    2.590819    0.971404
  28 H     1.0000    0     1.008   12.557283    2.453557   -2.265032
  29 H     1.0000    0     1.008    1.107454   -2.934591   -3.948205
  30 H     1.0000    0     1.008   -0.913158   -0.516169   -5.165847
  31 H     1.0000    0     1.008   -2.861724    0.451595    3.796444
  32 H     1.0000    0     1.008   -1.161485    3.342116    3.988926
  33 H     1.0000    0     1.008   -6.878515    2.752259    4.880374
  34 H     1.0000    0     1.008   -4.545745    3.222125    7.244685
  35 H     1.0000    0     1.008   -5.168464    5.650207    5.019969
  36 H     1.0000    0     1.008  -10.286390   -0.664556   -1.480765
  37 H     1.0000    0     1.008   -7.776680   -2.774525   -2.246330
  38 H     1.0000    0     1.008   -8.048881   -4.725475    2.031729
  39 H     1.0000    0     1.008  -10.523050   -2.598861    2.867225
  40 H     1.0000    0     1.008  -11.015329   -4.894813    0.472250

------------------------------------------------------------------------------
                   ___                                                        
                  /   \      - P O W E R E D   B Y -                         
                 /     \                                                     
                 |  |  |   _    _      __       _____    __    __             
                 |  |  |  | |  | |    /  \     |  _  \  |  |  /  |          
                  \  \/   | |  | |   /    \    | | | |  |  | /  /          
                 / \  \   | |__| |  /  /\  \   | |_| |  |  |/  /          
                |  |  |   |  __  | /  /__\  \  |    /   |      \           
                |  |  |   | |  | | |   __   |  |    \   |  |\   \          
                \     /   | |  | | |  |  |  |  | |\  \  |  | \   \       
                 \___/    |_|  |_| |__|  |__|  |_| \__\ |__|  \__/        
                                                                              
                      - O R C A' S   B I G   F R I E N D -                    
                                      &                                       
                       - I N T E G R A L  F E E D E R -                       
                                                                              
 v1 FN, 2020, v2 2021, v3 2022-2024                                           
------------------------------------------------------------------------------


----------------------
SHARK INTEGRAL PACKAGE
----------------------

Number of atoms                             ...     41
Number of basis functions                   ...    539
Number of shells                            ...    253
Maximum angular momentum                    ...      2
Integral batch strategy                     ... SHARK/LIBINT Hybrid
RI-J (if used) integral strategy            ... SPLIT-RIJ (Revised 2003 algorithm where possible)
Printlevel                                  ...      1
Contraction scheme used                     ... SEGMENTED contraction
Prescreening option                         ... SCHWARTZ
   Thresh                                   ... 3.000e-11
   Tcut                                     ... 1.000e-12
   Tpresel                                  ... 1.000e-12 
Coulomb Range Separation                    ... NOT USED
Exchange Range Separation                   ... NOT USED
Multipole approximations                    ... NOT USED
Finite Nucleus Model                        ... NOT USED
CABS basis                                  ... NOT available
Auxiliary Coulomb fitting basis             ... AVAILABLE
   # of basis functions in Aux-J            ...   1185
   # of shells in Aux-J                     ...    407
   Maximum angular momentum in Aux-J        ...      4
Auxiliary J/K fitting basis                 ... NOT available
Auxiliary Correlation fitting basis         ... NOT available
Auxiliary 'external' fitting basis          ... NOT available

Checking pre-screening integrals            ... done (  0.0 sec) Dimension = 253
Check shell pair data                       ... done (  0.0 sec)
Shell pair information
Shell pair cut-off parameter TPreSel        ...   1.0e-12
Total number of shell pairs                 ...     32131
Shell pairs after pre-screening             ...     21209
Total number of primitive shell pairs       ...    124843
Primitive shell pairs kept                  ...     49747
          la=0 lb=0:   5992 shell pairs
          la=1 lb=0:   7700 shell pairs
          la=1 lb=1:   2531 shell pairs
          la=2 lb=0:   2826 shell pairs
          la=2 lb=1:   1813 shell pairs
          la=2 lb=2:    347 shell pairs

[...]
CPCM gradient                     ... done (  8.0 sec)
SMD gradient                      ... done (  0.0 sec)
Dispersion correction             ... done (  0.0 sec)

-------------------
DISPERSION GRADIENT
-------------------

   1   C   :    0.000051979   -0.000007048    0.000155346
   2   C   :    0.000053380   -0.000042719    0.000154378
   3   O   :    0.000064067    0.000007399    0.000106741
   4   P   :    0.000165138   -0.000089025   -0.000040774
   5   S   :    0.000109387   -0.000290569   -0.000043910
   6   O   :    0.000092865    0.000044762   -0.000024759
   7   C   :    0.000115249    0.000022674   -0.000062365
   8   C   :    0.000121898    0.000067524   -0.000027517
   9   S   :    0.000086632    0.000071642   -0.000250670
  10   C   :    0.000011913   -0.000057923   -0.000149715
  11   S   :   -0.000062999   -0.000173375   -0.000172318
  12   P   :   -0.000168561    0.000099178   -0.000136630
  13   S   :   -0.000121862    0.000164571   -0.000238647
  14   O   :   -0.000060881    0.000121644    0.000040677
  15   C   :   -0.000067841    0.000101995    0.000124300
  16   C   :   -0.000048989    0.000095177    0.000135513
  17   O   :   -0.000102327   -0.000016874   -0.000000868
  18   C   :   -0.000117143   -0.000064804   -0.000023949
  19   C   :   -0.000111492   -0.000096449    0.000033105
  20   H   :    0.000012721   -0.000003326    0.000048993
  21   H   :    0.000013702   -0.000008791    0.000063967
  22   H   :    0.000015107    0.000014169    0.000062638
  23   H   :    0.000022914   -0.000004754    0.000077875
  24   H   :    0.000021619   -0.000037265    0.000059762
  25   H   :    0.000053708   -0.000004812   -0.000018809
  26   H   :    0.000046510    0.000020755   -0.000029333
  27   H   :    0.000040658    0.000032407   -0.000008306
  28   H   :    0.000049058    0.000026494   -0.000006520
  29   H   :    0.000032548    0.000014308   -0.000009978
  30   H   :    0.000005700   -0.000041455   -0.000047086
  31   H   :    0.000000931   -0.000005303   -0.000060191
  32   H   :   -0.000039686    0.000024613    0.000061489
  33   H   :   -0.000027559    0.000069713    0.000057212
  34   H   :   -0.000012888    0.000038473    0.000056141
  35   H   :   -0.000017434    0.000025306    0.000046695
  36   H   :   -0.000009607    0.000036273    0.000037992
  37   H   :   -0.000054953   -0.000012418   -0.000005903
  38   H   :   -0.000046830   -0.000032700   -0.000008143
  39   H   :   -0.000044694   -0.000050778    0.000019869
  40   H   :   -0.000043902   -0.000031709    0.000016189
  41   H   :   -0.000028034   -0.000026978    0.000007510

Difference to translation invariance:
           :   -0.0000000000    0.0000000000    0.0000000000

Difference to rotation invariance:
           :   -0.0000000000    0.0000000000   -0.0000000000

Norm of the Dispersion gradient    ...    0.0008919093
RMS gradient                       ...    0.0000804208
MAX gradient                       ...    0.0002905687
gCP correction                   ... done

------------------
CARTESIAN GRADIENT
------------------

   1   C   :   -0.000011575   -0.000016400    0.000019069
   2   C   :   -0.000008422    0.000019775   -0.000023050
   3   O   :    0.000051987   -0.000015045    0.000048065
   4   P   :   -0.000090033   -0.000059286   -0.000008697
   5   S   :    0.000036047   -0.000030290    0.000029083
   6   O   :   -0.000076114   -0.000013045   -0.000036952
   7   C   :    0.000013993   -0.000002450    0.000002638
   8   C   :    0.000011250   -0.000008450    0.000013514
   9   S   :    0.000096924    0.000192495   -0.000183904
  10   C   :    0.000003278    0.000139609    0.000180985
  11   S   :   -0.000079770   -0.000305891    0.000020362
  12   P   :    0.000086416    0.000029341   -0.000045795
  13   S   :   -0.000028109    0.000013752   -0.000003850
  14   O   :   -0.000095310    0.000077974    0.000046914
  15   C   :   -0.000015516    0.000019159   -0.000045010
  16   C   :    0.000008406    0.000013641    0.000007554
  17   O   :    0.000020934    0.000079548   -0.000108724
  18   C   :    0.000023704   -0.000040319    0.000066396
  19   C   :    0.000056247   -0.000024308   -0.000022620
  20   H   :   -0.000022695    0.000016158    0.000024116
  21   H   :   -0.000006559   -0.000031378    0.000021832
  22   H   :    0.000002718    0.000001648   -0.000014371
  23   H   :   -0.000011813   -0.000012086    0.000003341
  24   H   :   -0.000003568   -0.000004302   -0.000016494
  25   H   :    0.000001734   -0.000003051   -0.000010785
  26   H   :    0.000008207    0.000015857    0.000004724
  27   H   :    0.000024695   -0.000001373    0.000012386
  28   H   :    0.000008101   -0.000009721    0.000008741
  29   H   :    0.000011427   -0.000008512    0.000015230
  30   H   :   -0.000044431   -0.000021287    0.000019826
  31   H   :    0.000014798    0.000017156   -0.000017995
  32   H   :   -0.000028551    0.000003869   -0.000018459
  33   H   :    0.000002353   -0.000007386   -0.000018912
  34   H   :   -0.000015222    0.000006570   -0.000001722
  35   H   :    0.000007399   -0.000000363    0.000008976
  36   H   :    0.000001288    0.000020947   -0.000001718
  37   H   :   -0.000056957   -0.000007909    0.000019500
  38   H   :    0.000002844    0.000017826   -0.000046753
  39   H   :    0.000041389   -0.000020777   -0.000024395
  40   H   :    0.000045411   -0.000019790    0.000049769
  41   H   :    0.000013098   -0.000021907    0.000027183

Difference to translation invariance:
           :   -0.0000000000    0.0000000000   -0.0000000000

Difference to rotation invariance:
           :    0.0000863442   -0.0007848887    0.0003320661

Norm of the Cartesian gradient     ...    0.0005921816
RMS gradient                       ...    0.0000533952
MAX gradient                       ...    0.0003058910

-------
TIMINGS
-------

Total SCF gradient time     ....       47.281 sec

Densities                   ....       0.007 sec  (  0.0%)
One electron gradient       ....       1.968 sec  (  4.2%)
RI-J Coulomb gradient       ....       9.204 sec  ( 19.5%)
XC gradient                 ....      22.212 sec  ( 47.0%)
CPCM gradient               ....       7.968 sec  ( 16.9%)
   A-Matrix (El+Nuc)        ....       0.272 sec  (  0.6%)
   Potential                ....       7.696 sec  ( 16.3%)
SMD gradient                ....       0.024 sec  (  0.0%)

Maximum memory used throughout the entire SCFGRAD-calculation: 84.5 MB

------------------------------------------------------------------------------
                              ORCA PROPERTY CALCULATIONS
------------------------------------------------------------------------------

GBWName                                 ... xtb_opt.gbw
Number of atoms                         ...     41
Number of basis functions               ...    539
Max core memory                         ...   1024 MB

Electric properties:
Dipole moment                           ... YES
Quadrupole moment                       ...  NO
Static polarizability (Dipole/Dipole)   ...  NO
Static polarizability (Dipole/Quad.)    ...  NO
Static polarizability (Quad./Quad.)     ...  NO
Static polarizability (Velocity)        ...  NO

Atomic electric properties:
Dipole moment                           ...  NO
Quadrupole moment                       ...  NO
Static polarizability                   ...  NO

Choice of electric origin               ... Center of mass
Position of electric origin             ...     0.043925     0.125070     0.027572

General magnetic properties:
Magnetizability                         ...  NO

EPR properties:
g-Tensor (aka g-matrix)                 ...  NO
Zero-Field splitting spin-orbit         ...  NO
Zero-field splitting spin-spin          ...  NO
Hyperfine couplings                     ...  NO (   0 nuclei)
Quadrupole couplings                    ...  NO (   0 nuclei)
Contact density                         ...  NO (   0 nuclei)

NMR properties:
Chemical shifts                         ...  NO (   0 nuclei)
Spin-rotation constants                 ...  NO (   0 nuclei)
Spin-spin couplings                     ...  NO (   0 nuclei,    0 pairs)

Choice of magnetic origin               ... GIAO
Position of magnetic origin             ...     0.000000     0.000000     0.000000

Properties with geometric perturbations:
SCF Hessian                             ...  NO
IR spectrum                             ...  NO
VCD spectrum                            ...  NO
X-ray spectroscopy properties:
SCF XES/XAS/RIXS spectra                ...  NO


-------------
DIPOLE MOMENT
-------------

Method             : SCF
Type of density    : Electron Density
Multiplicity       :   1
Irrep              :   0
Energy             : -2932.5111957729004644 Eh
Relativity type    : 
Basis              : AO
                                X                 Y                 Z
Electronic contribution:     -3.205285159      -0.484488405     -18.978771046
Nuclear contribution   :      3.666009215      -0.442287566      20.940411407
                        -----------------------------------------
Total Dipole Moment    :      0.460724057      -0.926775971       1.961640360
                        -----------------------------------------
Magnitude (a.u.)       :      2.217929949
Magnitude (Debye)      :      5.637529909



--------------------
Rotational spectrum 
--------------------
 
Rotational constants in cm-1:             0.012392             0.004374             0.004076 
Rotational constants in MHz :           371.508997           131.120823           122.188443 

Dipole components along the rotational axes: 
x,y,z [a.u.] :     0.618722     1.991463    -0.755296 
x,y,z [Debye]:     1.572665     5.061896    -1.919811 

 

Dipole moment calculation done in   0.1 sec 

Maximum memory used throughout the entire PROP-calculation: 51.4 MB

--------------------------------
SUGGESTED CITATIONS FOR THIS RUN
--------------------------------

Below you find a list of papers that are relevant to this ORCA run
We neither can nor want to force you to cite these papers, but we appreciate if you do
You receive ORCA, which is the product of decades of hard work by many enthusiastic individuals, for free
The only thing we kindly ask in return is that you cite our papers,
We deeply appreciate it, if you show your appreciation for ORCA by not just citing the generic ORCA reference.

Please note that relegating all ORCA citations to the supporting information does *not* help us.
SI sections are not indexed - citations you put there will not count into any citation statistics
But we need these citations in order to attract the funding resources that allow us to do what we are doing

Therefore, if you are a happy ORCA user, please consider citing a few of the papers listed below in the main body of your paper

In addition to the list printed below, the program has created the file xtb_opt.bibtex that contains the list in bibtex format
You can import this file easily into all common literature databanks and citation aid programs


List of essential papers. We consider these as the minimum necessary citations

  1. Neese,F.
     Software update: the ORCA program system, version 5.0
     WIRES Comput. Molec. Sci., 2022 12(1)e1606
     doi.org/10.1002/wcms.1606
  2. Grimme,S.; Hansen,A.; Ehlert,S.; Mewes,J.
     r2SCAN-3c: A 'Swiss army knife' composite electronic-structure method
     J. Chem. Phys., 2021 154 064103
     doi.org/10.1063/5.0040021

List of papers to cite with high priority. The work reported in these papers was absolutely
necessary for this run to complete.
Our perspective: the developers of density functionals and basis sets usually get cited in chemistry papers
Good! But without the algorithms to do something with them, the functionals or basis sets would not do anything.
Hence, in our opinion, the algorithm design and method developments papers are equally worthy of getting cited

  1. Neese,F.
     An improvement of the resolution of the identity approximation for the formation of the Coulomb matrix
     J. Comp. Chem., 2003 24(14)1740-1747
     doi.org/10.1002/jcc.10318
  2. Garcia-Rates,M.; Neese,F.
     Effect of the Solute Cavity on the Solvation Energy and its Derivatives within the Framework of the Gaussian Charge Scheme
     J. Comput. Chem., 2020 41 922-939
     doi.org/10.1002/jcc.26139
  3. Neese,F.
     The SHARK Integral Generation and Digestion System
     J. Comp. Chem., 2022  1-16
     doi.org/10.1002/jcc.26942
  4. Lehtola,S.; Steigemann,C.; Oliveira,M.; Marques,M.
     Recent developments in Libxc - A comprehensive library of functionals for density functional theory
     Software X, 2018 7 
     doi.org/10.1016/j.softx.2017.11.002
  5. Caldeweyher,E.; Bannwarth,C.; Grimme,S.
     Extension of the D3 dispersion coefficient model
     J. Chem. Phys., 2017 147 034112-XXXX
     doi.org/10.1063/1.4993215
  6. Caldeweyher,E.; Ehlert,S.; Hansen,A.; Neugebauer,H.; Spicher,S.; Bannwarth,C.; Grimme,S.
     A generally applicable atomic-charge dependent London dispersion correction
     J. Chem. Phys., 2019 150 154122-XXXX
     doi.org/10.1063/1.5090222
  7. Caldeweyher,E.; Mewes,J.; Ehlert,S.; Grimme,S.
     Extension and evaluation of the D4 London-dispersion model for periodic systems
     Phys. Chem. Chem. Phys., 2020 22(16)8499-8512
     doi.org/10.1039/D0CP00502A

List of suggested additional citations. These are papers that are important in the 'surrounding' of 
of this run, or papers that preceded the highly important papers. If you like your results we are grateful for a citation.

  1. Neese,F.
     The ORCA program system
     WIRES Comput. Molec. Sci., 2012 2(1)73-78
     doi.org/10.1002/wcms.81
  2. Neese,F.
     Software update: the ORCA program system, version 4.0
     WIRES Comput. Molec. Sci., 2018 8(1)1-6
     doi.org/10.1002/wcms.1327
  3. Neese,F.; Wennmohs,F.; Becker,U.; Riplinger,C.
     The ORCA quantum chemistry program package
     J. Chem. Phys., 2020 152 Art. No. L224108
     doi.org/10.1063/5.0004608

List of optional additional citations

  1. Neese,F.
     Approximate second-order SCF convergence for spin unrestricted wavefunctions
     Chem. Phys. Lett., 2000 325(1-3)93-98
     doi.org/10.1016/s0009-2614(00)00662-x

Timings for individual modules:

Sum of individual times          ...       97.051 sec (=   1.618 min)
Startup calculation              ...        3.244 sec (=   0.054 min)   3.3 %
SCF iterations                   ...       46.164 sec (=   0.769 min)  47.6 %
Property calculations            ...        0.199 sec (=   0.003 min)   0.2 %
SCF Gradient evaluation          ...       47.445 sec (=   0.791 min)  48.9 %
                             ****ORCA TERMINATED NORMALLY****
TOTAL RUN TIME: 0 days 0 hours 1 minutes 38 seconds 43 msec
  ------------------------------------------------------------------------
          * successful ORCA run, taking over control again...

         :::::::::::::::::::::::::::::::::::::::::::::::::::::
         ::                  ORCA SUMMARY                   ::
         :::::::::::::::::::::::::::::::::::::::::::::::::::::
         :: total energy           -2932.486574153020 Eh    ::
         :: gradient norm              0.000592181629 Eh/a0 ::
         :: HOMO-LUMO gap              0.000000000000 eV    ::
         :::::::::::::::::::::::::::::::::::::::::::::::::::::

           -------------------------------------------------
          |                Property Printout                |
           -------------------------------------------------
           -------------------------------------------------
          |                Geometry Summary                 |
           -------------------------------------------------

      molecular mass/u    :      384.4756129
   center of mass at/Å    :        0.0232401       0.0661682       0.0145300
  moments of inertia/u·Å² :        0.1360395E+04   0.3854382E+04   0.4136132E+04
rotational constants/cm⁻¹ :        0.1239172E-01   0.4373628E-02   0.4075700E-02

 * 34 selected distances

     #   Z          #   Z                                           value/Å
     1   6 C        2   6 C                                       1.5084822
     3   8 O        4  15 P                                       1.6042021
     4  15 P        5  16 S                                       1.9471399
     4  15 P        6   8 O                                       1.6122847
     7   6 C        8   6 C                                       1.5061875
     4  15 P        9  16 S                                       2.1200785
    11  16 S       12  15 P                                       2.1294386 (max)
    12  15 P       13  16 S                                       1.9434203
    12  15 P       14   8 O                                       1.6005032
    15   6 C       16   6 C                                       1.5076480
    12  15 P       17   8 O                                       1.6082374
    18   6 C       19   6 C                                       1.5059957
     1   6 C       20   1 H                                       1.0949611
     1   6 C       21   1 H                                       1.0941056
     1   6 C       22   1 H                                       1.0937318
     2   6 C       23   1 H                                       1.0920882
     2   6 C       24   1 H                                       1.0943396
     7   6 C       25   1 H                                       1.0939298
     7   6 C       26   1 H                                       1.0952699
     8   6 C       27   1 H                                       1.0935251
     8   6 C       28   1 H                                       1.0937184
     8   6 C       29   1 H                                       1.0942093
    10   6 C       30   1 H                                       1.0936360
    10   6 C       31   1 H                                       1.0943212
    15   6 C       32   1 H                                       1.0944471
    15   6 C       33   1 H                                       1.0917618 (min)
    16   6 C       34   1 H                                       1.0929514
    16   6 C       35   1 H                                       1.0950568
    16   6 C       36   1 H                                       1.0936435
    18   6 C       37   1 H                                       1.0934286
    18   6 C       38   1 H                                       1.0946195
    19   6 C       39   1 H                                       1.0939786
    19   6 C       40   1 H                                       1.0936668
    19   6 C       41   1 H                                       1.0943327

 * 4 distinct bonds (by element types)

   Z      Z             #   av. dist./Å        max./Å        min./Å
   1 H    6 C          22     1.0938965     1.0952699     1.0917618
   6 C    6 C           4     1.5070783     1.5084822     1.5059957
   8 O   15 P           4     1.6063068     1.6122847     1.6005032
  15 P   16 S           4     2.0350193     2.1294386     1.9434203


optimized geometry written to: xtbopt.coord


           -------------------------------------------------
          | TOTAL ENERGY            -2932.486574153020 Eh   |
          | GRADIENT NORM               0.000592181629 Eh/α |
           -------------------------------------------------

------------------------------------------------------------------------
 * finished run on 2025/04/10 at 19:54:13.029     
------------------------------------------------------------------------
 total:
 * wall-time:     0 d,  0 h,  4 min, 52.064 sec
 *  cpu-time:     0 d,  0 h,  0 min,  4.597 sec
 * ratio c/w:     0.016 speedup
 SCF:
 * wall-time:     0 d,  0 h,  1 min, 42.520 sec
 *  cpu-time:     0 d,  0 h,  0 min,  0.286 sec
 * ratio c/w:     0.003 speedup
 ANC optimizer:
 * wall-time:     0 d,  0 h,  3 min,  9.344 sec
 *  cpu-time:     0 d,  0 h,  0 min,  3.557 sec
 * ratio c/w:     0.019 speedup

