
                                 *****************
                                 * O   R   C   A *
                                 *****************

                                            #,                                       
                                            ###                                      
                                            ####                                     
                                            #####                                    
                                            ######                                   
                                           ########,                                 
                                     ,,################,,,,,                         
                               ,,#################################,,                 
                          ,,##########################################,,             
                       ,#########################################, ''#####,          
                    ,#############################################,,   '####,        
                  ,##################################################,,,,####,       
                ,###########''''           ''''###############################       
              ,#####''   ,,,,##########,,,,          '''####'''          '####       
            ,##' ,,,,###########################,,,                        '##       
           ' ,,###''''                  '''############,,,                           
         ,,##''                                '''############,,,,        ,,,,,,###''
      ,#''                                            '''#######################'''  
     '                                                          ''''####''''         
             ,#######,   #######,   ,#######,      ##                                
            ,#'     '#,  ##    ##  ,#'     '#,    #''#        ,####,   ,####,        
            ##       ##  ##   ,#'  ##            #'  '#       #'       #'  '#        
            ##       ##  #######   ##           ,######,      #####,   #    #        
            '#,     ,#'  ##    ##  '#,     ,#' ,#      #,     #,   #   #,  ,#        
             '#######'   ##     ##  '#######'  #'      '#     '####' # '####'        



                #########################################################
                #                        -***-                          #
                #          Department of theory and spectroscopy        #
                #                                                       #
                #                      Frank Neese                      #
                #                                                       #
                #     Directorship, Architecture, Infrastructure        #
                #                    SHARK, DRIVERS                     #
                #        Core code/Algorithms in most modules           #
                #                                                       #
                #        Max Planck Institute fuer Kohlenforschung      #
                #                Kaiser Wilhelm Platz 1                 #
                #                 D-45470 Muelheim/Ruhr                 #
                #                      Germany                          #
                #                                                       #
                #                  All rights reserved                  #
                #                        -***-                          #
                #########################################################


                         Program Version 6.0.0  -   RELEASE  -


 With contributions from (in alphabetic order):
   Daniel Aravena         : Magnetic Suceptibility
   Michael Atanasov       : Ab Initio Ligand Field Theory (pilot matlab implementation)
   Alexander A. Auer      : GIAO ZORA, VPT2 properties, NMR spectrum
   Ute Becker             : All parallelization in ORCA, NUMFREQ, NUMCALC
   Giovanni Bistoni       : ED, misc. LED, open-shell LED, HFLD
   Martin Brehm           : Molecular dynamics
   Dmytro Bykov           : pre 5.0 version of the SCF Hessian
   Marcos Casanova-Páez   : Triplet and SCS-CIS(D). UHF-(DLPNO)-IP/EA/STEOM-CCSD. UHF-CVS-IP/STEOM-CCSD
   Vijay G. Chilkuri      : MRCI spin determinant printing, contributions to CSF-ICE
   Pauline Colinet        : FMM embedding
   Dipayan Datta          : RHF DLPNO-CCSD density
   Achintya Kumar Dutta   : EOM-CC, STEOM-CC
   Nicolas Foglia         : Exact transition moments, OPA infrastructure, MCD improvements
   Dmitry Ganyushin       : Spin-Orbit,Spin-Spin,Magnetic field MRCI
   Miquel Garcia          : C-PCM and meta-GGA Hessian, CCSD/C-PCM, Gaussian charge scheme
   Tiago L. C. Gouveia    : GS-ROHF, GS-ROCIS
   Yang Guo               : DLPNO-NEVPT2, F12-NEVPT2, CIM, IAO-localization
   Andreas Hansen         : Spin unrestricted coupled pair/coupled cluster methods
   Ingolf Harden          : AUTO-CI MPn and infrastructure 
   Benjamin Helmich-Paris : MC-RPA, TRAH-(SCF,CASSCF), AVAS, COSX integrals, SCF dyn. polar.
   Lee Huntington         : MR-EOM, pCC
   Robert Izsak           : Overlap fitted RIJCOSX, COSX-SCS-MP3, EOM
   Riya Kayal             : Wick's Theorem for AUTO-CI, AUTO-CI UHF-CCSDT
   Emily Kempfer          : AUTO-CI, RHF CISDT and CCSDT
   Christian Kollmar      : KDIIS, OOCD, Brueckner-CCSD(T), CCSD density, CASPT2, CASPT2-K, improved NEVPT2
   Axel Koslowski         : Symmetry handling
   Simone Kossmann        : Meta GGA functionals, TD-DFT gradient, OOMP2, (MP2 Hessian; deprecated post 5.0)
   Lucas Lang             : DCDCAS
   Marvin Lechner         : AUTO-CI (C++ implementation), FIC-MRCC
   Spencer Leger          : CASSCF response
   Dagmar Lenk            : GEPOL surface, SMD, ORCA-2-JSON
   Dimitrios Liakos       : Extrapolation schemes; Compound Job, initial MDCI parallelization
   Dimitrios Manganas     : Further ROCIS development; embedding schemes. LFT, Crystal Embedding
   Dimitrios Pantazis     : SARC Basis sets
   Anastasios Papadopoulos: AUTO-CI, single reference methods and gradients
   Taras Petrenko         : pre 6.0 DFT Hessian and TD-DFT gradient, (ASA, deprecated), ECA, 1-Electron XAS/XES, NRVS
   Peter Pinski           : DLPNO-MP2, DLPNO-MP2 Gradient
   Christoph Reimann      : Effective Core Potentials
   Marius Retegan         : Local ZFS, SOC
   Christoph Riplinger    : Optimizer, TS searches, QM/MM, DLPNO-CCSD(T), (RO)-DLPNO pert. Triples
   Michael Roemelt        : Original ROCIS implementation
   Masaaki Saitow         : Open-shell DLPNO-CCSD energy and density
   Barbara Sandhoefer     : DKH picture change effects
   Kantharuban Sivalingam : CASSCF convergence/infrastructure, NEVPT2 and variants, FIC-MRCI
   Bernardo de Souza      : ESD, SOC TD-DFT
   Georgi Stoychev        : AutoAux, RI-MP2 NMR, DLPNO-MP2 response, X2C
   Van Anh Tran           : RI-MP2 g-tensors
   Willem Van den Heuvel  : Paramagnetic NMR
   Zikuan Wang            : NOTCH, Electric field optimization 
   Frank Wennmohs         : Technical directorship and infrastructure
   Hang Xu                : AUTO-CI-Response properties 


 We gratefully acknowledge several colleagues who have allowed us to
 interface, adapt or use parts of their codes:
   Stefan Grimme, W. Hujo, H. Kruse, P. Pracht,  : VdW corrections, initial TS optimization,
                  C. Bannwarth, S. Ehlert,         DFT functionals, gCP, sTDA/sTD-DF
                  L. Wittmann, M. Mueller
   Ed Valeev, F. Pavosevic, A. Kumar             : LibInt (2-el integral package), F12 methods
   Garnet Chan, S. Sharma, J. Yang, R. Olivares  : DMRG
   Ulf Ekstrom                                   : XCFun DFT Library
   Mihaly Kallay                                 : mrcc  (arbitrary order and MRCC methods)
   Frank Weinhold                                : gennbo (NPA and NBO analysis)
   Simon Mueller                                 : openCOSMO-RS
   Christopher J. Cramer and Donald G. Truhlar   : smd solvation model
   Lars Goerigk                                  : TD-DFT with DH, B97 family of functionals
   V. Asgeirsson, H. Jonsson                     : NEB implementation
   FAccTs GmbH                                   : IRC, NEB, NEB-TS, DLPNO-Multilevel, CI-OPT
                                                   MM, QMMM, 2- and 3-layer-ONIOM, Crystal-QMMM,
                                                   LR-CPCM, SF, NACMEs, symmetry and pop. for TD-DFT,
                                                   nearIR, NL-DFT gradient (VV10), updates on ESD,
                                                   ML-optimized integration grids, MBIS, APM,
                                                   GOAT, DOCKER, SOLVATOR, interface openCOSMO-RS
   S Lehtola, MJT Oliveira, MAL Marques          : LibXC Library
   Liviu Ungur et al                             : ANISO software


 Your calculation uses the libint2 library for the computation of 2-el integrals
 For citations please refer to: http://libint.valeyev.net

 Your ORCA version has been built with support for libXC version: 6.2.2
 For citations please refer to: https://libxc.gitlab.io

 This ORCA versions uses:
   CBLAS   interface :  Fast vector & matrix operations
   LAPACKE interface :  Fast linear algebra routines
   SCALAPACK package :  Parallel linear algebra routines
   Shared memory     :  Shared parallel matrices
   BLAS/LAPACK       :  OpenBLAS 0.3.27  USE64BITINT DYNAMIC_ARCH NO_AFFINITY SapphireRapids SINGLE_THREADED
        Core in use  :  SapphireRapids
   Copyright (c) 2011-2014, The OpenBLAS Project


Your calculation utilizes the geometrical counterpoise correction gCP
Please cite in your paper:
H.Kruse, S. Grimme J.Chem.Phys., 136, (2012), 154101 
   

Your calculation utilizes the atom-pairwise dispersion correction
based on EEQ partial charges (D4)


================================================================================

----- Orbital basis set information -----
Your calculation utilizes the basis: def2-SV(P)
   F. Weigend and R. Ahlrichs, Phys. Chem. Chem. Phys. 7, 3297 (2005).

----- AuxJ basis set information -----
Your calculation utilizes the auxiliary basis: def2/J
   F. Weigend, Phys. Chem. Chem. Phys. 8, 1057 (2006).

================================================================================
                                        WARNINGS
                       Please study these warnings very carefully!
================================================================================


================================================================================
                                       INPUT FILE
================================================================================
NAME = sp.inp
|  1> ! pbe def2-sv(p) def2/J RI DEFGRID1 loosescf d4 GCP(DFT/SV(P)) printgap
|  2> %output
|  3>     printlevel normal
|  4> end
|  5> * xyz 0 1
|  6> C 2.5605358394 2.9705980813 0.1648388914
|  7> C 3.6532160901 2.1015779984 0.7510830574
|  8> O 3.6120392076 0.7648085688 0.2193459434
|  9> P 2.4267555137 -0.2374689479 0.547015394
| 10> S 1.7066618742 -0.1093394384 2.3708945944
| 11> O 3.0372783242 -1.6503238864 0.1612024664
| 12> C 3.750319538 -2.4624779531 1.1173216006
| 13> C 5.0821820326 -1.8492861921 1.4947748325
| 14> S 1.1133450016 -0.034286685 -1.0975381773
| 15> C -0.074885031 -1.2958580654 -0.5572590449
| 16> S -1.2830983879 -0.6702376224 0.6333768184
| 17> P -2.6622136021 0.0324694369 -0.8393671899
| 18> S -3.0350278796 -1.2149988213 -2.2993832869
| 19> O -2.0647827884 1.3557891363 -1.4447088731
| 20> C -1.6589352163 2.5035471094 -0.6576095597
| 21> C -0.7805323488 3.3650509587 -1.5401964343
| 22> O -3.8692998363 0.5848732631 0.032804584
| 23> C -4.5253026469 -0.1344935814 1.0942797638
| 24> C -5.0344455053 -1.4903105593 0.6527496663
| 25> H 2.6126576266 2.9608315789 -0.9207989764
| 26> H 1.5873454798 2.5916136325 0.4749367192
| 27> H 2.6741861629 3.9881513738 0.524203251
| 28> H 3.5546955393 2.0437519175 1.8399547768
| 29> H 4.6474066794 2.4613370829 0.4836852997
| 30> H 3.1195356335 -2.5901825264 2.0033956348
| 31> H 3.8743469876 -3.4185651832 0.6067778238
| 32> H 4.9210835274 -0.9260612237 2.0495097575
| 33> H 5.6339700612 -2.5448085279 2.119403606
| 34> H 5.6592863074 -1.6272007352 0.6010161871
| 35> H 0.4607359429 -2.1145370176 -0.0826154275
| 36> H -0.6085873947 -1.6411968828 -1.4453792814
| 37> H -2.5603103875 3.0309622856 -0.3403679097
| 38> H -1.1208567647 2.1487092862 0.2272739488
| 39> H 0.0794046331 2.7913456035 -1.8758954652
| 40> H -1.3406210068 3.6932837799 -2.410681163
| 41> H -0.444033363 4.2300014693 -0.9781375782
| 42> H -3.8190450265 -0.2365194653 1.9231228087
| 43> H -5.3445704233 0.5262265675 1.383210934
| 44> H -4.1990983534 -2.1340173871 0.3799771788
| 45> H -5.5861081316 -1.9512633248 1.4656937363
| 46> H -5.6846721253 -1.3877716696 -0.2128704684
| 47> *
| 48> 
| 49>                          ****END OF INPUT****
================================================================================

                       ****************************
                       * Single Point Calculation *
                       ****************************

---------------------------------
CARTESIAN COORDINATES (ANGSTROEM)
---------------------------------
  C      2.560536    2.970598    0.164839
  C      3.653216    2.101578    0.751083
  O      3.612039    0.764809    0.219346
  P      2.426756   -0.237469    0.547015
  S      1.706662   -0.109339    2.370895
  O      3.037278   -1.650324    0.161202
  C      3.750320   -2.462478    1.117322
  C      5.082182   -1.849286    1.494775
  S      1.113345   -0.034287   -1.097538
  C     -0.074885   -1.295858   -0.557259
  S     -1.283098   -0.670238    0.633377
  P     -2.662214    0.032469   -0.839367
  S     -3.035028   -1.214999   -2.299383
  O     -2.064783    1.355789   -1.444709
  C     -1.658935    2.503547   -0.657610
  C     -0.780532    3.365051   -1.540196
  O     -3.869300    0.584873    0.032805
  C     -4.525303   -0.134494    1.094280
  C     -5.034446   -1.490311    0.652750
  H      2.612658    2.960832   -0.920799
  H      1.587345    2.591614    0.474937
  H      2.674186    3.988151    0.524203
  H      3.554696    2.043752    1.839955
  H      4.647407    2.461337    0.483685
  H      3.119536   -2.590183    2.003396
  H      3.874347   -3.418565    0.606778
  H      4.921084   -0.926061    2.049510
  H      5.633970   -2.544809    2.119404
  H      5.659286   -1.627201    0.601016
  H      0.460736   -2.114537   -0.082615
  H     -0.608587   -1.641197   -1.445379
  H     -2.560310    3.030962   -0.340368
  H     -1.120857    2.148709    0.227274
  H      0.079405    2.791346   -1.875895
  H     -1.340621    3.693284   -2.410681
  H     -0.444033    4.230001   -0.978138
  H     -3.819045   -0.236519    1.923123
  H     -5.344570    0.526227    1.383211
  H     -4.199098   -2.134017    0.379977
  H     -5.586108   -1.951263    1.465694
  H     -5.684672   -1.387772   -0.212870

----------------------------
CARTESIAN COORDINATES (A.U.)
----------------------------
  NO LB      ZA    FRAG     MASS         X           Y           Z
   0 C     6.0000    0    12.011    4.838711    5.613617    0.311500
   1 C     6.0000    0    12.011    6.903578    3.971407    1.419341
   2 O     8.0000    0    15.999    6.825765    1.445279    0.414504
   3 P    15.0000    0    30.974    4.585903   -0.448751    1.033709
   4 S    16.0000    0    32.060    3.225124   -0.206622    4.480341
   5 O     8.0000    0    15.999    5.739624   -3.118660    0.304629
   6 C     6.0000    0    12.011    7.087077   -4.653409    2.111432
   7 C     6.0000    0    12.011    9.603932   -3.494644    2.824715
   8 S    16.0000    0    32.060    2.103917   -0.064792   -2.074047
   9 C     6.0000    0    12.011   -0.141512   -2.448817   -1.053067
  10 S    16.0000    0    32.060   -2.424705   -1.266566    1.196909
  11 P    15.0000    0    30.974   -5.030855    0.061358   -1.586174
  12 S    16.0000    0    32.060   -5.735372   -2.296015   -4.345205
  13 O     8.0000    0    15.999   -3.901874    2.562070   -2.730104
  14 C     6.0000    0    12.011   -3.134933    4.731018   -1.242702
  15 C     6.0000    0    12.011   -1.474992    6.359025   -2.910549
  16 O     8.0000    0    15.999   -7.311917    1.105250    0.061992
  17 C     6.0000    0    12.011   -8.551583   -0.254156    2.067889
  18 C     6.0000    0    12.011   -9.513723   -2.816279    1.233518
  19 H     1.0000    0     1.008    4.937207    5.595161   -1.740058
  20 H     1.0000    0     1.008    2.999648    4.897440    0.897500
  21 H     1.0000    0     1.008    5.053479    7.536514    0.990601
  22 H     1.0000    0     1.008    6.717401    3.862131    3.477011
  23 H     1.0000    0     1.008    8.782326    4.651253    0.914033
  24 H     1.0000    0     1.008    5.895068   -4.894736    3.785869
  25 H     1.0000    0     1.008    7.321455   -6.460152    1.146644
  26 H     1.0000    0     1.008    9.299500   -1.750002    3.873012
  27 H     1.0000    0     1.008   10.646660   -4.808991    4.005092
  28 H     1.0000    0     1.008   10.694501   -3.074964    1.135756
  29 H     1.0000    0     1.008    0.870665   -3.995896   -0.156121
  30 H     1.0000    0     1.008   -1.150064   -3.101413   -2.731371
  31 H     1.0000    0     1.008   -4.838285    5.727689   -0.643202
  32 H     1.0000    0     1.008   -2.118112    4.060472    0.429486
  33 H     1.0000    0     1.008    0.150053    5.274879   -3.544929
  34 H     1.0000    0     1.008   -2.533407    6.979295   -4.555527
  35 H     1.0000    0     1.008   -0.839101    7.993544   -1.848412
  36 H     1.0000    0     1.008   -7.216949   -0.446957    3.634175
  37 H     1.0000    0     1.008  -10.099774    0.994424    2.613890
  38 H     1.0000    0     1.008   -7.935146   -4.032708    0.718053
  39 H     1.0000    0     1.008  -10.556215   -3.687353    2.769760
  40 H     1.0000    0     1.008  -10.742473   -2.622508   -0.402267

--------------------------------
INTERNAL COORDINATES (ANGSTROEM)
--------------------------------
 C      0   0   0     0.000000000000     0.00000000     0.00000000
 C      1   0   0     1.514208789078     0.00000000     0.00000000
 O      2   1   0     1.439233268783   111.67650332     0.00000000
 P      3   2   1     1.586450416611   122.13136387   291.86275924
 S      4   3   2     1.965066756755   115.10588150   323.78193790
 O      4   3   2     1.586741565123   102.99403340   197.66071100
 C      6   4   3     1.442978100810   122.01711249    90.28003316
 C      7   6   4     1.514045171899   111.83437824   290.83594769
 S      4   3   2     2.114447127295   104.04806965    96.06322823
 C      9   4   3     1.815311130116    96.21868500   177.25461385
 S     10   9   4     1.807980700524   113.13753086    83.31552129
 P     11  10   9     2.136523086515    95.23420715    87.05404177
 S     12  11  10     1.956224563853   115.32469965    46.12855831
 O     12  11  10     1.573066164342   107.26516030   284.81745592
 C     14  12  11     1.449684774614   124.29268706   305.82610815
 C     15  14  12     1.514179669394   107.24121669   163.42415109
 O     12  11  10     1.588361031750   103.08693383   177.64893451
 C     17  12  11     1.440332566393   125.24648215   309.77801969
 C     18  17  12     1.514072308320   112.67392325   305.58160262
 H      1   2   3     1.086932217423   110.30028787   305.34032684
 H      1   2   3     1.089444514997   109.55839024    65.21076875
 H      1   2   3     1.085114667701   109.53480471   184.72127001
 H      2   1   3     1.094847832291   110.51334202   239.23178283
 H      2   1   3     1.090570074574   111.93741875   116.14861987
 H      7   6   4     1.095136514916   108.48891210    53.11477871
 H      7   6   4     1.090935629560   103.84826532   170.10048576
 H      8   7   6     1.089049084142   109.88883682    67.12999461
 H      8   7   6     1.085533257338   109.33581894   186.70113528
 H      8   7   6     1.086819124963   110.17279066   307.11555600
 H     10   9   4     1.087387519698   109.31240267   323.44627208
 H     10   9   4     1.092178861864   107.31238827   203.04026514
 H     15  14  12     1.091460595641   108.01047985   284.23480171
 H     15  14  12     1.094740665393   108.65346925    42.48541727
 H     16  15  14     1.086886970559   109.79741072   301.12436248
 H     16  15  14     1.085900434033   109.87777482    60.58626366
 H     16  15  14     1.085025857273   109.36149931   180.83714984
 H     18  17  12     1.093704667832   108.11818732    68.33734459
 H     18  17  12     1.091435763443   103.56942178   184.92747935
 H     19  18  17     1.089297101015   110.14016762    64.61303201
 H     19  18  17     1.085212958929   109.44187247   184.49059127
 H     19  18  17     1.087477401538   110.41117440   304.98439387

---------------------------
INTERNAL COORDINATES (A.U.)
---------------------------
 C      0   0   0     0.000000000000     0.00000000     0.00000000
 C      1   0   0     2.861439920935     0.00000000     0.00000000
 O      2   1   0     2.719756720827   111.67650332     0.00000000
 P      3   2   1     2.997956812439   122.13136387   291.86275924
 S      4   3   2     3.713438005140   115.10588150   323.78193790
 O      4   3   2     2.998507003391   102.99403340   197.66071100
 C      6   4   3     2.726833427777   122.01711249    90.28003316
 C      7   6   4     2.861130729276   111.83437824   290.83594769
 S      4   3   2     3.995725995245   104.04806965    96.06322823
 C      9   4   3     3.430440883779    96.21868500   177.25461385
 S     10   9   4     3.416588379405   113.13753086    83.31552129
 P     11  10   9     4.037443512313    95.23420715    87.05404177
 S     12  11  10     3.696728682133   115.32469965    46.12855831
 O     12  11  10     2.972664241144   107.26516030   284.81745592
 C     14  12  11     2.739507204537   124.29268706   305.82610815
 C     15  14  12     2.861384892707   107.24121669   163.42415109
 O     12  11  10     3.001567351801   103.08693383   177.64893451
 C     17  12  11     2.721834092251   125.24648215   309.77801969
 C     18  17  12     2.861182009678   112.67392325   305.58160262
 H      1   2   3     2.054004217065   110.30028787   305.34032684
 H      1   2   3     2.058751771447   109.55839024    65.21076875
 H      1   2   3     2.050569545856   109.53480471   184.72127001
 H      2   1   3     2.068962561346   110.51334202   239.23178283
 H      2   1   3     2.060878770795   111.93741875   116.14861987
 H      7   6   4     2.069508092447   108.48891210    53.11477871
 H      7   6   4     2.061569569606   103.84826532   170.10048576
 H      8   7   6     2.058004515425   109.88883682    67.12999461
 H      8   7   6     2.051360565632   109.33581894   186.70113528
 H      8   7   6     2.053790503289   110.17279066   307.11555600
 H     10   9   4     2.054864613674   109.31240267   323.44627208
 H     10   9   4     2.063918938181   107.31238827   203.04026514
 H     15  14  12     2.062561611728   108.01047985   284.23480171
 H     15  14  12     2.068760045259   108.65346925    42.48541727
 H     16  15  14     2.053918712884   109.79741072   301.12436248
 H     16  15  14     2.052054429029   109.87777482    60.58626366
 H     16  15  14     2.050401718470   109.36149931   180.83714984
 H     18  17  12     2.066802293594   108.11818732    68.33734459
 H     18  17  12     2.062514685675   103.56942178   184.92747935
 H     19  18  17     2.058473199394   110.14016762    64.61303201
 H     19  18  17     2.050755289357   109.44187247   184.49059127
 H     19  18  17     2.055034465735   110.41117440   304.98439387

---------------------
BASIS SET INFORMATION
---------------------
There are 5 groups of distinct atoms

 Group   1 Type C   : 7s4p1d contracted to 3s2p1d pattern {511/31/1}
 Group   2 Type O   : 7s4p1d contracted to 3s2p1d pattern {511/31/1}
 Group   3 Type P   : 10s7p1d contracted to 4s3p1d pattern {5311/511/1}
 Group   4 Type S   : 10s7p1d contracted to 4s3p1d pattern {5311/511/1}
 Group   5 Type H   : 4s contracted to 2s pattern {31}

Atom   0C    basis set group =>   1
Atom   1C    basis set group =>   1
Atom   2O    basis set group =>   2
Atom   3P    basis set group =>   3
Atom   4S    basis set group =>   4
Atom   5O    basis set group =>   2
Atom   6C    basis set group =>   1
Atom   7C    basis set group =>   1
Atom   8S    basis set group =>   4
Atom   9C    basis set group =>   1
Atom  10S    basis set group =>   4
Atom  11P    basis set group =>   3
Atom  12S    basis set group =>   4
Atom  13O    basis set group =>   2
Atom  14C    basis set group =>   1
Atom  15C    basis set group =>   1
Atom  16O    basis set group =>   2
Atom  17C    basis set group =>   1
Atom  18C    basis set group =>   1
Atom  19H    basis set group =>   5
Atom  20H    basis set group =>   5
Atom  21H    basis set group =>   5
Atom  22H    basis set group =>   5
Atom  23H    basis set group =>   5
Atom  24H    basis set group =>   5
Atom  25H    basis set group =>   5
Atom  26H    basis set group =>   5
Atom  27H    basis set group =>   5
Atom  28H    basis set group =>   5
Atom  29H    basis set group =>   5
Atom  30H    basis set group =>   5
Atom  31H    basis set group =>   5
Atom  32H    basis set group =>   5
Atom  33H    basis set group =>   5
Atom  34H    basis set group =>   5
Atom  35H    basis set group =>   5
Atom  36H    basis set group =>   5
Atom  37H    basis set group =>   5
Atom  38H    basis set group =>   5
Atom  39H    basis set group =>   5
Atom  40H    basis set group =>   5
---------------------------------
AUXILIARY/J BASIS SET INFORMATION
---------------------------------
There are 5 groups of distinct atoms

 Group   1 Type C   : 12s5p4d2f1g contracted to 6s4p3d1f1g pattern {711111/2111/211/2/1}
 Group   2 Type O   : 12s5p4d2f1g contracted to 6s4p3d1f1g pattern {711111/2111/211/2/1}
 Group   3 Type P   : 14s5p5d2f1g contracted to 8s4p3d1f1g pattern {71111111/2111/311/2/1}
 Group   4 Type S   : 14s5p5d2f1g contracted to 8s4p3d1f1g pattern {71111111/2111/311/2/1}
 Group   5 Type H   : 5s2p1d contracted to 3s1p1d pattern {311/2/1}

Atom   0C    basis set group =>   1
Atom   1C    basis set group =>   1
Atom   2O    basis set group =>   2
Atom   3P    basis set group =>   3
Atom   4S    basis set group =>   4
Atom   5O    basis set group =>   2
Atom   6C    basis set group =>   1
Atom   7C    basis set group =>   1
Atom   8S    basis set group =>   4
Atom   9C    basis set group =>   1
Atom  10S    basis set group =>   4
Atom  11P    basis set group =>   3
Atom  12S    basis set group =>   4
Atom  13O    basis set group =>   2
Atom  14C    basis set group =>   1
Atom  15C    basis set group =>   1
Atom  16O    basis set group =>   2
Atom  17C    basis set group =>   1
Atom  18C    basis set group =>   1
Atom  19H    basis set group =>   5
Atom  20H    basis set group =>   5
Atom  21H    basis set group =>   5
Atom  22H    basis set group =>   5
Atom  23H    basis set group =>   5
Atom  24H    basis set group =>   5
Atom  25H    basis set group =>   5
Atom  26H    basis set group =>   5
Atom  27H    basis set group =>   5
Atom  28H    basis set group =>   5
Atom  29H    basis set group =>   5
Atom  30H    basis set group =>   5
Atom  31H    basis set group =>   5
Atom  32H    basis set group =>   5
Atom  33H    basis set group =>   5
Atom  34H    basis set group =>   5
Atom  35H    basis set group =>   5
Atom  36H    basis set group =>   5
Atom  37H    basis set group =>   5
Atom  38H    basis set group =>   5
Atom  39H    basis set group =>   5
Atom  40H    basis set group =>   5
------------------------------------------------------------------------------
                             ORCA STARTUP CALCULATIONS
                           -- RI-GTO INTEGRALS CHOSEN --
------------------------------------------------------------------------------
------------------------------------------------------------------------------
                   ___                                                        
                  /   \      - P O W E R E D   B Y -                         
                 /     \                                                     
                 |  |  |   _    _      __       _____    __    __             
                 |  |  |  | |  | |    /  \     |  _  \  |  |  /  |          
                  \  \/   | |  | |   /    \    | | | |  |  | /  /          
                 / \  \   | |__| |  /  /\  \   | |_| |  |  |/  /          
                |  |  |   |  __  | /  /__\  \  |    /   |      \           
                |  |  |   | |  | | |   __   |  |    \   |  |\   \          
                \     /   | |  | | |  |  |  |  | |\  \  |  | \   \       
                 \___/    |_|  |_| |__|  |__|  |_| \__\ |__|  \__/        
                                                                              
                      - O R C A' S   B I G   F R I E N D -                    
                                      &                                       
                       - I N T E G R A L  F E E D E R -                       
                                                                              
 v1 FN, 2020, v2 2021, v3 2022-2024                                           
------------------------------------------------------------------------------


----------------------
SHARK INTEGRAL PACKAGE
----------------------

Number of atoms                             ...     41
Number of basis functions                   ...    334
Number of shells                            ...    170
Maximum angular momentum                    ...      2
Integral batch strategy                     ... SHARK/LIBINT Hybrid
RI-J (if used) integral strategy            ... SPLIT-RIJ (Revised 2003 algorithm where possible)
Printlevel                                  ...      1
Contraction scheme used                     ... SEGMENTED contraction
Prescreening option                         ... SCHWARTZ
   Thresh                                   ... 1.000e-09
   Tcut                                     ... 1.000e-10
   Tpresel                                  ... 1.000e-10 
Coulomb Range Separation                    ... NOT USED
Exchange Range Separation                   ... NOT USED
Multipole approximations                    ... NOT USED
Finite Nucleus Model                        ... NOT USED
CABS basis                                  ... NOT available
Auxiliary Coulomb fitting basis             ... AVAILABLE
   # of basis functions in Aux-J            ...   1185
   # of shells in Aux-J                     ...    407
   Maximum angular momentum in Aux-J        ...      4
Auxiliary J/K fitting basis                 ... NOT available
Auxiliary Correlation fitting basis         ... NOT available
Auxiliary 'external' fitting basis          ... NOT available

Checking pre-screening integrals            ... done (  0.0 sec) Dimension = 170
Check shell pair data                       ... done (  0.0 sec)
Shell pair information
Shell pair cut-off parameter TPreSel        ...   1.0e-10
Total number of shell pairs                 ...     14535
Shell pairs after pre-screening             ...      9845
Total number of primitive shell pairs       ...     62501
Primitive shell pairs kept                  ...     24524
          la=0 lb=0:   3838 shell pairs
          la=1 lb=0:   3345 shell pairs
          la=1 lb=1:    769 shell pairs
          la=2 lb=0:   1237 shell pairs
          la=2 lb=1:    551 shell pairs
          la=2 lb=2:    105 shell pairs

Calculating one electron integrals          ... done (  0.0 sec)
Calculating RI/J V-Matrix + Cholesky decomp.... done (  0.2 sec)
Calculating Nuclear repulsion               ... done (  0.0 sec) ENN=   2719.014490744918 Eh

Diagonalization of the overlap matrix:
Smallest eigenvalue                        ... 3.115e-03
Time for diagonalization                   ...    0.010 sec
Threshold for overlap eigenvalues          ... 1.000e-07
Number of eigenvalues below threshold      ... 0
Time for construction of square roots      ...    0.023 sec
Total time needed                          ...    0.043 sec

-------------------
DFT GRID GENERATION
-------------------

General Integration Accuracy     IntAcc      ... 4.159
Radial Grid Type                 RadialGrid  ... OptM3 with GC (2021)
Angular Grid (max. ang.)         AngularGrid ... 3 (Lebedev-194)
Angular grid pruning method      GridPruning ... 4 (adaptive)
Weight generation scheme         WeightScheme... mBecke (2022)
Basis function cutoff            BFCut       ... 1.0000e-10
Integration weight cutoff        WCut        ... 1.0000e-14
Partially contracted basis set               ... off
Rotationally invariant grid construction     ... off
Angular grids for H and He will be reduced by one unit

Total number of grid points                  ...    97460
Total number of batches                      ...     1544
Average number of points per batch           ...       63
Average number of grid points per atom       ...     2377
Initializing property integral containers    ... done (  0.0 sec)

SHARK setup successfully completed in   1.6 seconds

Maximum memory used throughout the entire STARTUP-calculation: 51.1 MB
-------------------------------------------------------------------------------
                                 ORCA GUESS
                   Start orbitals & Density for SCF / CASSCF
-------------------------------------------------------------------------------

------------
SCF SETTINGS
------------
Hamiltonian:
 Density Functional     Method          .... DFT(GTOs)
 Exchange Functional    Exchange        .... PBE
   PBE kappa parameter   XKappa         ....  0.804000
   PBE mue parameter    XMuePBE         ....  0.219520
 Correlation Functional Correlation     .... PBE
   PBE beta parameter  CBetaPBE         ....  0.066725
 LDA part of GGA corr.  LDAOpt          .... PW91-LDA
 Gradients option       PostSCFGGA      .... off
   NL short-range parameter             ....  6.400000
 RI-approximation to the Coulomb term is turned on
   Number of AuxJ basis functions       .... 1185


General Settings:
 Integral files         IntName         .... sp
 Hartree-Fock type      HFTyp           .... RHF
 Total Charge           Charge          ....    0
 Multiplicity           Mult            ....    1
 Number of Electrons    NEL             ....  202
 Basis Dimension        Dim             ....  334
 Nuclear Repulsion      ENuc            ....   2719.0144907449 Eh

Convergence Acceleration:
 AO-DIIS                CNVDIIS         .... on
   Start iteration      DIISMaxIt       ....    12
   Startup error        DIISStart       ....  0.200000
   # of expansion vecs  DIISMaxEq       ....     5
   Bias factor          DIISBfac        ....   1.050
   Max. coefficient     DIISMaxC        ....  10.000
 MO-DIIS                CNVKDIIS        .... off
 Trust-Rad. Augm. Hess. CNVTRAH         .... auto
   Auto Start mean grad. ratio tolernc. ....  1.125000
   Auto Start start iteration           ....    50
   Auto Start num. interpolation iter.  ....    10
   Max. Number of Micro iterations      ....    24
   Max. Number of Macro iterations      .... Maxiter - #DIIS iter
   Number of Davidson start vectors     ....     2
   Converg. threshold    (grad. norm)   ....   1.000e-04
   Grad. Scal. Fac. for Micro threshold ....   0.100
   Minimum threshold for Micro iter.    ....   1.000e-02
   NR start threshold (gradient norm)   ....   1.000e-04
   Initial trust radius                 ....   0.400
   Minimum AH scaling param. (alpha)    ....   1.000
   Maximum AH scaling param. (alpha)    .... 1000.000
   Quad. conv. algorithm                .... NR
   White noise on init. David. guess    .... on
   Maximum white noise                  ....   0.010
   Pseudo random numbers                .... off
   Inactive MOs                         .... canonical
   Orbital update algorithm             .... Taylor
   Preconditioner                       .... Diag
   Full preconditioner red. dimension   ....   250
 SOSCF                  CNVSOSCF        .... on
   Start iteration      SOSCFMaxIt      ....   150
   Startup grad/error   SOSCFStart      ....  0.003300
   Hessian update       SOSCFHessUp     .... L-BFGS
 Level Shifting         CNVShift        .... on
   Level shift para.    LevelShift      ....    0.2500
   Turn off err/grad.   ShiftErr        ....    0.0010
 Zerner damping         CNVZerner       .... off
 Static damping         CNVDamp         .... on
   Fraction old density DampFac         ....    0.7000
   Max. Damping (<1)    DampMax         ....    0.9800
   Min. Damping (>=0)   DampMin         ....    0.0000
   Turn off err/grad.   DampErr         ....    0.1000

SCF Procedure:
 Maximum # iterations   MaxIter         ....   125
 SCF integral mode      SCFMode         .... Direct
   Integral package                     .... SHARK and LIBINT hybrid scheme
 Reset frequency        DirectResetFreq ....    20
 Integral Threshold     Thresh          ....  1.000e-09 Eh
 Primitive CutOff       TCut            ....  1.000e-10 Eh

Convergence Tolerance:
 Convergence Check Mode ConvCheckMode   .... Total+1el-Energy
 Convergence forced     ConvForced      .... 0
 Energy Change          TolE            ....  1.000e-05 Eh
 1-El. energy change                    ....  1.000e-02 Eh
 Orbital Gradient       TolG            ....  1.000e-04
 Orbital Rotation angle TolX            ....  1.000e-04
 DIIS Error             TolErr          ....  5.000e-04

------------------------------
INITIAL GUESS: MODEL POTENTIAL
------------------------------
Loading Hartree-Fock densities                     ... done
Calculating cut-offs                               ... done
Initializing the effective Hamiltonian             ... done
Setting up the integral package (SHARK)            ... done
Starting the Coulomb interaction                   ... done (   0.6 sec)
Making the grid                                    ... done (   0.5 sec)
Mapping shells                                     ... done
Starting the XC term evaluation                    ... done (   0.3 sec)
  promolecular density results
     # of electrons  =    201.989002815
     EX              =   -229.997088116
     EC              =     -7.285176666
     EX+EC           =   -237.282264782
Transforming the Hamiltonian                       ... done (   0.0 sec)
Diagonalizing the Hamiltonian                      ... done (   0.0 sec)
Back transforming the eigenvectors                 ... done (   0.0 sec)
Now organizing SCF variables                       ... done
                      ------------------
                      INITIAL GUESS DONE (   1.6 sec)
                      ------------------
             **** ENERGY FILE WAS UPDATED (sp.en.tmp) ****
Finished Guess after   1.8 sec
Maximum memory used throughout the entire GUESS-calculation: 38.5 MB

-------------------------------------------------------------------------------------------
                                      ORCA LEAN-SCF
                              memory conserving SCF solver
-------------------------------------------------------------------------------------------

----------------------------------------D-I-I-S--------------------------------------------
Iteration    Energy (Eh)           Delta-E    RMSDP     MaxDP     DIISErr   Damp  Time(sec)
-------------------------------------------------------------------------------------------
               ***  Starting incremental Fock matrix formation  ***
    1    -2929.1949055953036805     0.00e+00  2.66e-03  1.39e-01  1.80e-01  0.700   2.1
    2    -2929.4184868388256291    -2.24e-01  1.71e-03  7.13e-02  7.32e-02  0.700   2.0
                               ***Turning on AO-DIIS***
    3    -2929.4895372008613776    -7.11e-02  6.67e-04  1.63e-02  2.14e-02  0.700   2.0
    4    -2929.5343546459116624    -4.48e-02  1.02e-03  2.96e-02  1.00e-02  0.000   1.9
    5    -2929.6387266719266336    -1.04e-01  2.99e-04  1.00e-02  8.10e-03  0.000   1.9
                              *** Initializing SOSCF ***
---------------------------------------S-O-S-C-F--------------------------------------
Iteration    Energy (Eh)           Delta-E    RMSDP     MaxDP     MaxGrad    Time(sec)
--------------------------------------------------------------------------------------
    6    -2929.6397804747321061    -1.05e-03  1.06e-04  3.25e-03  2.26e-03     1.9
               *** Restarting incremental Fock matrix formation ***
    7    -2929.6399069506906017    -1.26e-04  6.74e-05  1.36e-03  1.90e-04     2.1
    8    -2929.6399116808879626    -4.73e-06  2.59e-05  8.13e-04  1.44e-04     1.7
                 **** Energy Check signals convergence ****

               *****************************************************
               *                     SUCCESS                       *
               *           SCF CONVERGED AFTER   8 CYCLES          *
               *****************************************************

             **** ENERGY FILE WAS UPDATED (sp.en.tmp) ****

----------------
TOTAL SCF ENERGY
----------------

Total Energy       :      -2929.63991168088796 Eh          -79719.55486 eV

Components:
Nuclear Repulsion  :       2719.01449074491757 Eh           73988.14578 eV
Electronic Energy  :      -5648.65440242580553 Eh         -153707.70064 eV
One Electron Energy:      -9456.35215846151368 Eh         -257320.42415 eV
Two Electron Energy:       3807.69775603570770 Eh          103612.72351 eV

Virial components:
Potential Energy   :      -5848.93898075004472 Eh         -159157.72109 eV
Kinetic Energy     :       2919.29906906915676 Eh           79438.16623 eV
Virial Ratio       :          2.00354223475124

DFT components:
N(Alpha)           :      101.000178700446 electrons
N(Beta)            :      101.000178700446 electrons
N(Total)           :      202.000357400892 electrons
E(X)               :     -231.809410778649 Eh       
E(C)               :       -7.293150765074 Eh       
E(XC)              :     -239.102561543723 Eh       

---------------
SCF CONVERGENCE
---------------

  Last Energy change         ...    4.7302e-06  Tolerance :   1.0000e-05
  Last MAX-Density change    ...    8.1347e-04  Tolerance :   1.0000e-03
  Last RMS-Density change    ...    2.5907e-05  Tolerance :   1.0000e-04
  Last DIIS Error            ...    2.2573e-03  Tolerance :   5.0000e-04
  Last Orbital Gradient      ...    1.4381e-04  Tolerance :   1.0000e-04
  Last Orbital Rotation      ...    3.5269e-04  Tolerance :   1.0000e-04


----------------
ORBITAL ENERGIES
----------------

  NO   OCC          E(Eh)            E(eV) 
   0   2.0000     -88.045092     -2395.8288 
   1   2.0000     -88.040660     -2395.7082 
   2   2.0000     -87.993834     -2394.4340 
   3   2.0000     -87.977805     -2393.9978 
   4   2.0000     -76.431491     -2079.8066 
   5   2.0000     -76.421937     -2079.5466 
   6   2.0000     -18.800619      -511.5908 
   7   2.0000     -18.795823      -511.4603 
   8   2.0000     -18.794151      -511.4148 
   9   2.0000     -18.787969      -511.2466 
  10   2.0000      -9.959860      -271.0216 
  11   2.0000      -9.958820      -270.9933 
  12   2.0000      -9.955595      -270.9055 
  13   2.0000      -9.955470      -270.9021 
  14   2.0000      -9.950543      -270.7680 
  15   2.0000      -9.892630      -269.1921 
  16   2.0000      -9.888133      -269.0698 
  17   2.0000      -9.884172      -268.9620 
  18   2.0000      -9.882213      -268.9087 
  19   2.0000      -7.690278      -209.2631 
  20   2.0000      -7.685254      -209.1264 
  21   2.0000      -7.638615      -207.8573 
  22   2.0000      -7.623212      -207.4382 
  23   2.0000      -6.429156      -174.9462 
  24   2.0000      -6.419514      -174.6839 
  25   2.0000      -5.718053      -155.5961 
  26   2.0000      -5.714964      -155.5121 
  27   2.0000      -5.712851      -155.4546 
  28   2.0000      -5.709858      -155.3731 
  29   2.0000      -5.707129      -155.2989 
  30   2.0000      -5.702487      -155.1726 
  31   2.0000      -5.667339      -154.2161 
  32   2.0000      -5.659255      -153.9962 
  33   2.0000      -5.659037      -153.9902 
  34   2.0000      -5.652264      -153.8059 
  35   2.0000      -5.643875      -153.5776 
  36   2.0000      -5.643138      -153.5576 
  37   2.0000      -4.651717      -126.5796 
  38   2.0000      -4.650901      -126.5575 
  39   2.0000      -4.649613      -126.5224 
  40   2.0000      -4.642464      -126.3279 
  41   2.0000      -4.641461      -126.3006 
  42   2.0000      -4.639422      -126.2451 
  43   2.0000      -0.993234       -27.0273 
  44   2.0000      -0.986875       -26.8542 
  45   2.0000      -0.953181       -25.9374 
  46   2.0000      -0.943560       -25.6756 
  47   2.0000      -0.765195       -20.8220 
  48   2.0000      -0.724084       -19.7033 
  49   2.0000      -0.712688       -19.3932 
  50   2.0000      -0.694065       -18.8865 
  51   2.0000      -0.689115       -18.7518 
  52   2.0000      -0.676213       -18.4007 
  53   2.0000      -0.654041       -17.7974 
  54   2.0000      -0.638205       -17.3664 
  55   2.0000      -0.605035       -16.4638 
  56   2.0000      -0.587739       -15.9932 
  57   2.0000      -0.579135       -15.7591 
  58   2.0000      -0.568386       -15.4666 
  59   2.0000      -0.564001       -15.3473 
  60   2.0000      -0.505980       -13.7684 
  61   2.0000      -0.498843       -13.5742 
  62   2.0000      -0.480835       -13.0842 
  63   2.0000      -0.473973       -12.8975 
  64   2.0000      -0.462937       -12.5972 
  65   2.0000      -0.449066       -12.2197 
  66   2.0000      -0.445871       -12.1328 
  67   2.0000      -0.434144       -11.8137 
  68   2.0000      -0.430038       -11.7019 
  69   2.0000      -0.420417       -11.4401 
  70   2.0000      -0.414793       -11.2871 
  71   2.0000      -0.401996       -10.9389 
  72   2.0000      -0.397027       -10.8037 
  73   2.0000      -0.390448       -10.6246 
  74   2.0000      -0.384552       -10.4642 
  75   2.0000      -0.379210       -10.3188 
  76   2.0000      -0.363706        -9.8969 
  77   2.0000      -0.358299        -9.7498 
  78   2.0000      -0.355164        -9.6645 
  79   2.0000      -0.352268        -9.5857 
  80   2.0000      -0.349116        -9.4999 
  81   2.0000      -0.346724        -9.4348 
  82   2.0000      -0.343869        -9.3572 
  83   2.0000      -0.337876        -9.1941 
  84   2.0000      -0.335558        -9.1310 
  85   2.0000      -0.321904        -8.7595 
  86   2.0000      -0.316684        -8.6174 
  87   2.0000      -0.302794        -8.2394 
  88   2.0000      -0.296098        -8.0572 
  89   2.0000      -0.292101        -7.9485 
  90   2.0000      -0.288686        -7.8555 
  91   2.0000      -0.280019        -7.6197 
  92   2.0000      -0.272931        -7.4268 
  93   2.0000      -0.268983        -7.3194 
  94   2.0000      -0.260446        -7.0871 
  95   2.0000      -0.241829        -6.5805 
  96   2.0000      -0.220543        -6.0013 
  97   2.0000      -0.214001        -5.8233 
  98   2.0000      -0.205505        -5.5921 
  99   2.0000      -0.197577        -5.3764 
 100   2.0000      -0.190568        -5.1856 
 101   0.0000      -0.042049        -1.1442 
 102   0.0000      -0.028013        -0.7623 
 103   0.0000      -0.009532        -0.2594 
 104   0.0000       0.001340         0.0365 
 105   0.0000       0.014470         0.3937 
 106   0.0000       0.029124         0.7925 
 107   0.0000       0.030133         0.8200 
 108   0.0000       0.033723         0.9176 
 109   0.0000       0.034767         0.9460 
 110   0.0000       0.042253         1.1498 
 111   0.0000       0.048968         1.3325 
*Only the first 10 virtual orbitals were printed.

                    ********************************
                    * MULLIKEN POPULATION ANALYSIS *
                    ********************************

-----------------------
MULLIKEN ATOMIC CHARGES
-----------------------
   0 C :   -0.348902
   1 C :    0.002682
   2 O :   -0.369299
   3 P :    0.592187
   4 S :   -0.327803
   5 O :   -0.369102
   6 C :   -0.006504
   7 C :   -0.306517
   8 S :   -0.060524
   9 C :   -0.356082
  10 S :   -0.086578
  11 P :    0.589773
  12 S :   -0.311551
  13 O :   -0.356747
  14 C :   -0.024000
  15 C :   -0.288043
  16 O :   -0.384412
  17 C :   -0.014526
  18 C :   -0.308794
  19 H :    0.126904
  20 H :    0.144963
  21 H :    0.116202
  22 H :    0.112646
  23 H :    0.108959
  24 H :    0.110756
  25 H :    0.108027
  26 H :    0.121267
  27 H :    0.113964
  28 H :    0.120072
  29 H :    0.188088
  30 H :    0.191994
  31 H :    0.104527
  32 H :    0.116355
  33 H :    0.129985
  34 H :    0.119160
  35 H :    0.107598
  36 H :    0.117113
  37 H :    0.109714
  38 H :    0.127532
  39 H :    0.111412
  40 H :    0.127502
Sum of atomic charges:    0.0000000

--------------------------------
MULLIKEN REDUCED ORBITAL CHARGES
--------------------------------
  0 C s       :     3.126722  s :     3.126722
      pz      :     1.074996  p :     3.194187
      px      :     1.065277
      py      :     1.053914
      dz2     :     0.009288  d :     0.027994
      dxz     :     0.003184
      dyz     :     0.003441
      dx2y2   :     0.007514
      dxy     :     0.004568

  1 C s       :     3.070735  s :     3.070735
      pz      :     1.043436  p :     2.866151
      px      :     1.081664
      py      :     0.741052
      dz2     :     0.015216  d :     0.060432
      dxz     :     0.003930
      dyz     :     0.012036
      dx2y2   :     0.017226
      dxy     :     0.012024

  2 O s       :     3.758360  s :     3.758360
      pz      :     1.711332  p :     4.597769
      px      :     1.567497
      py      :     1.318940
      dz2     :     0.001957  d :     0.013170
      dxz     :     0.002030
      dyz     :     0.002815
      dx2y2   :     0.002959
      dxy     :     0.003408

  3 P s       :     5.213038  s :     5.213038
      pz      :     2.914458  p :     8.606768
      px      :     2.876199
      py      :     2.816112
      dz2     :     0.117737  d :     0.588007
      dxz     :     0.124841
      dyz     :     0.102256
      dx2y2   :     0.108512
      dxy     :     0.134661

  4 S s       :     5.922689  s :     5.922689
      pz      :     3.080293  p :    10.362007
      px      :     3.599328
      py      :     3.682386
      dz2     :     0.018089  d :     0.043107
      dxz     :     0.013269
      dyz     :     0.008152
      dx2y2   :     0.002009
      dxy     :     0.001587

  5 O s       :     3.758648  s :     3.758648
      pz      :     1.594612  p :     4.597216
      px      :     1.624771
      py      :     1.377832
      dz2     :     0.002750  d :     0.013239
      dxz     :     0.002517
      dyz     :     0.003397
      dx2y2   :     0.002434
      dxy     :     0.002140

  6 C s       :     3.079178  s :     3.079178
      pz      :     0.930281  p :     2.867321
      px      :     0.969614
      py      :     0.967427
      dz2     :     0.008727  d :     0.060004
      dxz     :     0.016257
      dyz     :     0.013294
      dx2y2   :     0.012219
      dxy     :     0.009507

  7 C s       :     3.100903  s :     3.100903
      pz      :     1.079994  p :     3.177653
      px      :     1.023565
      py      :     1.074094
      dz2     :     0.002666  d :     0.027961
      dxz     :     0.007411
      dyz     :     0.007330
      dx2y2   :     0.005530
      dxy     :     0.005023

  8 S s       :     5.878288  s :     5.878288
      pz      :     3.384851  p :    10.107388
      px      :     3.238069
      py      :     3.484468
      dz2     :     0.013458  d :     0.074848
      dxz     :     0.022964
      dyz     :     0.011212
      dx2y2   :     0.010118
      dxy     :     0.017096

  9 C s       :     3.219449  s :     3.219449
      pz      :     1.072855  p :     3.096529
      px      :     0.982463
      py      :     1.041211
      dz2     :     0.005118  d :     0.040104
      dxz     :     0.011365
      dyz     :     0.007237
      dx2y2   :     0.006316
      dxy     :     0.010068

 10 S s       :     5.885278  s :     5.885278
      pz      :     3.282413  p :    10.124680
      px      :     3.185902
      py      :     3.656366
      dz2     :     0.012489  d :     0.076620
      dxz     :     0.032786
      dyz     :     0.013243
      dx2y2   :     0.007622
      dxy     :     0.010481

 11 P s       :     5.224302  s :     5.224302
      pz      :     2.871346  p :     8.594316
      px      :     2.854251
      py      :     2.868719
      dz2     :     0.097525  d :     0.591610
      dxz     :     0.134140
      dyz     :     0.128669
      dx2y2   :     0.117147
      dxy     :     0.114128

 12 S s       :     5.914081  s :     5.914081
      pz      :     3.286323  p :    10.355189
      px      :     3.627927
      py      :     3.440939
      dz2     :     0.009396  d :     0.042280
      dxz     :     0.006508
      dyz     :     0.016693
      dx2y2   :     0.005412
      dxy     :     0.004271

 13 O s       :     3.758780  s :     3.758780
      pz      :     1.607643  p :     4.584781
      px      :     1.698292
      py      :     1.278847
      dz2     :     0.002262  d :     0.013185
      dxz     :     0.002038
      dyz     :     0.004587
      dx2y2   :     0.002013
      dxy     :     0.002286

 14 C s       :     3.079653  s :     3.079653
      pz      :     0.997146  p :     2.885307
      px      :     1.054926
      py      :     0.833235
      dz2     :     0.008902  d :     0.059039
      dxz     :     0.010769
      dyz     :     0.015116
      dx2y2   :     0.010506
      dxy     :     0.013746

 15 C s       :     3.095359  s :     3.095359
      pz      :     1.048380  p :     3.164942
      px      :     1.070353
      py      :     1.046209
      dz2     :     0.003430  d :     0.027741
      dxz     :     0.007007
      dyz     :     0.007283
      dx2y2   :     0.003853
      dxy     :     0.006168

 16 O s       :     3.756243  s :     3.756243
      pz      :     1.471109  p :     4.615445
      px      :     1.504088
      py      :     1.640248
      dz2     :     0.002091  d :     0.012724
      dxz     :     0.002368
      dyz     :     0.003122
      dx2y2   :     0.002337
      dxy     :     0.002806

 17 C s       :     3.083240  s :     3.083240
      pz      :     0.875868  p :     2.870562
      px      :     0.998573
      py      :     0.996121
      dz2     :     0.011332  d :     0.060724
      dxz     :     0.015308
      dyz     :     0.012876
      dx2y2   :     0.007666
      dxy     :     0.013541

 18 C s       :     3.106328  s :     3.106328
      pz      :     1.067854  p :     3.174537
      px      :     1.083430
      py      :     1.023252
      dz2     :     0.004113  d :     0.027929
      dxz     :     0.008192
      dyz     :     0.004339
      dx2y2   :     0.003909
      dxy     :     0.007376

 19 H s       :     0.873096  s :     0.873096

 20 H s       :     0.855037  s :     0.855037

 21 H s       :     0.883798  s :     0.883798

 22 H s       :     0.887354  s :     0.887354

 23 H s       :     0.891041  s :     0.891041

 24 H s       :     0.889244  s :     0.889244

 25 H s       :     0.891973  s :     0.891973

 26 H s       :     0.878733  s :     0.878733

 27 H s       :     0.886036  s :     0.886036

 28 H s       :     0.879928  s :     0.879928

 29 H s       :     0.811912  s :     0.811912

 30 H s       :     0.808006  s :     0.808006

 31 H s       :     0.895473  s :     0.895473

 32 H s       :     0.883645  s :     0.883645

 33 H s       :     0.870015  s :     0.870015

 34 H s       :     0.880840  s :     0.880840

 35 H s       :     0.892402  s :     0.892402

 36 H s       :     0.882887  s :     0.882887

 37 H s       :     0.890286  s :     0.890286

 38 H s       :     0.872468  s :     0.872468

 39 H s       :     0.888588  s :     0.888588

 40 H s       :     0.872498  s :     0.872498


------------------------
MULLIKEN OVERLAP CHARGES
------------------------
B(  0-C ,  1-C ) :   0.9122 B(  0-C ,  2-O ) :  -0.0928 B(  0-C , 19-H ) :   0.7281 
B(  0-C , 20-H ) :   0.7285 B(  0-C , 21-H ) :   0.6887 B(  0-C , 22-H ) :  -0.0651 
B(  1-C ,  2-O ) :   0.5548 B(  1-C ,  3-P ) :  -0.0805 B(  1-C , 22-H ) :   0.7171 
B(  1-C , 23-H ) :   0.7251 B(  2-O ,  3-P ) :   0.6378 B(  2-O ,  4-S ) :  -0.0736 
B(  2-O ,  5-O ) :  -0.0511 B(  2-O ,  8-S ) :  -0.0629 B(  2-O , 22-H ) :  -0.0675 
B(  2-O , 23-H ) :  -0.0568 B(  3-P ,  4-S ) :   0.9255 B(  3-P ,  5-O ) :   0.6089 
B(  3-P ,  6-C ) :  -0.0811 B(  3-P ,  8-S ) :   0.5403 B(  4-S ,  5-O ) :  -0.0725 
B(  4-S ,  8-S ) :  -0.0801 B(  4-S , 22-H ) :   0.0603 B(  4-S , 24-H ) :   0.0626 
B(  5-O ,  6-C ) :   0.5498 B(  5-O ,  7-C ) :  -0.0942 B(  5-O ,  8-S ) :  -0.0847 
B(  5-O , 24-H ) :  -0.0664 B(  5-O , 25-H ) :  -0.0581 B(  6-C ,  7-C ) :   0.9045 
B(  6-C , 24-H ) :   0.7185 B(  6-C , 25-H ) :   0.7336 B(  7-C , 24-H ) :  -0.0697 
B(  7-C , 25-H ) :  -0.0514 B(  7-C , 26-H ) :   0.7257 B(  7-C , 27-H ) :   0.7017 
B(  7-C , 28-H ) :   0.7320 B(  8-S ,  9-C ) :   0.4712 B(  8-S , 10-S ) :  -0.1706 
B(  8-S , 29-H ) :  -0.0720 B(  9-C , 10-S ) :   0.5328 B(  9-C , 11-P ) :  -0.0955 
B(  9-C , 12-S ) :  -0.0574 B(  9-C , 29-H ) :   0.6868 B(  9-C , 30-H ) :   0.6122 
B( 10-S , 11-P ) :   0.5487 B( 10-S , 12-S ) :  -0.0875 B( 10-S , 13-O ) :  -0.0670 
B( 10-S , 16-O ) :  -0.0754 B( 10-S , 29-H ) :  -0.0554 B( 10-S , 30-H ) :  -0.0720 
B( 10-S , 32-H ) :   0.0554 B( 11-P , 12-S ) :   0.9238 B( 11-P , 13-O ) :   0.6263 
B( 11-P , 14-C ) :  -0.0538 B( 11-P , 16-O ) :   0.6363 B( 11-P , 17-C ) :  -0.0889 
B( 12-S , 13-O ) :  -0.0795 B( 12-S , 16-O ) :  -0.0532 B( 12-S , 30-H ) :   0.1266 
B( 13-O , 14-C ) :   0.5104 B( 13-O , 15-C ) :  -0.1087 B( 13-O , 16-O ) :  -0.0593 
B( 13-O , 31-H ) :  -0.0585 B( 13-O , 32-H ) :  -0.0615 B( 14-C , 15-C ) :   0.8726 
B( 14-C , 31-H ) :   0.7240 B( 14-C , 32-H ) :   0.7083 B( 15-C , 31-H ) :  -0.0511 
B( 15-C , 32-H ) :  -0.0551 B( 15-C , 33-H ) :   0.7400 B( 15-C , 34-H ) :   0.7353 
B( 15-C , 35-H ) :   0.6979 B( 16-O , 17-C ) :   0.5662 B( 16-O , 18-C ) :  -0.0994 
B( 16-O , 36-H ) :  -0.0602 B( 16-O , 37-H ) :  -0.0572 B( 17-C , 18-C ) :   0.9185 
B( 17-C , 36-H ) :   0.7492 B( 17-C , 37-H ) :   0.7316 B( 18-C , 36-H ) :  -0.0740 
B( 18-C , 38-H ) :   0.7260 B( 18-C , 39-H ) :   0.6896 B( 18-C , 40-H ) :   0.7382 
B( 19-H , 20-H ) :  -0.0560 B( 22-H , 23-H ) :  -0.0636 B( 24-H , 25-H ) :  -0.0650 
B( 26-H , 28-H ) :  -0.0527 B( 31-H , 32-H ) :  -0.0743 B( 36-H , 37-H ) :  -0.0711 
B( 38-H , 40-H ) :  -0.0506 


                     *******************************
                     * LOEWDIN POPULATION ANALYSIS *
                     *******************************

----------------------
LOEWDIN ATOMIC CHARGES
----------------------
   0 C :   -0.370632
   1 C :   -0.117946
   2 O :   -0.240463
   3 P :    0.569406
   4 S :   -0.324064
   5 O :   -0.243241
   6 C :   -0.119069
   7 C :   -0.363973
   8 S :    0.099040
   9 C :   -0.481376
  10 S :    0.076144
  11 P :    0.566121
  12 S :   -0.315652
  13 O :   -0.235358
  14 C :   -0.118453
  15 C :   -0.353170
  16 O :   -0.246810
  17 C :   -0.113816
  18 C :   -0.368838
  19 H :    0.126560
  20 H :    0.122683
  21 H :    0.133070
  22 H :    0.111200
  23 H :    0.120678
  24 H :    0.109954
  25 H :    0.120002
  26 H :    0.122317
  27 H :    0.131378
  28 H :    0.127991
  29 H :    0.133762
  30 H :    0.129582
  31 H :    0.113677
  32 H :    0.103654
  33 H :    0.124311
  34 H :    0.128885
  35 H :    0.127405
  36 H :    0.109786
  37 H :    0.121463
  38 H :    0.122603
  39 H :    0.130142
  40 H :    0.131044

-------------------------------
LOEWDIN REDUCED ORBITAL CHARGES
-------------------------------
  0 C s       :     2.954067  s :     2.954067
      pz      :     1.125401  p :     3.347281
      px      :     1.111335
      py      :     1.110546
      dz2     :     0.022508  d :     0.069284
      dxz     :     0.008040
      dyz     :     0.008152
      dx2y2   :     0.017799
      dxy     :     0.012785

  1 C s       :     2.927364  s :     2.927364
      pz      :     1.096659  p :     3.055608
      px      :     1.120730
      py      :     0.838218
      dz2     :     0.035156  d :     0.134975
      dxz     :     0.008184
      dyz     :     0.026266
      dx2y2   :     0.036894
      dxy     :     0.028476

  2 O s       :     3.499782  s :     3.499782
      pz      :     1.730058  p :     4.716679
      px      :     1.614402
      py      :     1.372220
      dz2     :     0.003101  d :     0.024002
      dxz     :     0.002743
      dyz     :     0.005351
      dx2y2   :     0.005666
      dxy     :     0.007140

  3 P s       :     5.057833  s :     5.057833
      pz      :     2.935707  p :     8.556820
      px      :     2.852266
      py      :     2.768847
      dz2     :     0.169975  d :     0.815941
      dxz     :     0.173741
      dyz     :     0.133367
      dx2y2   :     0.144825
      dxy     :     0.194034

  4 S s       :     5.771244  s :     5.771244
      pz      :     3.195975  p :    10.494711
      px      :     3.614721
      py      :     3.684015
      dz2     :     0.026981  d :     0.058109
      dxz     :     0.017996
      dyz     :     0.009138
      dx2y2   :     0.002385
      dxy     :     0.001609

  5 O s       :     3.503818  s :     3.503818
      pz      :     1.631123  p :     4.715211
      px      :     1.637377
      py      :     1.446711
      dz2     :     0.004314  d :     0.024213
      dxz     :     0.004097
      dyz     :     0.006426
      dx2y2   :     0.004603
      dxy     :     0.004773

  6 C s       :     2.928888  s :     2.928888
      pz      :     1.005251  p :     3.056393
      px      :     1.037521
      py      :     1.013621
      dz2     :     0.019120  d :     0.133788
      dxz     :     0.036006
      dyz     :     0.029735
      dx2y2   :     0.027967
      dxy     :     0.020960

  7 C s       :     2.952647  s :     2.952647
      pz      :     1.128959  p :     3.342043
      px      :     1.085527
      py      :     1.127556
      dz2     :     0.006699  d :     0.069284
      dxz     :     0.017986
      dyz     :     0.017496
      dx2y2   :     0.013884
      dxy     :     0.013219

  8 S s       :     5.645471  s :     5.645471
      pz      :     3.416148  p :    10.161223
      px      :     3.249891
      py      :     3.495184
      dz2     :     0.016742  d :     0.094266
      dxz     :     0.029653
      dyz     :     0.012888
      dx2y2   :     0.012283
      dxy     :     0.022701

  9 C s       :     3.061050  s :     3.061050
      pz      :     1.145135  p :     3.332095
      px      :     1.082614
      py      :     1.104346
      dz2     :     0.010658  d :     0.088232
      dxz     :     0.025875
      dyz     :     0.016262
      dx2y2   :     0.012300
      dxy     :     0.023136

 10 S s       :     5.649389  s :     5.649389
      pz      :     3.334214  p :    10.177386
      px      :     3.200461
      py      :     3.642712
      dz2     :     0.013429  d :     0.097082
      dxz     :     0.044324
      dyz     :     0.015720
      dx2y2   :     0.010445
      dxy     :     0.013163

 11 P s       :     5.056946  s :     5.056946
      pz      :     2.880450  p :     8.554350
      px      :     2.821748
      py      :     2.852152
      dz2     :     0.125934  d :     0.822582
      dxz     :     0.196136
      dyz     :     0.184912
      dx2y2   :     0.159733
      dxy     :     0.155866

 12 S s       :     5.764307  s :     5.764307
      pz      :     3.367412  p :    10.494189
      px      :     3.642883
      py      :     3.483893
      dz2     :     0.012099  d :     0.057157
      dxz     :     0.007845
      dyz     :     0.025314
      dx2y2   :     0.006676
      dxy     :     0.005223

 13 O s       :     3.502523  s :     3.502523
      pz      :     1.644636  p :     4.708810
      px      :     1.699289
      py      :     1.364885
      dz2     :     0.003242  d :     0.024024
      dxz     :     0.002782
      dyz     :     0.009023
      dx2y2   :     0.004313
      dxy     :     0.004664

 14 C s       :     2.931030  s :     2.931030
      pz      :     1.042570  p :     3.056175
      px      :     1.100743
      py      :     0.912862
      dz2     :     0.018100  d :     0.131247
      dxz     :     0.025936
      dyz     :     0.035245
      dx2y2   :     0.020664
      dxy     :     0.031303

 15 C s       :     2.949993  s :     2.949993
      pz      :     1.110617  p :     3.334179
      px      :     1.117635
      py      :     1.105927
      dz2     :     0.008016  d :     0.068998
      dxz     :     0.017992
      dyz     :     0.018413
      dx2y2   :     0.008286
      dxy     :     0.016291

 16 O s       :     3.493680  s :     3.493680
      pz      :     1.518289  p :     4.729730
      px      :     1.552318
      py      :     1.659123
      dz2     :     0.003756  d :     0.023399
      dxz     :     0.005251
      dyz     :     0.005789
      dx2y2   :     0.003626
      dxy     :     0.004977

 17 C s       :     2.925327  s :     2.925327
      pz      :     0.941514  p :     3.052895
      px      :     1.059508
      py      :     1.051872
      dz2     :     0.025425  d :     0.135594
      dxz     :     0.034630
      dyz     :     0.028010
      dx2y2   :     0.016770
      dxy     :     0.030758

 18 C s       :     2.953136  s :     2.953136
      pz      :     1.129902  p :     3.346559
      px      :     1.133761
      py      :     1.082896
      dz2     :     0.010088  d :     0.069143
      dxz     :     0.019826
      dyz     :     0.010927
      dx2y2   :     0.009765
      dxy     :     0.018536

 19 H s       :     0.873440  s :     0.873440

 20 H s       :     0.877317  s :     0.877317

 21 H s       :     0.866930  s :     0.866930

 22 H s       :     0.888800  s :     0.888800

 23 H s       :     0.879322  s :     0.879322

 24 H s       :     0.890046  s :     0.890046

 25 H s       :     0.879998  s :     0.879998

 26 H s       :     0.877683  s :     0.877683

 27 H s       :     0.868622  s :     0.868622

 28 H s       :     0.872009  s :     0.872009

 29 H s       :     0.866238  s :     0.866238

 30 H s       :     0.870418  s :     0.870418

 31 H s       :     0.886323  s :     0.886323

 32 H s       :     0.896346  s :     0.896346

 33 H s       :     0.875689  s :     0.875689

 34 H s       :     0.871115  s :     0.871115

 35 H s       :     0.872595  s :     0.872595

 36 H s       :     0.890214  s :     0.890214

 37 H s       :     0.878537  s :     0.878537

 38 H s       :     0.877397  s :     0.877397

 39 H s       :     0.869858  s :     0.869858

 40 H s       :     0.868956  s :     0.868956


---------------------------------
LOEWDIN BOND ORDERS (THRESH 0.050000)
---------------------------------
B(  0-C ,  1-C ) :   1.1565 B(  0-C ,  2-O ) :   0.0599 B(  0-C , 19-H ) :   0.9341 
B(  0-C , 20-H ) :   0.9250 B(  0-C , 21-H ) :   0.9246 B(  1-C ,  2-O ) :   1.0892 
B(  1-C ,  3-P ) :   0.0653 B(  1-C , 22-H ) :   0.9073 B(  1-C , 23-H ) :   0.9168 
B(  2-O ,  3-P ) :   1.2805 B(  2-O ,  4-S ) :   0.0937 B(  2-O ,  8-S ) :   0.0571 
B(  3-P ,  4-S ) :   1.7142 B(  3-P ,  5-O ) :   1.2768 B(  3-P ,  6-C ) :   0.0646 
B(  3-P ,  8-S ) :   1.0686 B(  4-S ,  5-O ) :   0.0968 B(  4-S ,  8-S ) :   0.1257 
B(  5-O ,  6-C ) :   1.0858 B(  5-O ,  7-C ) :   0.0586 B(  5-O ,  8-S ) :   0.0531 
B(  6-C ,  7-C ) :   1.1581 B(  6-C , 24-H ) :   0.9079 B(  6-C , 25-H ) :   0.9174 
B(  7-C , 26-H ) :   0.9302 B(  7-C , 27-H ) :   0.9258 B(  7-C , 28-H ) :   0.9359 
B(  8-S ,  9-C ) :   1.1601 B(  8-S , 10-S ) :   0.1022 B(  9-C , 10-S ) :   1.1734 
B(  9-C , 29-H ) :   0.9181 B(  9-C , 30-H ) :   0.8922 B( 10-S , 11-P ) :   1.0202 
B( 10-S , 12-S ) :   0.1273 B( 10-S , 13-O ) :   0.0696 B( 10-S , 16-O ) :   0.0611 
B( 11-P , 12-S ) :   1.7476 B( 11-P , 13-O ) :   1.3114 B( 11-P , 14-C ) :   0.0634 
B( 11-P , 16-O ) :   1.2750 B( 11-P , 17-C ) :   0.0587 B( 12-S , 13-O ) :   0.0804 
B( 12-S , 16-O ) :   0.0822 B( 12-S , 30-H ) :   0.0697 B( 13-O , 14-C ) :   1.0663 
B( 13-O , 15-C ) :   0.0586 B( 13-O , 16-O ) :   0.0526 B( 14-C , 15-C ) :   1.1556 
B( 14-C , 31-H ) :   0.9178 B( 14-C , 32-H ) :   0.9067 B( 15-C , 33-H ) :   0.9303 
B( 15-C , 34-H ) :   0.9350 B( 15-C , 35-H ) :   0.9289 B( 16-O , 17-C ) :   1.0933 
B( 16-O , 18-C ) :   0.0574 B( 17-C , 18-C ) :   1.1596 B( 17-C , 36-H ) :   0.9147 
B( 17-C , 37-H ) :   0.9169 B( 18-C , 38-H ) :   0.9254 B( 18-C , 39-H ) :   0.9239 
B( 18-C , 40-H ) :   0.9335 

------------------------------------------
LOEWDIN REDUCED ORBITAL POPULATIONS PER MO
-------------------------------------------
THRESHOLD FOR PRINTING IS 0.1%%
                      0         1         2         3         4         5   
                 -88.04509 -88.04066 -87.99383 -87.97780 -76.43149 -76.42194
                   2.00000   2.00000   2.00000   2.00000   2.00000   2.00000
                  --------  --------  --------  --------  --------  --------
 3 P  s               0.0       0.0       0.0       0.0     100.0       0.0
 4 S  s               0.0       0.0     100.0       0.0       0.0       0.0
 8 S  s             100.0       0.0       0.0       0.0       0.0       0.0
10 S  s               0.0     100.0       0.0       0.0       0.0       0.0
11 P  s               0.0       0.0       0.0       0.0       0.0     100.0
12 S  s               0.0       0.0       0.0     100.0       0.0       0.0

                      6         7         8         9        10        11   
                 -18.80062 -18.79582 -18.79415 -18.78797  -9.95986  -9.95882
                   2.00000   2.00000   2.00000   2.00000   2.00000   2.00000
                  --------  --------  --------  --------  --------  --------
 1 C  s               0.0       0.0       0.0       0.0      99.7       0.0
 2 O  s              99.9       0.0       0.0       0.0       0.0       0.0
 5 O  s               0.0      99.9       0.0       0.0       0.0       0.0
13 O  s               0.0       0.0       0.0      99.9       0.0       0.0
16 O  s               0.0       0.0      99.9       0.0       0.0       0.0
17 C  s               0.0       0.0       0.0       0.0       0.0      99.7

                     12        13        14        15        16        17   
                  -9.95560  -9.95547  -9.95054  -9.89263  -9.88813  -9.88417
                   2.00000   2.00000   2.00000   2.00000   2.00000   2.00000
                  --------  --------  --------  --------  --------  --------
 0 C  s               0.0       0.0       0.0      99.7       0.0       0.0
 6 C  s              99.0       0.7       0.0       0.0       0.0       0.0
 7 C  s               0.0       0.0       0.0       0.0      99.7       0.0
 9 C  s               0.7      99.1       0.0       0.0       0.0       0.0
14 C  s               0.0       0.0      99.7       0.0       0.0       0.0
15 C  s               0.0       0.0       0.0       0.0       0.0      99.7

                     18        19        20        21        22        23   
                  -9.88221  -7.69028  -7.68525  -7.63861  -7.62321  -6.42916
                   2.00000   2.00000   2.00000   2.00000   2.00000   2.00000
                  --------  --------  --------  --------  --------  --------
 2 O  px              0.0       0.0       0.0       0.0       0.0       0.1
 3 P  s               0.0       0.0       0.0       0.0       0.0      99.3
 4 S  s               0.0       0.0       0.0      99.9       0.0       0.0
 5 O  py              0.0       0.0       0.0       0.0       0.0       0.2
 8 S  s               0.0      99.7       0.0       0.0       0.0       0.0
10 S  s               0.0       0.0      99.7       0.0       0.0       0.0
12 S  s               0.0       0.0       0.0       0.0      99.9       0.0
18 C  s              99.7       0.0       0.0       0.0       0.0       0.0

                     24        25        26        27        28        29   
                  -6.41951  -5.71805  -5.71496  -5.71285  -5.70986  -5.70713
                   2.00000   2.00000   2.00000   2.00000   2.00000   2.00000
                  --------  --------  --------  --------  --------  --------
 8 S  pz              0.0      14.2      64.5       0.0       0.0      21.3
 8 S  px              0.0      69.8       0.6       0.0       0.0      29.5
 8 S  py              0.0      15.9      34.8       0.0       0.0      49.2
10 S  pz              0.0       0.0       0.0       0.0     100.0       0.0
10 S  px              0.0       0.0       0.0      78.8       0.0       0.0
10 S  py              0.0       0.0       0.0      21.2       0.0       0.0
11 P  s              99.3       0.0       0.0       0.0       0.0       0.0
13 O  py              0.2       0.0       0.0       0.0       0.0       0.0
16 O  px              0.1       0.0       0.0       0.0       0.0       0.0

                     30        31        32        33        34        35   
                  -5.70249  -5.66734  -5.65926  -5.65904  -5.65226  -5.64387
                   2.00000   2.00000   2.00000   2.00000   2.00000   2.00000
                  --------  --------  --------  --------  --------  --------
 4 S  pz              0.0      90.0       8.0       2.1       0.0       0.0
 4 S  px              0.0       9.7      83.6       6.7       0.0       0.0
 4 S  py              0.0       0.3       8.4      91.2       0.0       0.0
10 S  px             21.2       0.0       0.0       0.0       0.0       0.0
10 S  py             78.8       0.0       0.0       0.0       0.0       0.0
12 S  pz              0.0       0.0       0.0       0.0      59.1       0.1
12 S  px              0.0       0.0       0.0       0.0       4.9      90.1
12 S  py              0.0       0.0       0.0       0.0      36.0       9.8

                     36        37        38        39        40        41   
                  -5.64314  -4.65172  -4.65090  -4.64961  -4.64246  -4.64146
                   2.00000   2.00000   2.00000   2.00000   2.00000   2.00000
                  --------  --------  --------  --------  --------  --------
 3 P  pz              0.0       0.1       3.3      96.6       0.0       0.0
 3 P  px              0.0       6.2      90.9       2.8       0.0       0.0
 3 P  py              0.0      93.6       5.7       0.5       0.0       0.0
11 P  pz              0.0       0.0       0.0       0.0      39.8       7.3
11 P  px              0.0       0.0       0.0       0.0      49.7      34.8
11 P  py              0.0       0.0       0.0       0.0      10.4      57.8
12 S  pz             40.8       0.0       0.0       0.0       0.0       0.0
12 S  px              5.0       0.0       0.0       0.0       0.0       0.0
12 S  py             54.2       0.0       0.0       0.0       0.0       0.0

                     42        43        44        45        46        47   
                  -4.63942  -0.99323  -0.98687  -0.95318  -0.94356  -0.76519
                   2.00000   2.00000   2.00000   2.00000   2.00000   2.00000
                  --------  --------  --------  --------  --------  --------
 0 C  s               0.0       0.3       0.0       0.3       0.0       0.1
 0 C  px              0.0       0.1       0.0       0.2       0.0       0.0
 0 C  py              0.0       0.3       0.0       0.3       0.0       0.0
 1 C  s               0.0       3.8       0.0       4.3       0.0       0.4
 1 C  pz              0.0       0.5       0.0       0.5       0.0       0.0
 1 C  py              0.0       3.6       0.0       3.2       0.0       0.0
 1 C  dyz             0.0       0.1       0.0       0.1       0.0       0.0
 1 C  dx2y2           0.0       0.2       0.0       0.2       0.0       0.0
 2 O  s               0.0      32.1       0.0      26.8       0.0       0.2
 2 O  pz              0.0       0.4       0.0       0.4       0.0       0.0
 2 O  px              0.0       1.2       0.0       0.4       0.0       0.2
 2 O  py              0.0       0.0       0.0       0.5       0.0       0.4
 3 P  s               0.0      14.2       0.0       0.1       0.0       3.3
 3 P  pz              0.0       0.6       0.0       0.0       0.0       0.6
 3 P  px              0.0       4.1       0.0       0.3       0.0       1.9
 3 P  py              0.0       0.1       0.0      10.7       0.0       0.0
 3 P  dz2             0.0       0.7       0.0       0.0       0.0       0.1
 3 P  dxz             0.0       0.1       0.0       0.0       0.0       0.1
 3 P  dyz             0.0       0.0       0.0       0.4       0.0       0.0
 3 P  dx2y2           0.0       0.1       0.0       0.5       0.0       0.0
 3 P  dxy             0.0       0.1       0.0       2.4       0.0       0.0
 4 S  s               0.0       0.3       0.0       0.0       0.0       0.6
 4 S  pz              0.0       0.3       0.0       0.0       0.0       0.2
 5 O  s               0.0      24.9       0.0      33.9       0.0       0.3
 5 O  pz              0.0       0.8       0.0       1.1       0.0       0.1
 5 O  px              0.0       0.0       0.0       0.0       0.0       0.4
 5 O  py              0.0       0.8       0.0       0.1       0.0       0.7
 6 C  s               0.0       2.9       0.0       4.9       0.0       1.0
 6 C  pz              0.0       1.2       0.0       1.7       0.0       0.1
 6 C  px              0.0       0.7       0.0       1.0       0.0       0.0
 6 C  py              0.0       1.4       0.0       1.6       0.0       0.0
 6 C  dxz             0.0       0.1       0.0       0.1       0.0       0.0
 6 C  dyz             0.0       0.1       0.0       0.2       0.0       0.0
 6 C  dxy             0.0       0.1       0.0       0.1       0.0       0.0
 7 C  s               0.0       0.2       0.0       0.3       0.0       0.3
 7 C  px              0.0       0.3       0.0       0.5       0.0       0.1
 8 S  s               0.0       0.3       0.0       0.0       0.0      20.0
 8 S  pz              0.0       0.2       0.0       0.0       0.0       1.2
 8 S  px              0.0       0.2       0.0       0.0       0.0       0.5
 8 S  py              0.0       0.0       0.0       0.0       0.0       1.3
 8 S  dxy             0.0       0.0       0.0       0.0       0.0       0.2
 9 C  s               0.0       0.0       0.0       0.0       0.0      26.2
 9 C  pz              0.0       0.0       0.0       0.0       0.0       0.2
 9 C  py              0.0       0.0       0.0       0.0       0.0       2.3
10 S  s               0.0       0.0       0.3       0.0       0.0      16.3
10 S  pz              0.0       0.0       0.2       0.0       0.0       2.1
10 S  px              0.0       0.0       0.1       0.0       0.0       0.7
10 S  py              0.0       0.0       0.1       0.0       0.0       0.1
11 P  s               0.0       0.0      14.0       0.0       0.1       2.0
11 P  pz             52.8       0.0       0.3       0.0       3.7       0.3
11 P  px             15.5       0.0       0.5       0.0       5.5       0.9
11 P  py             31.7       0.0       4.2       0.0       1.6       0.7
11 P  dz2             0.0       0.0       0.1       0.0       0.1       0.0
11 P  dxz             0.0       0.0       0.9       0.0       0.3       0.1
11 P  dyz             0.0       0.0       0.0       0.0       0.8       0.0
11 P  dx2y2           0.0       0.0       0.0       0.0       1.0       0.0
11 P  dxy             0.0       0.0       0.0       0.0       1.2       0.0
12 S  s               0.0       0.0       0.3       0.0       0.0       0.4
12 S  pz              0.0       0.0       0.2       0.0       0.0       0.1
[...]
 1 C  dxy             0.0       0.1       0.2       0.0
 2 O  s               0.0       0.2       0.2       0.0
 2 O  px              0.0       0.2       0.7       0.1
 2 O  py              0.0       1.3       3.5       0.4
 2 O  dxz             0.0       0.1       0.8       0.1
 2 O  dyz             0.1       7.1      13.5       1.6
 2 O  dx2y2           0.1       9.1      20.1       2.4
 2 O  dxy             0.0       1.4       6.5       0.8
 3 P  s               0.0       0.5       0.0       0.0
 3 P  px              0.0       0.4       0.0       0.0
 3 P  py              0.0       0.0       2.7       0.4
 3 P  dz2             0.0       0.4       0.0       0.0
 3 P  dyz             0.0       0.1       0.1       0.0
 3 P  dxy             0.0       0.0       1.5       0.2
 5 O  s               0.0       2.2       0.2       0.0
 5 O  pz              0.0       0.8       0.1       0.0
 5 O  px              0.0       1.2       0.6       0.1
 5 O  py              0.0       1.8       2.1       0.3
 5 O  dz2             0.0       2.3       4.3       0.6
 5 O  dxz             0.0      18.4       4.8       0.6
 5 O  dyz             0.0      25.4      10.0       1.2
 5 O  dx2y2           0.0       0.0       5.1       0.6
 5 O  dxy             0.0       7.5       0.4       0.1
 6 C  s               0.0       1.6       0.3       0.0
 6 C  pz              0.0       1.2       0.2       0.0
 6 C  px              0.0       0.8       0.2       0.0
 6 C  py              0.0       0.8       0.2       0.0
 6 C  dz2             0.0       0.2       0.0       0.0
 6 C  dxz             0.0       2.8       0.3       0.0
 6 C  dyz             0.0       4.1       1.0       0.1
 6 C  dxy             0.0       2.5       0.7       0.1
 7 C  dxz             0.0       0.1       0.0       0.0
 7 C  dx2y2           0.0       0.1       0.0       0.0
11 P  s               0.4       0.0       0.0       0.1
11 P  pz              0.8       0.0       0.1       0.8
11 P  px              0.8       0.0       0.1       1.1
11 P  py              0.1       0.0       0.1       0.9
11 P  dz2             0.1       0.0       0.0       0.4
11 P  dxz             0.1       0.0       0.0       0.1
11 P  dyz             0.5       0.0       0.0       0.2
11 P  dx2y2           0.1       0.0       0.1       0.8
11 P  dxy             0.2       0.0       0.0       0.3
13 O  s               5.2       0.0       0.0       0.2
13 O  pz              0.5       0.0       0.0       0.0
13 O  px              0.1       0.0       0.1       0.7
13 O  py              0.8       0.0       0.4       3.5
13 O  dz2             1.5       0.0       0.2       1.2
13 O  dxz             2.1       0.0       0.5       5.2
13 O  dyz            15.7       0.0       3.0      28.3
13 O  dx2y2          19.6       0.0       0.0       0.0
13 O  dxy            15.0       0.0       0.3       1.3
14 C  s               1.1       0.0       0.0       0.5
14 C  pz              0.6       0.0       0.0       0.1
14 C  px              0.2       0.0       0.0       0.2
14 C  py              1.7       0.0       0.1       0.7
14 C  dz2             0.0       0.0       0.1       0.5
14 C  dxz             1.0       0.0       0.0       0.4
14 C  dyz             5.9       0.0       0.1       1.4
14 C  dx2y2           1.9       0.0       0.1       0.8
14 C  dxy             0.7       0.0       0.0       0.5
15 C  dz2             0.0       0.0       0.0       0.1
15 C  dyz             0.1       0.0       0.0       0.0
15 C  dxy             0.1       0.0       0.0       0.2
16 O  s               0.4       0.0       0.0       0.1
16 O  pz              1.0       0.0       0.2       1.5
16 O  px              1.0       0.0       0.2       1.4
16 O  dz2             0.2       0.0       0.3       2.2
16 O  dxz             3.0       0.0       0.1       0.5
16 O  dyz             6.5       0.0       2.1      14.9
16 O  dx2y2           3.6       0.0       0.2       1.3
16 O  dxy             5.1       0.0       1.5      10.5
17 C  s               0.2       0.0       0.1       0.7
17 C  pz              0.2       0.0       0.1       0.6
17 C  px              0.1       0.0       0.0       0.3
17 C  py              0.1       0.0       0.0       0.3
17 C  dz2             0.2       0.0       0.1       0.6
17 C  dxz             0.5       0.0       0.2       1.5
17 C  dyz             0.0       0.0       0.2       1.2
17 C  dx2y2           0.2       0.0       0.0       0.1
17 C  dxy             0.1       0.0       0.1       0.5


                      *****************************
                      * MAYER POPULATION ANALYSIS *
                      *****************************

  NA   - Mulliken gross atomic population
  ZA   - Total nuclear charge
  QA   - Mulliken gross atomic charge
  VA   - Mayer's total valence
  BVA  - Mayer's bonded valence
  FA   - Mayer's free valence

  ATOM       NA         ZA         QA         VA         BVA        FA
  0 C      6.3489     6.0000    -0.3489     3.9926     3.9926     0.0000
  1 C      5.9973     6.0000     0.0027     3.9902     3.9902     0.0000
  2 O      8.3693     8.0000    -0.3693     2.1854     2.1854     0.0000
  3 P     14.4078    15.0000     0.5922     4.9699     4.9699     0.0000
  4 S     16.3278    16.0000    -0.3278     2.0544     2.0544     0.0000
  5 O      8.3691     8.0000    -0.3691     2.1678     2.1678     0.0000
  6 C      6.0065     6.0000    -0.0065     4.0015     4.0015     0.0000
  7 C      6.3065     6.0000    -0.3065     3.9993     3.9993     0.0000
  8 S     16.0605    16.0000    -0.0605     2.2678     2.2678     0.0000
  9 C      6.3561     6.0000    -0.3561     3.8014     3.8014    -0.0000
 10 S     16.0866    16.0000    -0.0866     2.3129     2.3129     0.0000
 11 P     14.4102    15.0000     0.5898     4.9646     4.9646     0.0000
 12 S     16.3116    16.0000    -0.3116     2.0256     2.0256     0.0000
 13 O      8.3567     8.0000    -0.3567     2.1629     2.1629     0.0000
 14 C      6.0240     6.0000    -0.0240     3.9842     3.9842     0.0000
 15 C      6.2880     6.0000    -0.2880     4.0014     4.0014     0.0000
 16 O      8.3844     8.0000    -0.3844     2.1701     2.1701     0.0000
 17 C      6.0145     6.0000    -0.0145     4.0198     4.0198    -0.0000
 18 C      6.3088     6.0000    -0.3088     3.9873     3.9873    -0.0000
 19 H      0.8731     1.0000     0.1269     0.9587     0.9587     0.0000
 20 H      0.8550     1.0000     0.1450     0.9784     0.9784     0.0000
 21 H      0.8838     1.0000     0.1162     0.9552     0.9552     0.0000
 22 H      0.8874     1.0000     0.1126     0.9810     0.9810     0.0000
 23 H      0.8910     1.0000     0.1090     0.9492     0.9492    -0.0000
 24 H      0.8892     1.0000     0.1108     0.9816     0.9816     0.0000
 25 H      0.8920     1.0000     0.1080     0.9485     0.9485     0.0000
 26 H      0.8787     1.0000     0.1213     0.9780     0.9780     0.0000
 27 H      0.8860     1.0000     0.1140     0.9535     0.9535     0.0000
 28 H      0.8799     1.0000     0.1201     0.9599     0.9599     0.0000
 29 H      0.8119     1.0000     0.1881     0.9516     0.9516     0.0000
 30 H      0.8080     1.0000     0.1920     1.0007     1.0007     0.0000
 31 H      0.8955     1.0000     0.1045     0.9549     0.9549     0.0000
 32 H      0.8836     1.0000     0.1164     0.9820     0.9820     0.0000
 33 H      0.8700     1.0000     0.1300     0.9747     0.9747     0.0000
 34 H      0.8808     1.0000     0.1192     0.9570     0.9570     0.0000
 35 H      0.8924     1.0000     0.1076     0.9539     0.9539     0.0000
 36 H      0.8829     1.0000     0.1171     0.9481     0.9481    -0.0000
 37 H      0.8903     1.0000     0.1097     0.9475     0.9475     0.0000
 38 H      0.8725     1.0000     0.1275     0.9880     0.9880    -0.0000
 39 H      0.8886     1.0000     0.1114     0.9528     0.9528    -0.0000
 40 H      0.8725     1.0000     0.1275     0.9651     0.9651    -0.0000

  Mayer bond orders larger than 0.100000
B(  0-C ,  1-C ) :   1.1638 B(  0-C , 19-H ) :   0.9413 B(  0-C , 20-H ) :   0.9280 
B(  0-C , 21-H ) :   0.9366 B(  1-C ,  2-O ) :   0.9038 B(  1-C , 22-H ) :   0.9144 
B(  1-C , 23-H ) :   0.9323 B(  2-O ,  3-P ) :   1.1107 B(  3-P ,  4-S ) :   1.6021 
B(  3-P ,  5-O ) :   1.1097 B(  3-P ,  8-S ) :   0.9735 B(  4-S ,  8-S ) :   0.1143 
B(  5-O ,  6-C ) :   0.9042 B(  6-C ,  7-C ) :   1.1670 B(  6-C , 24-H ) :   0.9151 
B(  6-C , 25-H ) :   0.9340 B(  7-C , 26-H ) :   0.9379 B(  7-C , 27-H ) :   0.9388 
B(  7-C , 28-H ) :   0.9459 B(  8-S ,  9-C ) :   0.9889 B(  9-C , 10-S ) :   1.0120 
B(  9-C , 29-H ) :   0.8932 B(  9-C , 30-H ) :   0.8549 B( 10-S , 11-P ) :   0.9429 
B( 10-S , 12-S ) :   0.1075 B( 11-P , 12-S ) :   1.6371 B( 11-P , 13-O ) :   1.1400 
B( 11-P , 16-O ) :   1.0895 B( 12-S , 30-H ) :   0.1136 B( 13-O , 14-C ) :   0.8861 
B( 14-C , 15-C ) :   1.1677 B( 14-C , 31-H ) :   0.9281 B( 14-C , 32-H ) :   0.9063 
B( 15-C , 33-H ) :   0.9401 B( 15-C , 34-H ) :   0.9472 B( 15-C , 35-H ) :   0.9396 
B( 16-O , 17-C ) :   0.9125 B( 17-C , 18-C ) :   1.1663 B( 17-C , 36-H ) :   0.9266 
B( 17-C , 37-H ) :   0.9336 B( 18-C , 38-H ) :   0.9315 B( 18-C , 39-H ) :   0.9351 
B( 18-C , 40-H ) :   0.9432 

-------
TIMINGS
-------

Total SCF time: 0 days 0 hours 0 min 16 sec 

Total time                  ....      16.242 sec
Sum of individual times     ....      15.757 sec  ( 97.0%)

SCF preparation             ....       0.205 sec  (  1.3%)
Fock matrix formation       ....      14.390 sec  ( 88.6%)
  Startup                   ....       0.067 sec  (  0.5% of F)
  Split-RI-J                ....       8.583 sec  ( 59.6% of F)
  XC integration            ....       5.259 sec  ( 36.5% of F)
    Basis function eval.    ....       2.002 sec  ( 38.1% of XC)
    Density eval.           ....       0.988 sec  ( 18.8% of XC)
    XC-Functional eval.     ....       0.403 sec  (  7.7% of XC)
    XC-Potential eval.      ....       1.157 sec  ( 22.0% of XC)
Diagonalization             ....       0.000 sec  (  0.0%)
Density matrix formation    ....       0.223 sec  (  1.4%)
Total Energy calculation    ....       0.037 sec  (  0.2%)
Population analysis         ....       0.205 sec  (  1.3%)
Orbital Transformation      ....       0.098 sec  (  0.6%)
Orbital Orthonormalization  ....       0.000 sec  (  0.0%)
DIIS solution               ....       0.467 sec  (  2.9%)
  MO trafo                  ....       0.000 sec  (  0.0 % of DIIS)
  Orb grad                  ....       0.000 sec  (  0.0 % of DIIS)
  Energy W gradient         ....       0.000 sec  (  0.0 % of DIIS)
  DIIS error                ....       0.021 sec  (  4.5 % of DIIS)
  DIIS work                 ....       0.389 sec  ( 83.3 % of DIIS)
  Form Q                    ....       0.000 sec  (  0.0 % of DIIS)
  Form QpQm                 ....       0.000 sec  (  0.0 % of DIIS)
  Exp/Cayley                ....       0.000 sec  (  0.0 % of DIIS)
  Orb update                ....       0.000 sec  (  0.0 % of DIIS)
  Wake-sleep                ....       0.014 sec  (  2.9 % of DIIS)
SOSCF solution              ....       0.132 sec  (  0.8%)
  MO trafo                  ....       0.067 sec  ( 50.6 % of SOSCF)
  Orb grad                  ....       0.001 sec  (  1.1 % of SOSCF)
  Rot update                ....       0.026 sec  ( 20.0 % of SOSCF)
  Step                      ....       0.037 sec  ( 28.2 % of SOSCF)
Finished LeanSCF after  16.3 sec

Maximum memory used throughout the entire LEANSCF-calculation: 33.6 MB


-------------------------------------------------------------------------------
                          DFT DISPERSION CORRECTION                            
                                                                               
                                DFTD4 V3.4.0                                   
-------------------------------------------------------------------------------
The PBE functional is recognized
Active option DFTDOPT                   ...         5   

-------------------------   ----------------
Dispersion correction           -0.064262247
-------------------------   ----------------

------------------   -----------------
gCP correction             0.184653583
------------------   -----------------

-------------------------   --------------------
FINAL SINGLE POINT ENERGY     -2929.519520345462
-------------------------   --------------------


------------------------------------------------------------------------------
                              ORCA PROPERTY CALCULATIONS
------------------------------------------------------------------------------

GBWName                                 ... sp.gbw
Number of atoms                         ...     41
Number of basis functions               ...    334
Max core memory                         ...   1024 MB

Electric properties:
Dipole moment                           ... YES
Quadrupole moment                       ...  NO
Static polarizability (Dipole/Dipole)   ...  NO
Static polarizability (Dipole/Quad.)    ...  NO
Static polarizability (Quad./Quad.)     ...  NO
Static polarizability (Velocity)        ...  NO

Atomic electric properties:
Dipole moment                           ...  NO
Quadrupole moment                       ...  NO
Static polarizability                   ...  NO

Choice of electric origin               ... Center of mass
Position of electric origin             ...     0.000002     0.000003     0.000006

General magnetic properties:
Magnetizability                         ...  NO

EPR properties:
g-Tensor (aka g-matrix)                 ...  NO
Zero-Field splitting spin-orbit         ...  NO
Zero-field splitting spin-spin          ...  NO
Hyperfine couplings                     ...  NO (   0 nuclei)
Quadrupole couplings                    ...  NO (   0 nuclei)
Contact density                         ...  NO (   0 nuclei)

NMR properties:
Chemical shifts                         ...  NO (   0 nuclei)
Spin-rotation constants                 ...  NO (   0 nuclei)
Spin-spin couplings                     ...  NO (   0 nuclei,    0 pairs)

Choice of magnetic origin               ... GIAO
Position of magnetic origin             ...     0.000000     0.000000     0.000000

Properties with geometric perturbations:
SCF Hessian                             ...  NO
IR spectrum                             ...  NO
VCD spectrum                            ...  NO
X-ray spectroscopy properties:
SCF XES/XAS/RIXS spectra                ...  NO


-------------
DIPOLE MOMENT
-------------

Method             : SCF
Type of density    : Electron Density
Multiplicity       :   1
Irrep              :   0
Energy             : -2929.6399116808879626 Eh
Relativity type    : 
Basis              : AO
                                X                 Y                 Z
Electronic contribution:     -6.973100880      -8.816721416      -6.480892350
Nuclear contribution   :      7.879249631       9.539881928       7.589511891
                        -----------------------------------------
Total Dipole Moment    :      0.906148751       0.723160511       1.108619541
                        -----------------------------------------
Magnitude (a.u.)       :      1.604089764
Magnitude (Debye)      :      4.077272155



--------------------
Rotational spectrum 
--------------------
 
Rotational constants in cm-1:             0.012941             0.004516             0.004060 
Rotational constants in MHz :           387.969458           135.388148           121.712791 

Dipole components along the rotational axes: 
x,y,z [a.u.] :     1.112284     0.449533    -1.064823 
x,y,z [Debye]:     2.827202     1.142621    -2.706565 

 

Dipole moment calculation done in   0.0 sec 

Maximum memory used throughout the entire PROP-calculation: 23.2 MB

--------------------------------
SUGGESTED CITATIONS FOR THIS RUN
--------------------------------

Below you find a list of papers that are relevant to this ORCA run
We neither can nor want to force you to cite these papers, but we appreciate if you do
You receive ORCA, which is the product of decades of hard work by many enthusiastic individuals, for free
The only thing we kindly ask in return is that you cite our papers,
We deeply appreciate it, if you show your appreciation for ORCA by not just citing the generic ORCA reference.

Please note that relegating all ORCA citations to the supporting information does *not* help us.
SI sections are not indexed - citations you put there will not count into any citation statistics
But we need these citations in order to attract the funding resources that allow us to do what we are doing

Therefore, if you are a happy ORCA user, please consider citing a few of the papers listed below in the main body of your paper

In addition to the list printed below, the program has created the file sp.bibtex that contains the list in bibtex format
You can import this file easily into all common literature databanks and citation aid programs


List of essential papers. We consider these as the minimum necessary citations

  1. Neese,F.
     Software update: the ORCA program system, version 5.0
     WIRES Comput. Molec. Sci., 2022 12(1)e1606
     doi.org/10.1002/wcms.1606

List of papers to cite with high priority. The work reported in these papers was absolutely
necessary for this run to complete.
Our perspective: the developers of density functionals and basis sets usually get cited in chemistry papers
Good! But without the algorithms to do something with them, the functionals or basis sets would not do anything.
Hence, in our opinion, the algorithm design and method developments papers are equally worthy of getting cited

  1. Neese,F.
     An improvement of the resolution of the identity approximation for the formation of the Coulomb matrix
     J. Comp. Chem., 2003 24(14)1740-1747
     doi.org/10.1002/jcc.10318
  2. Neese,F.
     The SHARK Integral Generation and Digestion System
     J. Comp. Chem., 2022  1-16
     doi.org/10.1002/jcc.26942
  3. Caldeweyher,E.; Bannwarth,C.; Grimme,S.
     Extension of the D3 dispersion coefficient model
     J. Chem. Phys., 2017 147 034112-XXXX
     doi.org/10.1063/1.4993215
  4. Caldeweyher,E.; Ehlert,S.; Hansen,A.; Neugebauer,H.; Spicher,S.; Bannwarth,C.; Grimme,S.
     A generally applicable atomic-charge dependent London dispersion correction
     J. Chem. Phys., 2019 150 154122-XXXX
     doi.org/10.1063/1.5090222
  5. Caldeweyher,E.; Mewes,J.; Ehlert,S.; Grimme,S.
     Extension and evaluation of the D4 London-dispersion model for periodic systems
     Phys. Chem. Chem. Phys., 2020 22(16)8499-8512
     doi.org/10.1039/D0CP00502A

List of suggested additional citations. These are papers that are important in the 'surrounding' of 
of this run, or papers that preceded the highly important papers. If you like your results we are grateful for a citation.

  1. Neese,F.
     The ORCA program system
     WIRES Comput. Molec. Sci., 2012 2(1)73-78
     doi.org/10.1002/wcms.81
  2. Neese,F.
     Software update: the ORCA program system, version 4.0
     WIRES Comput. Molec. Sci., 2018 8(1)1-6
     doi.org/10.1002/wcms.1327
  3. Neese,F.; Wennmohs,F.; Becker,U.; Riplinger,C.
     The ORCA quantum chemistry program package
     J. Chem. Phys., 2020 152 Art. No. L224108
     doi.org/10.1063/5.0004608

List of optional additional citations

  1. Neese,F.
     Approximate second-order SCF convergence for spin unrestricted wavefunctions
     Chem. Phys. Lett., 2000 325(1-3)93-98
     doi.org/10.1016/s0009-2614(00)00662-x

Timings for individual modules:

Sum of individual times          ...       19.854 sec (=   0.331 min)
Startup calculation              ...        1.588 sec (=   0.026 min)   8.0 %
SCF iterations                   ...       18.157 sec (=   0.303 min)  91.5 %
Property calculations            ...        0.109 sec (=   0.002 min)   0.6 %
                             ****ORCA TERMINATED NORMALLY****
TOTAL RUN TIME: 0 days 0 hours 0 minutes 20 seconds 687 msec
