      -----------------------------------------------------------      
     |                   =====================                   |     
     |                           x T B                           |     
     |                   =====================                   |     
     |                         S. Grimme                         |     
     |          Mulliken Center for Theoretical Chemistry        |     
     |                    University of Bonn                     |     
      -----------------------------------------------------------      

   * xtb version 6.7.1 (edcfbbe) compiled by 'albert@albert-system' on 2024-07-22

   xtb is free software: you can redistribute it and/or modify it under
   the terms of the GNU Lesser General Public License as published by
   the Free Software Foundation, either version 3 of the License, or
   (at your option) any later version.
   
   xtb is distributed in the hope that it will be useful,
   but WITHOUT ANY WARRANTY; without even the implied warranty of
   MERCHANTABILITY or FITNESS FOR A PARTICULAR PURPOSE.  See the
   GNU Lesser General Public License for more details.
   
   Cite this work as:
   * C. Bannwarth, E. Caldeweyher, S. Ehlert, A. Hansen, P. Pracht,
     J. Seibert, S. Spicher, S. Grimme, WIREs Comput. Mol. Sci., 2020, 11,
     e01493. DOI: 10.1002/wcms.1493
   
   for GFN2-xTB:
   * C. Bannwarth, S. Ehlert and S. Grimme., J. Chem. Theory Comput., 2019,
     15, 1652-1671. DOI: 10.1021/acs.jctc.8b01176
   for GFN1-xTB:
   * S. Grimme, C. Bannwarth, P. Shushkov, J. Chem. Theory Comput., 2017,
     13, 1989-2009. DOI: 10.1021/acs.jctc.7b00118
   for GFN0-xTB:
   * P. Pracht, E. Caldeweyher, S. Ehlert, S. Grimme, ChemRxiv, 2019, preprint.
     DOI: 10.26434/chemrxiv.8326202.v1
   for GFN-FF:
   * S. Spicher and S. Grimme, Angew. Chem. Int. Ed., 2020, 59, 15665-15673.
     DOI: 10.1002/anie.202004239
   
   for ALPB and GBSA implicit solvation:
   * S. Ehlert, M. Stahn, S. Spicher, S. Grimme, J. Chem. Theory Comput.,
     2021, 17, 4250-4261. DOI: 10.1021/acs.jctc.1c00471
   
   for ddCOSMO and CPCM-X implicit solvation:
   * M. Stahn, S. Ehlert, S. Grimme, J. Phys. Chem. A,
     2023, XX, XXXX-XXXX. DOI: 10.1021/acs.jpca.3c04382
   
   for DFT-D4:
   * E. Caldeweyher, C. Bannwarth and S. Grimme, J. Chem. Phys., 2017,
     147, 034112. DOI: 10.1063/1.4993215
   * E. Caldeweyher, S. Ehlert, A. Hansen, H. Neugebauer, S. Spicher,
     C. Bannwarth and S. Grimme, J. Chem. Phys., 2019, 150, 154122.
     DOI: 10.1063/1.5090222
   * E. Caldeweyher, J.-M. Mewes, S. Ehlert and S. Grimme, Phys. Chem. Chem. Phys.
     2020, 22, 8499-8512. DOI: 10.1039/D0CP00502A
   
   for sTDA-xTB:
   * S. Grimme and C. Bannwarth, J. Chem. Phys., 2016, 145, 054103.
     DOI: 10.1063/1.4959605
   
   in the mass-spec context:
   * V. Asgeirsson, C. Bauer and S. Grimme, Chem. Sci., 2017, 8, 4879.
     DOI: 10.1039/c7sc00601b
   * J. Koopman and S. Grimme, ACS Omega 2019, 4, 12, 15120-15133.
     DOI: 10.1021/acsomega.9b02011
   
   for metadynamics refer to:
   * S. Grimme, J. Chem. Theory Comput., 2019, 155, 2847-2862
     DOI: 10.1021/acs.jctc.9b00143
   
   for SPH calculations refer to:
   * S. Spicher and S. Grimme, J. Chem. Theory Comput., 2021, 17, 1701-1714
     DOI: 10.1021/acs.jctc.0c01306
   
   for ONIOM refer to:
   * C. Plett, A. Katbashev, S. Ehlert, S. Grimme, M. Bursch,
     Phys. Chem. Chem. Phys., 2023, 25, 17860-17868. DOI: 10.1039/D3CP02178E
   
   for DIPRO refer to:
   * J. Kohn, N. Gildemeister, S. Grimme, D. Fazzi, A. Hansen,
     J. Chem. Phys., 2023, just accepted.
   
   for PTB refer to:
   * S. Grimme, M. Mueller, A. Hansen, J. Chem. Phys., 2023, 158, 124111.
     DOI: 10.1063/5.0137838
   
   with help from (in alphabetical order)
   P. Atkinson, C. Bannwarth, F. Bohle, G. Brandenburg, E. Caldeweyher
   M. Checinski, S. Dohm, S. Ehlert, S. Ehrlich, I. Gerasimov, C. Hölzer
   A. Katbashev, J. Kohn, J. Koopman, C. Lavigne, S. Lehtola, F. März, M. Müller,
   F. Musil, H. Neugebauer, J. Pisarek, C. Plett, P. Pracht, F. Pultar,
   J. Seibert, P. Shushkov, S. Spicher, M. Stahn, M. Steiner, T. Strunk,
   J. Stückrath, T. Rose, and J. Unsleber
   
 * started run on 2025/04/09 at 07:31:34.553     
   ID    Z sym.   atoms
    1    6 C      1, 2, 4, 6, 7, 9, 12, 13, 18, 20
    2    8 O      3, 5, 10, 11, 17, 19
    3    1 H      8, 21-38
    4   16 S      14, 16
    5   15 P      15

           -------------------------------------------------
          |                Calculation Setup                |
           -------------------------------------------------

          program call               : /software/projects/pawsey0265/mwang1/xtb/bin/xtb gas.coord --gfn2 --sp --chrg 0 --norestart --parallel 1
          hostname                   : nid002043
          coordinate file            : gas.coord
          omp threads                :                     1


           -------------------------------------------------
          |                 G F N 2 - x T B                 |
           -------------------------------------------------

        Reference                      10.1021/acs.jctc.8b01176
      * Hamiltonian:
        H0-scaling (s, p, d)           1.850000    2.230000    2.230000
        zeta-weighting                 0.500000
      * Dispersion:
        s8                             2.700000
        a1                             0.520000
        a2                             5.000000
        s9                             5.000000
      * Repulsion:
        kExp                           1.500000    1.000000
        rExp                           1.000000
      * Coulomb:
        alpha                          2.000000
        third order                    shell-resolved
        anisotropic                    true
        a3                             3.000000
        a5                             4.000000
        cn-shift                       1.200000
        cn-exp                         4.000000
        max-rad                        5.000000


          ...................................................
          :                      SETUP                      :
          :.................................................:
          :  # basis functions                 113          :
          :  # atomic orbitals                 110          :
          :  # shells                           60          :
          :  # electrons                       112          :
          :  max. iterations                   250          :
          :  Hamiltonian                  GFN2-xTB          :
          :  restarted?                      false          :
          :  GBSA solvation                  false          :
          :  PC potential                    false          :
          :  electronic temp.          300.0000000     K    :
          :  accuracy                    1.0000000          :
          :  -> integral cutoff          0.2500000E+02      :
          :  -> integral neglect         0.1000000E-07      :
          :  -> SCF convergence          0.1000000E-05 Eh   :
          :  -> wf. convergence          0.1000000E-03 e    :
          :  Broyden damping             0.4000000          :
          :  net charge                          0          :
          :  unpaired electrons                  0          :
          ...................................................

 iter      E             dE          RMSdq      gap      omega  full diag
   1    -65.0500665 -0.650501E+02  0.573E+00    4.43       0.0  T
   2    -65.2037573 -0.153691E+00  0.325E+00    3.23       1.0  T
   3    -65.2142430 -0.104858E-01  0.141E+00    3.19       1.0  T
   4    -65.2192049 -0.496192E-02  0.455E-01    2.97       1.0  T
   5    -65.2206331 -0.142812E-02  0.214E-01    3.08       1.0  T
   6    -65.2207903 -0.157195E-03  0.860E-02    3.08       1.0  T
   7    -65.2208025 -0.122442E-04  0.311E-02    3.08       1.0  T
   8    -65.2208059 -0.335761E-05  0.164E-02    3.09       1.0  T
   9    -65.2208069 -0.102878E-05  0.324E-03    3.09       5.0  T
  10    -65.2208070 -0.891896E-07  0.196E-03    3.09       8.3  T
  11    -65.2208070 -0.382065E-08  0.502E-04    3.09      32.3  T
  12    -65.2208070 -0.839677E-09  0.174E-04    3.09      93.3  T

   *** convergence criteria satisfied after 12 iterations ***

         #    Occupation            Energy/Eh            Energy/eV
      -------------------------------------------------------------
         1        2.0000           -0.7563469             -20.5812
       ...           ...                  ...                  ...
        50        2.0000           -0.4463539             -12.1459
        51        2.0000           -0.4371665             -11.8959
        52        2.0000           -0.4310243             -11.7288
        53        2.0000           -0.4243501             -11.5472
        54        2.0000           -0.3964850             -10.7889
        55        2.0000           -0.3639559              -9.9037
        56        2.0000           -0.3613252              -9.8322 (HOMO)
        57                         -0.2479429              -6.7469 (LUMO)
        58                         -0.2374164              -6.4604
        59                         -0.2303738              -6.2688
        60                         -0.1995211              -5.4292
        61                         -0.1555537              -4.2328
       ...                                ...                  ...
       110                          1.3332296              36.2790
      -------------------------------------------------------------
                  HL-Gap            0.1133823 Eh            3.0853 eV
             Fermi-level           -0.3046340 Eh           -8.2895 eV

 SCC (total)                   0 d,  0 h,  0 min,  0.122 sec
 SCC setup                      ...        0 min,  0.000 sec (  0.372%)
 Dispersion                     ...        0 min,  0.000 sec (  0.377%)
 classical contributions        ...        0 min,  0.000 sec (  0.082%)
 integral evaluation            ...        0 min,  0.053 sec ( 43.398%)
 iterations                     ...        0 min,  0.032 sec ( 26.633%)
 molecular gradient             ...        0 min,  0.035 sec ( 28.827%)
 printout                       ...        0 min,  0.000 sec (  0.287%)

         :::::::::::::::::::::::::::::::::::::::::::::::::::::
         ::                     SUMMARY                     ::
         :::::::::::::::::::::::::::::::::::::::::::::::::::::
         :: total energy             -64.649838071567 Eh    ::
         :: gradient norm              0.043259199716 Eh/a0 ::
         :: HOMO-LUMO gap              3.085289290290 eV    ::
         ::.................................................::
         :: SCC energy               -65.219927447721 Eh    ::
         :: -> isotropic ES            0.148104768212 Eh    ::
         :: -> anisotropic ES         -0.014006149141 Eh    ::
         :: -> anisotropic XC          0.016507365024 Eh    ::
         :: -> dispersion             -0.044079031948 Eh    ::
         :: repulsion energy           0.570089376154 Eh    ::
         :: add. restraining           0.000000000000 Eh    ::
         :: total charge               0.000000000000 e     ::
         :::::::::::::::::::::::::::::::::::::::::::::::::::::

           -------------------------------------------------
          |                Property Printout                |
           -------------------------------------------------

    * Orbital Energies and Occupations

         #    Occupation            Energy/Eh            Energy/eV
      -------------------------------------------------------------
         1        2.0000           -0.7563469             -20.5812
       ...           ...                  ...                  ...
        44        2.0000           -0.4712252             -12.8227
        45        2.0000           -0.4698202             -12.7845
        46        2.0000           -0.4597296             -12.5099
        47        2.0000           -0.4568620             -12.4318
        48        2.0000           -0.4549391             -12.3795
        49        2.0000           -0.4479770             -12.1901
        50        2.0000           -0.4463539             -12.1459
        51        2.0000           -0.4371665             -11.8959
        52        2.0000           -0.4310243             -11.7288
        53        2.0000           -0.4243501             -11.5472
        54        2.0000           -0.3964850             -10.7889
        55        2.0000           -0.3639559              -9.9037
        56        2.0000           -0.3613252              -9.8322 (HOMO)
        57                         -0.2479429              -6.7469 (LUMO)
        58                         -0.2374164              -6.4604
        59                         -0.2303738              -6.2688
        60                         -0.1995211              -5.4292
        61                         -0.1555537              -4.2328
        62                         -0.1314243              -3.5762
        63                         -0.0997967              -2.7156
        64                         -0.0380914              -1.0365
        65                         -0.0364180              -0.9910
        66                         -0.0209518              -0.5701
        67                         -0.0095735              -0.2605
       ...                                ...                  ...
       110                          1.3332296              36.2790
      -------------------------------------------------------------
                  HL-Gap            0.1133823 Eh            3.0853 eV
             Fermi-level           -0.3046340 Eh           -8.2895 eV

     #   Z          covCN         q      C6AA      α(0)
     1   6 C        3.751    -0.114    22.745     6.801
     2   6 C        3.697     0.076    19.477     6.313
     3   8 O        1.703    -0.231    17.833     5.702
     4   6 C        2.722     0.377    20.609     7.432
     5   8 O        0.864    -0.426    22.212     6.319
     6   6 C        3.827    -0.084    22.082     6.687
     7   6 C        3.852     0.014    20.309     6.410
     8   1 H        0.925     0.084     1.942     2.179
     9   6 C        2.746     0.372    20.701     7.450
    10   8 O        0.856    -0.425    22.197     6.317
    11   8 O        1.704    -0.241    18.000     5.728
    12   6 C        3.698     0.077    19.447     6.307
    13   6 C        3.751    -0.116    22.779     6.807
    14  16 S        1.942    -0.159   147.765    20.459
    15  15 P        3.878     0.400   143.658    21.530
    16  16 S        0.927    -0.414   157.269    21.211
    17   8 O        1.654    -0.220    17.674     5.675
    18   6 C        3.832     0.030    20.042     6.370
    19   8 O        1.657    -0.264    18.384     5.788
    20   6 C        3.819     0.032    20.020     6.368
    21   1 H        0.925     0.056     2.247     2.344
    22   1 H        0.925     0.062     2.181     2.309
    23   1 H        0.925     0.055     2.261     2.351
    24   1 H        0.924     0.072     2.066     2.248
    25   1 H        0.925     0.069     2.100     2.266
    26   1 H        0.924     0.093     1.855     2.130
    27   1 H        0.924     0.091     1.870     2.139
    28   1 H        0.925     0.061     2.191     2.315
    29   1 H        0.924     0.069     2.099     2.266
    30   1 H        0.925     0.055     2.256     2.349
    31   1 H        0.925     0.056     2.252     2.347
    32   1 H        0.925     0.063     2.168     2.303
    33   1 H        0.925     0.078     1.999     2.211
    34   1 H        0.925     0.070     2.083     2.257
    35   1 H        0.925     0.074     2.039     2.233
    36   1 H        0.925     0.063     2.164     2.300
    37   1 H        0.925     0.074     2.037     2.232
    38   1 H        0.924     0.073     2.049     2.239

 Mol. C6AA /au·bohr⁶  :      18366.649220
 Mol. C8AA /au·bohr⁸  :     515250.649859
 Mol. α(0) /au        :        208.689586


Wiberg/Mayer (AO) data.
largest (>0.10) Wiberg bond orders for each atom

 ---------------------------------------------------------------------------
     #   Z sym  total        # sym  WBO       # sym  WBO       # sym  WBO
 ---------------------------------------------------------------------------
     1   6 C    3.991 --     2 C    1.014    21 H    0.986    22 H    0.984
                            23 H    0.982
     2   6 C    3.910 --     1 C    1.014    25 H    0.971    24 H    0.968
                             3 O    0.917
     3   8 O    2.360 --     4 C    1.210     2 C    0.917     5 O    0.169
     4   6 C    3.920 --     5 O    1.670     3 O    1.210     6 C    0.968
     5   8 O    2.054 --     4 C    1.670     3 O    0.169
     6   6 C    3.991 --     7 C    1.000     4 C    0.968    26 H    0.950
                            27 H    0.948
     7   6 C    3.975 --     6 C    1.000    14 S    0.960     9 C    0.944
                             8 H    0.940
     8   1 H    0.992 --     7 C    0.940
     9   6 C    3.926 --    10 O    1.718    11 O    1.179     7 C    0.944
    10   8 O    2.019 --     9 C    1.718    11 O    0.173
    11   8 O    2.344 --     9 C    1.179    12 C    0.919    10 O    0.173
    12   6 C    3.915 --    13 C    1.015    28 H    0.972    29 H    0.969
                            11 O    0.919
    13   6 C    3.991 --    12 C    1.015    30 H    0.986    32 H    0.984
                            31 H    0.982
    14  16 S    2.264 --    15 P    0.965     7 C    0.960    16 S    0.142
    15  15 P    5.243 --    16 S    1.529    17 O    1.314    19 O    1.268
                            14 S    0.965
    16  16 S    1.849 --    15 P    1.529    14 S    0.142
    17   8 O    2.413 --    15 P    1.314    18 C    0.917
    18   6 C    3.911 --    34 H    0.981    33 H    0.979    35 H    0.975
                            17 O    0.917
    19   8 O    2.373 --    15 P    1.268    20 C    0.935
    20   6 C    3.913 --    36 H    0.981    37 H    0.979    38 H    0.975
                            19 O    0.935
    21   1 H    0.997 --     1 C    0.986
    22   1 H    0.996 --     1 C    0.984
    23   1 H    0.996 --     1 C    0.982
    24   1 H    0.995 --     2 C    0.968
    25   1 H    0.995 --     2 C    0.971
    26   1 H    0.991 --     6 C    0.950
    27   1 H    0.991 --     6 C    0.948
    28   1 H    0.996 --    12 C    0.972
    29   1 H    0.995 --    12 C    0.969
    30   1 H    0.997 --    13 C    0.986
    31   1 H    0.996 --    13 C    0.982
    32   1 H    0.996 --    13 C    0.984
    33   1 H    0.994 --    18 C    0.979
    34   1 H    0.995 --    18 C    0.981
    35   1 H    0.994 --    18 C    0.975
    36   1 H    0.996 --    20 C    0.981
    37   1 H    0.994 --    20 C    0.979
    38   1 H    0.995 --    20 C    0.975
 ---------------------------------------------------------------------------

Topologies differ in total number of bonds
Writing topology from bond orders to xtbtopo.mol

molecular dipole:
                 x           y           z       tot (Debye)
 q only:       -0.514       1.320      -0.085
   full:       -0.469       1.570       0.162       4.185
molecular quadrupole (traceless):
                xx          xy          yy          xz          yz          zz
 q only:        4.129      -9.586      -4.253       4.129       7.811       0.124
  q+dip:        5.128      -8.943      -8.232       0.229       6.079       3.104
   full:        5.121      -8.309      -7.739       0.839       5.760       2.619


           -------------------------------------------------
          | TOTAL ENERGY              -64.649838071567 Eh   |
          | GRADIENT NORM               0.043259199716 Eh/α |
          | HOMO-LUMO GAP               3.085289290290 eV   |
           -------------------------------------------------

------------------------------------------------------------------------
 * finished run on 2025/04/09 at 07:31:34.747     
------------------------------------------------------------------------
 total:
 * wall-time:     0 d,  0 h,  0 min,  0.193 sec
 *  cpu-time:     0 d,  0 h,  0 min,  0.114 sec
 * ratio c/w:     0.592 speedup
 SCF:
 * wall-time:     0 d,  0 h,  0 min,  0.122 sec
 *  cpu-time:     0 d,  0 h,  0 min,  0.090 sec
 * ratio c/w:     0.735 speedup

