
                                 *****************
                                 * O   R   C   A *
                                 *****************

                                            #,                                       
                                            ###                                      
                                            ####                                     
                                            #####                                    
                                            ######                                   
                                           ########,                                 
                                     ,,################,,,,,                         
                               ,,#################################,,                 
                          ,,##########################################,,             
                       ,#########################################, ''#####,          
                    ,#############################################,,   '####,        
                  ,##################################################,,,,####,       
                ,###########''''           ''''###############################       
              ,#####''   ,,,,##########,,,,          '''####'''          '####       
            ,##' ,,,,###########################,,,                        '##       
           ' ,,###''''                  '''############,,,                           
         ,,##''                                '''############,,,,        ,,,,,,###''
      ,#''                                            '''#######################'''  
     '                                                          ''''####''''         
             ,#######,   #######,   ,#######,      ##                                
            ,#'     '#,  ##    ##  ,#'     '#,    #''#        ,####,   ,####,        
            ##       ##  ##   ,#'  ##            #'  '#       #'       #'  '#        
            ##       ##  #######   ##           ,######,      #####,   #    #        
            '#,     ,#'  ##    ##  '#,     ,#' ,#      #,     #,   #   #,  ,#        
             '#######'   ##     ##  '#######'  #'      '#     '####' # '####'        



                #########################################################
                #                        -***-                          #
                #          Department of theory and spectroscopy        #
                #                                                       #
                #                      Frank Neese                      #
                #                                                       #
                #     Directorship, Architecture, Infrastructure        #
                #                    SHARK, DRIVERS                     #
                #        Core code/Algorithms in most modules           #
                #                                                       #
                #        Max Planck Institute fuer Kohlenforschung      #
                #                Kaiser Wilhelm Platz 1                 #
                #                 D-45470 Muelheim/Ruhr                 #
                #                      Germany                          #
                #                                                       #
                #                  All rights reserved                  #
                #                        -***-                          #
                #########################################################


                         Program Version 6.0.0  -   RELEASE  -


 With contributions from (in alphabetic order):
   Daniel Aravena         : Magnetic Suceptibility
   Michael Atanasov       : Ab Initio Ligand Field Theory (pilot matlab implementation)
   Alexander A. Auer      : GIAO ZORA, VPT2 properties, NMR spectrum
   Ute Becker             : All parallelization in ORCA, NUMFREQ, NUMCALC
   Giovanni Bistoni       : ED, misc. LED, open-shell LED, HFLD
   Martin Brehm           : Molecular dynamics
   Dmytro Bykov           : pre 5.0 version of the SCF Hessian
   Marcos Casanova-Páez   : Triplet and SCS-CIS(D). UHF-(DLPNO)-IP/EA/STEOM-CCSD. UHF-CVS-IP/STEOM-CCSD
   Vijay G. Chilkuri      : MRCI spin determinant printing, contributions to CSF-ICE
   Pauline Colinet        : FMM embedding
   Dipayan Datta          : RHF DLPNO-CCSD density
   Achintya Kumar Dutta   : EOM-CC, STEOM-CC
   Nicolas Foglia         : Exact transition moments, OPA infrastructure, MCD improvements
   Dmitry Ganyushin       : Spin-Orbit,Spin-Spin,Magnetic field MRCI
   Miquel Garcia          : C-PCM and meta-GGA Hessian, CCSD/C-PCM, Gaussian charge scheme
   Tiago L. C. Gouveia    : GS-ROHF, GS-ROCIS
   Yang Guo               : DLPNO-NEVPT2, F12-NEVPT2, CIM, IAO-localization
   Andreas Hansen         : Spin unrestricted coupled pair/coupled cluster methods
   Ingolf Harden          : AUTO-CI MPn and infrastructure 
   Benjamin Helmich-Paris : MC-RPA, TRAH-(SCF,CASSCF), AVAS, COSX integrals, SCF dyn. polar.
   Lee Huntington         : MR-EOM, pCC
   Robert Izsak           : Overlap fitted RIJCOSX, COSX-SCS-MP3, EOM
   Riya Kayal             : Wick's Theorem for AUTO-CI, AUTO-CI UHF-CCSDT
   Emily Kempfer          : AUTO-CI, RHF CISDT and CCSDT
   Christian Kollmar      : KDIIS, OOCD, Brueckner-CCSD(T), CCSD density, CASPT2, CASPT2-K, improved NEVPT2
   Axel Koslowski         : Symmetry handling
   Simone Kossmann        : Meta GGA functionals, TD-DFT gradient, OOMP2, (MP2 Hessian; deprecated post 5.0)
   Lucas Lang             : DCDCAS
   Marvin Lechner         : AUTO-CI (C++ implementation), FIC-MRCC
   Spencer Leger          : CASSCF response
   Dagmar Lenk            : GEPOL surface, SMD, ORCA-2-JSON
   Dimitrios Liakos       : Extrapolation schemes; Compound Job, initial MDCI parallelization
   Dimitrios Manganas     : Further ROCIS development; embedding schemes. LFT, Crystal Embedding
   Dimitrios Pantazis     : SARC Basis sets
   Anastasios Papadopoulos: AUTO-CI, single reference methods and gradients
   Taras Petrenko         : pre 6.0 DFT Hessian and TD-DFT gradient, (ASA, deprecated), ECA, 1-Electron XAS/XES, NRVS
   Peter Pinski           : DLPNO-MP2, DLPNO-MP2 Gradient
   Christoph Reimann      : Effective Core Potentials
   Marius Retegan         : Local ZFS, SOC
   Christoph Riplinger    : Optimizer, TS searches, QM/MM, DLPNO-CCSD(T), (RO)-DLPNO pert. Triples
   Michael Roemelt        : Original ROCIS implementation
   Masaaki Saitow         : Open-shell DLPNO-CCSD energy and density
   Barbara Sandhoefer     : DKH picture change effects
   Kantharuban Sivalingam : CASSCF convergence/infrastructure, NEVPT2 and variants, FIC-MRCI
   Bernardo de Souza      : ESD, SOC TD-DFT
   Georgi Stoychev        : AutoAux, RI-MP2 NMR, DLPNO-MP2 response, X2C
   Van Anh Tran           : RI-MP2 g-tensors
   Willem Van den Heuvel  : Paramagnetic NMR
   Zikuan Wang            : NOTCH, Electric field optimization 
   Frank Wennmohs         : Technical directorship and infrastructure
   Hang Xu                : AUTO-CI-Response properties 


 We gratefully acknowledge several colleagues who have allowed us to
 interface, adapt or use parts of their codes:
   Stefan Grimme, W. Hujo, H. Kruse, P. Pracht,  : VdW corrections, initial TS optimization,
                  C. Bannwarth, S. Ehlert,         DFT functionals, gCP, sTDA/sTD-DF
                  L. Wittmann, M. Mueller
   Ed Valeev, F. Pavosevic, A. Kumar             : LibInt (2-el integral package), F12 methods
   Garnet Chan, S. Sharma, J. Yang, R. Olivares  : DMRG
   Ulf Ekstrom                                   : XCFun DFT Library
   Mihaly Kallay                                 : mrcc  (arbitrary order and MRCC methods)
   Frank Weinhold                                : gennbo (NPA and NBO analysis)
   Simon Mueller                                 : openCOSMO-RS
   Christopher J. Cramer and Donald G. Truhlar   : smd solvation model
   Lars Goerigk                                  : TD-DFT with DH, B97 family of functionals
   V. Asgeirsson, H. Jonsson                     : NEB implementation
   FAccTs GmbH                                   : IRC, NEB, NEB-TS, DLPNO-Multilevel, CI-OPT
                                                   MM, QMMM, 2- and 3-layer-ONIOM, Crystal-QMMM,
                                                   LR-CPCM, SF, NACMEs, symmetry and pop. for TD-DFT,
                                                   nearIR, NL-DFT gradient (VV10), updates on ESD,
                                                   ML-optimized integration grids, MBIS, APM,
                                                   GOAT, DOCKER, SOLVATOR, interface openCOSMO-RS
   S Lehtola, MJT Oliveira, MAL Marques          : LibXC Library
   Liviu Ungur et al                             : ANISO software


 Your calculation uses the libint2 library for the computation of 2-el integrals
 For citations please refer to: http://libint.valeyev.net

 Your ORCA version has been built with support for libXC version: 6.2.2
 For citations please refer to: https://libxc.gitlab.io

 This ORCA versions uses:
   CBLAS   interface :  Fast vector & matrix operations
   LAPACKE interface :  Fast linear algebra routines
   SCALAPACK package :  Parallel linear algebra routines
   Shared memory     :  Shared parallel matrices
   BLAS/LAPACK       :  OpenBLAS 0.3.27  USE64BITINT DYNAMIC_ARCH NO_AFFINITY SapphireRapids SINGLE_THREADED
        Core in use  :  SapphireRapids
   Copyright (c) 2011-2014, The OpenBLAS Project


Your calculation utilizes the geometrical counterpoise correction gCP
Please cite in your paper:
H.Kruse, S. Grimme J.Chem.Phys., 136, (2012), 154101 
   

Your calculation utilizes the atom-pairwise dispersion correction
based on EEQ partial charges (D4)


================================================================================

----- Orbital basis set information -----
Your calculation utilizes the basis: def2-SV(P)
   F. Weigend and R. Ahlrichs, Phys. Chem. Chem. Phys. 7, 3297 (2005).

----- AuxJ basis set information -----
Your calculation utilizes the auxiliary basis: def2/J
   F. Weigend, Phys. Chem. Chem. Phys. 8, 1057 (2006).

================================================================================
                                        WARNINGS
                       Please study these warnings very carefully!
================================================================================


================================================================================
                                       INPUT FILE
================================================================================
NAME = sp.inp
|  1> ! pbe def2-sv(p) def2/J RI DEFGRID1 loosescf d4 GCP(DFT/SV(P)) printgap
|  2> %output
|  3>     printlevel normal
|  4> end
|  5> * xyz 0 1
|  6> C 0.8446804788 2.756229353 1.1232372556
|  7> C 2.2025036711 2.0998198496 1.2742239514
|  8> O 2.3465764336 1.0346572592 0.3053841954
|  9> P 2.2124670351 -0.4923725105 0.6905191792
| 10> S 0.8241256419 -0.9669663355 1.9982554737
| 11> O 3.6897177997 -0.8187570463 1.1802671146
| 12> C 4.0180220304 -2.011038078 1.9141865354
| 13> C 3.8862273025 -3.2570759949 1.0626735153
| 14> S 2.0663018276 -1.3292336806 -1.2389950579
| 15> C 0.2738238302 -1.2107206362 -1.3829948116
| 16> S -0.2673178093 0.5113345188 -1.6753027241
| 17> P -2.2082027353 0.2488874671 -0.8965222706
| 18> S -3.132630564 -1.3977878329 -1.3938241791
| 19> O -3.0238445159 1.5346793296 -1.3302659436
| 20> C -2.6490223337 2.8877052096 -0.9673816422
| 21> C -1.8646349882 3.5496855986 -2.0819601717
| 22> O -1.8859864754 0.4041876755 0.6643734613
| 23> C -2.7020607363 -0.2194744828 1.6710276932
| 24> C -3.9956866016 0.5407237904 1.8762125095
| 25> H 0.7683656857 3.5896984457 1.8141084124
| 26> H 0.7195167444 3.1129102286 0.1043302043
| 27> H 0.0593972198 2.0351635305 1.3434223572
| 28> H 2.3347292786 1.6946009518 2.2815719257
| 29> H 3.0120435615 2.7954595217 1.0486520874
| 30> H 5.0480436549 -1.8466582873 2.2330811931
| 31> H 3.3616766298 -2.0708941949 2.7885967177
| 32> H 4.4535524232 -3.1468431728 0.1420295565
| 33> H 4.2579570998 -4.1128019225 1.6171186502
| 34> H 2.8403863298 -3.4276915786 0.8098976581
| 35> H -0.1852544301 -1.5683356633 -0.4587381591
| 36> H -0.0235514181 -1.8253585825 -2.2296793833
| 37> H -3.6022122172 3.392993388 -0.8024682413
| 38> H -2.0757984104 2.8618168084 -0.0377255204
| 39> H -1.6669458434 4.5820981594 -1.8109293918
| 40> H -0.9198714077 3.0342045365 -2.2443916989
| 41> H -2.4362151644 3.5238620648 -3.0054453554
| 42> H -2.9042715112 -1.2514236224 1.3662501683
| 43> H -2.072690258 -0.2229351167 2.562998619
| 44> H -4.5694471102 0.0639206188 2.6644607928
| 45> H -3.7919501043 1.5719277432 2.152205668
| 46> H -4.5778560605 0.5249129174 0.9549101354
| 47> *
| 48> 
| 49>                          ****END OF INPUT****
================================================================================

                       ****************************
                       * Single Point Calculation *
                       ****************************

---------------------------------
CARTESIAN COORDINATES (ANGSTROEM)
---------------------------------
  C      0.844680    2.756229    1.123237
  C      2.202504    2.099820    1.274224
  O      2.346576    1.034657    0.305384
  P      2.212467   -0.492373    0.690519
  S      0.824126   -0.966966    1.998255
  O      3.689718   -0.818757    1.180267
  C      4.018022   -2.011038    1.914187
  C      3.886227   -3.257076    1.062674
  S      2.066302   -1.329234   -1.238995
  C      0.273824   -1.210721   -1.382995
  S     -0.267318    0.511335   -1.675303
  P     -2.208203    0.248887   -0.896522
  S     -3.132631   -1.397788   -1.393824
  O     -3.023845    1.534679   -1.330266
  C     -2.649022    2.887705   -0.967382
  C     -1.864635    3.549686   -2.081960
  O     -1.885986    0.404188    0.664373
  C     -2.702061   -0.219474    1.671028
  C     -3.995687    0.540724    1.876213
  H      0.768366    3.589698    1.814108
  H      0.719517    3.112910    0.104330
  H      0.059397    2.035164    1.343422
  H      2.334729    1.694601    2.281572
  H      3.012044    2.795460    1.048652
  H      5.048044   -1.846658    2.233081
  H      3.361677   -2.070894    2.788597
  H      4.453552   -3.146843    0.142030
  H      4.257957   -4.112802    1.617119
  H      2.840386   -3.427692    0.809898
  H     -0.185254   -1.568336   -0.458738
  H     -0.023551   -1.825359   -2.229679
  H     -3.602212    3.392993   -0.802468
  H     -2.075798    2.861817   -0.037726
  H     -1.666946    4.582098   -1.810929
  H     -0.919871    3.034205   -2.244392
  H     -2.436215    3.523862   -3.005445
  H     -2.904272   -1.251424    1.366250
  H     -2.072690   -0.222935    2.562999
  H     -4.569447    0.063921    2.664461
  H     -3.791950    1.571928    2.152206
  H     -4.577856    0.524913    0.954910

----------------------------
CARTESIAN COORDINATES (A.U.)
----------------------------
  NO LB      ZA    FRAG     MASS         X           Y           Z
   0 C     6.0000    0    12.011    1.596215    5.208519    2.122611
   1 C     6.0000    0    12.011    4.162129    3.968084    2.407934
   2 O     8.0000    0    15.999    4.434387    1.955219    0.577092
   3 P    15.0000    0    30.974    4.180957   -0.930449    1.304892
   4 S    16.0000    0    32.060    1.557372   -1.827302    3.776156
   5 O     8.0000    0    15.999    6.972556   -1.547227    2.230382
   6 C     6.0000    0    12.011    7.592961   -3.800311    3.617288
   7 C     6.0000    0    12.011    7.343905   -6.154982    2.008162
   8 S    16.0000    0    32.060    3.904745   -2.511888   -2.341361
   9 C     6.0000    0    12.011    0.517452   -2.287930   -2.613481
  10 S    16.0000    0    32.060   -0.505157    0.966282   -3.165863
  11 P    15.0000    0    30.974   -4.172898    0.470329   -1.694182
  12 S    16.0000    0    32.060   -5.919814   -2.641436   -2.633946
  13 O     8.0000    0    15.999   -5.714238    2.900124   -2.513838
  14 C     6.0000    0    12.011   -5.005927    5.456972   -1.828086
  15 C     6.0000    0    12.011   -3.523649    6.707934   -3.934335
  16 O     8.0000    0    15.999   -3.563998    0.763804    1.255484
  17 C     6.0000    0    12.011   -5.106155   -0.414747    3.157785
  18 C     6.0000    0    12.011   -7.550753    1.021820    3.545528
  19 H     1.0000    0     1.008    1.452001    6.783547    3.428168
  20 H     1.0000    0     1.008    1.359690    5.882548    0.197156
  21 H     1.0000    0     1.008    0.112244    3.845902    2.538700
  22 H     1.0000    0     1.008    4.411999    3.202332    4.311546
  23 H     1.0000    0     1.008    5.691937    5.282653    1.981665
  24 H     1.0000    0     1.008    9.539420   -3.489678    4.219912
  25 H     1.0000    0     1.008    6.352648   -3.913423    5.269684
  26 H     1.0000    0     1.008    8.415994   -5.946672    0.268397
  27 H     1.0000    0     1.008    8.046373   -7.772069    3.055911
  28 H     1.0000    0     1.008    5.367552   -6.477398    1.530485
  29 H     1.0000    0     1.008   -0.350080   -2.963725   -0.866889
  30 H     1.0000    0     1.008   -0.044506   -3.449428   -4.213483
  31 H     1.0000    0     1.008   -6.807195    6.411828   -1.516445
  32 H     1.0000    0     1.008   -3.922691    5.408050   -0.071291
  33 H     1.0000    0     1.008   -3.150071    8.658911   -3.422161
  34 H     1.0000    0     1.008   -1.738305    5.733816   -4.241286
  35 H     1.0000    0     1.008   -4.603779    6.659134   -5.679469
  36 H     1.0000    0     1.008   -5.488278   -2.364848    2.581839
  37 H     1.0000    0     1.008   -3.916817   -0.421286    4.843365
  38 H     1.0000    0     1.008   -8.635004    0.120792    5.035101
  39 H     1.0000    0     1.008   -7.165747    2.970513    4.067079
  40 H     1.0000    0     1.008   -8.650894    0.991942    1.804519

--------------------------------
INTERNAL COORDINATES (ANGSTROEM)
--------------------------------
 C      0   0   0     0.000000000000     0.00000000     0.00000000
 C      1   0   0     1.515702556576     0.00000000     0.00000000
 O      2   1   0     1.447058664218   109.95469043     0.00000000
 P      3   2   1     1.580548703477   122.65448020   256.66523535
 S      4   3   2     1.965427520605   117.08827923    38.85029247
 O      4   3   2     1.590172860713   101.21688823   274.69424597
 C      6   4   3     1.438038748669   122.64586916   165.90854389
 C      7   6   4     1.514943815478   112.03739778    68.38463307
 S      4   3   2     2.108251900764    99.57706282   166.80130700
 C      9   4   3     1.802153889634    96.66037741   271.04767825
 S     10   9   4     1.828592941738   111.65691319    74.29986668
 P     11  10   9     2.107702954800    95.51940965   204.36613938
 S     12  11  10     1.952796851263   116.54000663   317.47722000
 O     12  11  10     1.583245338474   105.78610561   192.56255320
 C     14  12  11     1.450122655647   123.78171870   301.08928037
 C     15  14  12     1.515178815066   110.93898133    96.72726682
 O     12  11  10     1.601354726079    99.36899130    81.82268591
 C     17  12  11     1.438153131485   121.73852862   206.71695587
 C     18  17  12     1.514420715254   111.21498305   283.23340787
 H      1   2   3     1.085263853369   109.40082996   183.25676406
 H      1   2   3     1.086765285890   109.79803575   303.66497291
 H      1   2   3     1.088617102663   109.82923576    63.38783960
 H      2   1   3     1.093817127192   111.12909835   238.74675327
 H      2   1   3     1.090940902788   111.59328525   115.96432927
 H      7   6   4     1.090714933077   103.87821893   189.16009470
 H      7   6   4     1.094972696705   108.42323360   306.05377442
 H      8   7   6     1.087011668070   110.31837426    52.64196732
 H      8   7   6     1.085292270765   109.36426570   173.14037791
 H      8   7   6     1.089398297944   110.04469094   292.72172596
 H     10   9   4     1.092195823275   109.20317659   314.16593244
 H     10   9   4     1.087697847423   107.27564596   193.75508979
 H     15  14  12     1.091367732267   104.12562612   216.39003237
 H     15  14  12     1.092481752873   109.05399175   333.68383583
 H     16  15  14     1.085547961779   109.03398551   175.66524527
 H     16  15  14     1.088431416972   110.62297131   295.82239992
 H     16  15  14     1.086368094725   110.03268691    55.79091147
 H     18  17  12     1.094850475586   108.58386153    45.24573481
 H     18  17  12     1.091664466498   104.24983484   161.70885033
 H     19  18  17     1.085300760988   109.23607556   181.96647661
 H     19  18  17     1.086766937361   110.52271518   302.33426281
 H     19  18  17     1.089940056656   109.53910893    62.67317087

---------------------------
INTERNAL COORDINATES (A.U.)
---------------------------
 C      0   0   0     0.000000000000     0.00000000     0.00000000
 C      1   0   0     2.864262732412     0.00000000     0.00000000
 O      2   1   0     2.734544575090   109.95469043     0.00000000
 P      3   2   1     2.986804190896   122.65448020   256.66523535
 S      4   3   2     3.714119750016   117.08827923    38.85029247
 O      4   3   2     3.004991212342   101.21688823   274.69424597
 C      6   4   3     2.717499404952   122.64586916   165.90854389
 C      7   6   4     2.862828919531   112.03739778    68.38463307
 S      4   3   2     3.984018713763    99.57706282   166.80130700
 C      9   4   3     3.405577302589    96.66037741   271.04767825
 S     10   9   4     3.455539870306   111.65691319    74.29986668
 P     11  10   9     3.982981356229    95.51940965   204.36613938
 S     12  11  10     3.690251244071   116.54000663   317.47722000
 O     12  11  10     2.991900092523   105.78610561   192.56255320
 C     14  12  11     2.740334679768   123.78171870   301.08928037
 C     15  14  12     2.863273004393   110.93898133    96.72726682
 O     12  11  10     3.026121875550    99.36899130    81.82268591
 C     17  12  11     2.717715557149   121.73852862   206.71695587
 C     18  17  12     2.861840403367   111.21498305   283.23340787
 H      1   2   3     2.050851465912   109.40082996   183.25676406
 H      1   2   3     2.053688762186   109.79803575   303.66497291
 H      1   2   3     2.057188188735   109.82923576    63.38783960
 H      2   1   3     2.067014810986   111.12909835   238.74675327
 H      2   1   3     2.061579534563   111.59328525   115.96432927
 H      7   6   4     2.061152513694   103.87821893   189.16009470
 H      7   6   4     2.069198520893   108.42323360   306.05377442
 H      8   7   6     2.054154357029   110.31837426    52.64196732
 H      8   7   6     2.050905167007   109.36426570   173.14037791
 H      8   7   6     2.058664433873   110.04469094   292.72172596
 H     10   9   4     2.063950990602   109.20317659   314.16593244
 H     10   9   4     2.055451048085   107.27564596   193.75508979
 H     15  14  12     2.062386125384   104.12562612   216.39003237
 H     15  14  12     2.064491319236   109.05399175   333.68383583
 H     16  15  14     2.051388352999   109.03398551   175.66524527
 H     16  15  14     2.056837293633   110.62297131   295.82239992
 H     16  15  14     2.052938179660   110.03268691    55.79091147
 H     18  17  12     2.068967556451   108.58386153    45.24573481
 H     18  17  12     2.062946871815   104.24983484   161.70885033
 H     19  18  17     2.050921211205   109.23607556   181.96647661
 H     19  18  17     2.053691883013   110.52271518   302.33426281
 H     19  18  17     2.059688209470   109.53910893    62.67317087

---------------------
BASIS SET INFORMATION
---------------------
There are 5 groups of distinct atoms

 Group   1 Type C   : 7s4p1d contracted to 3s2p1d pattern {511/31/1}
 Group   2 Type O   : 7s4p1d contracted to 3s2p1d pattern {511/31/1}
 Group   3 Type P   : 10s7p1d contracted to 4s3p1d pattern {5311/511/1}
 Group   4 Type S   : 10s7p1d contracted to 4s3p1d pattern {5311/511/1}
 Group   5 Type H   : 4s contracted to 2s pattern {31}

Atom   0C    basis set group =>   1
Atom   1C    basis set group =>   1
Atom   2O    basis set group =>   2
Atom   3P    basis set group =>   3
Atom   4S    basis set group =>   4
Atom   5O    basis set group =>   2
Atom   6C    basis set group =>   1
Atom   7C    basis set group =>   1
Atom   8S    basis set group =>   4
Atom   9C    basis set group =>   1
Atom  10S    basis set group =>   4
Atom  11P    basis set group =>   3
Atom  12S    basis set group =>   4
Atom  13O    basis set group =>   2
Atom  14C    basis set group =>   1
Atom  15C    basis set group =>   1
Atom  16O    basis set group =>   2
Atom  17C    basis set group =>   1
Atom  18C    basis set group =>   1
Atom  19H    basis set group =>   5
Atom  20H    basis set group =>   5
Atom  21H    basis set group =>   5
Atom  22H    basis set group =>   5
Atom  23H    basis set group =>   5
Atom  24H    basis set group =>   5
Atom  25H    basis set group =>   5
Atom  26H    basis set group =>   5
Atom  27H    basis set group =>   5
Atom  28H    basis set group =>   5
Atom  29H    basis set group =>   5
Atom  30H    basis set group =>   5
Atom  31H    basis set group =>   5
Atom  32H    basis set group =>   5
Atom  33H    basis set group =>   5
Atom  34H    basis set group =>   5
Atom  35H    basis set group =>   5
Atom  36H    basis set group =>   5
Atom  37H    basis set group =>   5
Atom  38H    basis set group =>   5
Atom  39H    basis set group =>   5
Atom  40H    basis set group =>   5
---------------------------------
AUXILIARY/J BASIS SET INFORMATION
---------------------------------
There are 5 groups of distinct atoms

 Group   1 Type C   : 12s5p4d2f1g contracted to 6s4p3d1f1g pattern {711111/2111/211/2/1}
 Group   2 Type O   : 12s5p4d2f1g contracted to 6s4p3d1f1g pattern {711111/2111/211/2/1}
 Group   3 Type P   : 14s5p5d2f1g contracted to 8s4p3d1f1g pattern {71111111/2111/311/2/1}
 Group   4 Type S   : 14s5p5d2f1g contracted to 8s4p3d1f1g pattern {71111111/2111/311/2/1}
 Group   5 Type H   : 5s2p1d contracted to 3s1p1d pattern {311/2/1}

Atom   0C    basis set group =>   1
Atom   1C    basis set group =>   1
Atom   2O    basis set group =>   2
Atom   3P    basis set group =>   3
Atom   4S    basis set group =>   4
Atom   5O    basis set group =>   2
Atom   6C    basis set group =>   1
Atom   7C    basis set group =>   1
Atom   8S    basis set group =>   4
Atom   9C    basis set group =>   1
Atom  10S    basis set group =>   4
Atom  11P    basis set group =>   3
Atom  12S    basis set group =>   4
Atom  13O    basis set group =>   2
Atom  14C    basis set group =>   1
Atom  15C    basis set group =>   1
Atom  16O    basis set group =>   2
Atom  17C    basis set group =>   1
Atom  18C    basis set group =>   1
Atom  19H    basis set group =>   5
Atom  20H    basis set group =>   5
Atom  21H    basis set group =>   5
Atom  22H    basis set group =>   5
Atom  23H    basis set group =>   5
Atom  24H    basis set group =>   5
Atom  25H    basis set group =>   5
Atom  26H    basis set group =>   5
Atom  27H    basis set group =>   5
Atom  28H    basis set group =>   5
Atom  29H    basis set group =>   5
Atom  30H    basis set group =>   5
Atom  31H    basis set group =>   5
Atom  32H    basis set group =>   5
Atom  33H    basis set group =>   5
Atom  34H    basis set group =>   5
Atom  35H    basis set group =>   5
Atom  36H    basis set group =>   5
Atom  37H    basis set group =>   5
Atom  38H    basis set group =>   5
Atom  39H    basis set group =>   5
Atom  40H    basis set group =>   5
------------------------------------------------------------------------------
                             ORCA STARTUP CALCULATIONS
                           -- RI-GTO INTEGRALS CHOSEN --
------------------------------------------------------------------------------
------------------------------------------------------------------------------
                   ___                                                        
                  /   \      - P O W E R E D   B Y -                         
                 /     \                                                     
                 |  |  |   _    _      __       _____    __    __             
                 |  |  |  | |  | |    /  \     |  _  \  |  |  /  |          
                  \  \/   | |  | |   /    \    | | | |  |  | /  /          
                 / \  \   | |__| |  /  /\  \   | |_| |  |  |/  /          
                |  |  |   |  __  | /  /__\  \  |    /   |      \           
                |  |  |   | |  | | |   __   |  |    \   |  |\   \          
                \     /   | |  | | |  |  |  |  | |\  \  |  | \   \       
                 \___/    |_|  |_| |__|  |__|  |_| \__\ |__|  \__/        
                                                                              
                      - O R C A' S   B I G   F R I E N D -                    
                                      &                                       
                       - I N T E G R A L  F E E D E R -                       
                                                                              
 v1 FN, 2020, v2 2021, v3 2022-2024                                           
------------------------------------------------------------------------------


----------------------
SHARK INTEGRAL PACKAGE
----------------------

Number of atoms                             ...     41
Number of basis functions                   ...    334
Number of shells                            ...    170
Maximum angular momentum                    ...      2
Integral batch strategy                     ... SHARK/LIBINT Hybrid
RI-J (if used) integral strategy            ... SPLIT-RIJ (Revised 2003 algorithm where possible)
Printlevel                                  ...      1
Contraction scheme used                     ... SEGMENTED contraction
Prescreening option                         ... SCHWARTZ
   Thresh                                   ... 1.000e-09
   Tcut                                     ... 1.000e-10
   Tpresel                                  ... 1.000e-10 
Coulomb Range Separation                    ... NOT USED
Exchange Range Separation                   ... NOT USED
Multipole approximations                    ... NOT USED
Finite Nucleus Model                        ... NOT USED
CABS basis                                  ... NOT available
Auxiliary Coulomb fitting basis             ... AVAILABLE
   # of basis functions in Aux-J            ...   1185
   # of shells in Aux-J                     ...    407
   Maximum angular momentum in Aux-J        ...      4
Auxiliary J/K fitting basis                 ... NOT available
Auxiliary Correlation fitting basis         ... NOT available
Auxiliary 'external' fitting basis          ... NOT available

Checking pre-screening integrals            ... done (  0.0 sec) Dimension = 170
Check shell pair data                       ... done (  0.0 sec)
Shell pair information
Shell pair cut-off parameter TPreSel        ...   1.0e-10
Total number of shell pairs                 ...     14535
Shell pairs after pre-screening             ...     10495
Total number of primitive shell pairs       ...     62501
Primitive shell pairs kept                  ...     26152
          la=0 lb=0:   4107 shell pairs
          la=1 lb=0:   3552 shell pairs
          la=1 lb=1:    806 shell pairs
          la=2 lb=0:   1323 shell pairs
          la=2 lb=1:    597 shell pairs
          la=2 lb=2:    110 shell pairs

Calculating one electron integrals          ... done (  0.1 sec)
Calculating RI/J V-Matrix + Cholesky decomp.... done (  0.1 sec)
Calculating Nuclear repulsion               ... done (  0.0 sec) ENN=   2780.698413237415 Eh

Diagonalization of the overlap matrix:
Smallest eigenvalue                        ... 2.994e-03
Time for diagonalization                   ...    0.010 sec
Threshold for overlap eigenvalues          ... 1.000e-07
Number of eigenvalues below threshold      ... 0
Time for construction of square roots      ...    0.023 sec
Total time needed                          ...    0.041 sec

-------------------
DFT GRID GENERATION
-------------------

General Integration Accuracy     IntAcc      ... 4.159
Radial Grid Type                 RadialGrid  ... OptM3 with GC (2021)
Angular Grid (max. ang.)         AngularGrid ... 3 (Lebedev-194)
Angular grid pruning method      GridPruning ... 4 (adaptive)
Weight generation scheme         WeightScheme... mBecke (2022)
Basis function cutoff            BFCut       ... 1.0000e-10
Integration weight cutoff        WCut        ... 1.0000e-14
Partially contracted basis set               ... off
Rotationally invariant grid construction     ... off
Angular grids for H and He will be reduced by one unit

Total number of grid points                  ...    97276
Total number of batches                      ...     1541
Average number of points per batch           ...       63
Average number of grid points per atom       ...     2373
Initializing property integral containers    ... done (  0.0 sec)

SHARK setup successfully completed in   1.6 seconds

Maximum memory used throughout the entire STARTUP-calculation: 52.0 MB
-------------------------------------------------------------------------------
                                 ORCA GUESS
                   Start orbitals & Density for SCF / CASSCF
-------------------------------------------------------------------------------

------------
SCF SETTINGS
------------
Hamiltonian:
 Density Functional     Method          .... DFT(GTOs)
 Exchange Functional    Exchange        .... PBE
   PBE kappa parameter   XKappa         ....  0.804000
   PBE mue parameter    XMuePBE         ....  0.219520
 Correlation Functional Correlation     .... PBE
   PBE beta parameter  CBetaPBE         ....  0.066725
 LDA part of GGA corr.  LDAOpt          .... PW91-LDA
 Gradients option       PostSCFGGA      .... off
   NL short-range parameter             ....  6.400000
 RI-approximation to the Coulomb term is turned on
   Number of AuxJ basis functions       .... 1185


General Settings:
 Integral files         IntName         .... sp
 Hartree-Fock type      HFTyp           .... RHF
 Total Charge           Charge          ....    0
 Multiplicity           Mult            ....    1
 Number of Electrons    NEL             ....  202
 Basis Dimension        Dim             ....  334
 Nuclear Repulsion      ENuc            ....   2780.6984132374 Eh

Convergence Acceleration:
 AO-DIIS                CNVDIIS         .... on
   Start iteration      DIISMaxIt       ....    12
   Startup error        DIISStart       ....  0.200000
   # of expansion vecs  DIISMaxEq       ....     5
   Bias factor          DIISBfac        ....   1.050
   Max. coefficient     DIISMaxC        ....  10.000
 MO-DIIS                CNVKDIIS        .... off
 Trust-Rad. Augm. Hess. CNVTRAH         .... auto
   Auto Start mean grad. ratio tolernc. ....  1.125000
   Auto Start start iteration           ....    50
   Auto Start num. interpolation iter.  ....    10
   Max. Number of Micro iterations      ....    24
   Max. Number of Macro iterations      .... Maxiter - #DIIS iter
   Number of Davidson start vectors     ....     2
   Converg. threshold    (grad. norm)   ....   1.000e-04
   Grad. Scal. Fac. for Micro threshold ....   0.100
   Minimum threshold for Micro iter.    ....   1.000e-02
   NR start threshold (gradient norm)   ....   1.000e-04
   Initial trust radius                 ....   0.400
   Minimum AH scaling param. (alpha)    ....   1.000
   Maximum AH scaling param. (alpha)    .... 1000.000
   Quad. conv. algorithm                .... NR
   White noise on init. David. guess    .... on
   Maximum white noise                  ....   0.010
   Pseudo random numbers                .... off
   Inactive MOs                         .... canonical
   Orbital update algorithm             .... Taylor
   Preconditioner                       .... Diag
   Full preconditioner red. dimension   ....   250
 SOSCF                  CNVSOSCF        .... on
   Start iteration      SOSCFMaxIt      ....   150
   Startup grad/error   SOSCFStart      ....  0.003300
   Hessian update       SOSCFHessUp     .... L-BFGS
 Level Shifting         CNVShift        .... on
   Level shift para.    LevelShift      ....    0.2500
   Turn off err/grad.   ShiftErr        ....    0.0010
 Zerner damping         CNVZerner       .... off
 Static damping         CNVDamp         .... on
   Fraction old density DampFac         ....    0.7000
   Max. Damping (<1)    DampMax         ....    0.9800
   Min. Damping (>=0)   DampMin         ....    0.0000
   Turn off err/grad.   DampErr         ....    0.1000

SCF Procedure:
 Maximum # iterations   MaxIter         ....   125
 SCF integral mode      SCFMode         .... Direct
   Integral package                     .... SHARK and LIBINT hybrid scheme
 Reset frequency        DirectResetFreq ....    20
 Integral Threshold     Thresh          ....  1.000e-09 Eh
 Primitive CutOff       TCut            ....  1.000e-10 Eh

Convergence Tolerance:
 Convergence Check Mode ConvCheckMode   .... Total+1el-Energy
 Convergence forced     ConvForced      .... 0
 Energy Change          TolE            ....  1.000e-05 Eh
 1-El. energy change                    ....  1.000e-02 Eh
 Orbital Gradient       TolG            ....  1.000e-04
 Orbital Rotation angle TolX            ....  1.000e-04
 DIIS Error             TolErr          ....  5.000e-04

------------------------------
INITIAL GUESS: MODEL POTENTIAL
------------------------------
Loading Hartree-Fock densities                     ... done
Calculating cut-offs                               ... done
Initializing the effective Hamiltonian             ... done
Setting up the integral package (SHARK)            ... done
Starting the Coulomb interaction                   ... done (   0.7 sec)
Making the grid                                    ... done (   0.6 sec)
Mapping shells                                     ... done
Starting the XC term evaluation                    ... done (   0.4 sec)
  promolecular density results
     # of electrons  =    201.984528312
     EX              =   -229.994194124
     EC              =     -7.287180277
     EX+EC           =   -237.281374401
Transforming the Hamiltonian                       ... done (   0.0 sec)
Diagonalizing the Hamiltonian                      ... done (   0.0 sec)
Back transforming the eigenvectors                 ... done (   0.0 sec)
Now organizing SCF variables                       ... done
                      ------------------
                      INITIAL GUESS DONE (   1.6 sec)
                      ------------------
             **** ENERGY FILE WAS UPDATED (sp.en.tmp) ****
Finished Guess after   1.9 sec
Maximum memory used throughout the entire GUESS-calculation: 39.4 MB

-------------------------------------------------------------------------------------------
                                      ORCA LEAN-SCF
                              memory conserving SCF solver
-------------------------------------------------------------------------------------------

----------------------------------------D-I-I-S--------------------------------------------
Iteration    Energy (Eh)           Delta-E    RMSDP     MaxDP     DIISErr   Damp  Time(sec)
-------------------------------------------------------------------------------------------
               ***  Starting incremental Fock matrix formation  ***
    1    -2929.1950270927263773     0.00e+00  2.65e-03  1.37e-01  1.80e-01  0.700   2.3
    2    -2929.4178848129631660    -2.23e-01  1.73e-03  7.03e-02  7.55e-02  0.700   2.1
                               ***Turning on AO-DIIS***
    3    -2929.4893833045198335    -7.15e-02  6.74e-04  1.58e-02  2.16e-02  0.700   2.0
    4    -2929.5340823011538305    -4.47e-02  1.02e-03  3.30e-02  9.69e-03  0.000   2.0
    5    -2929.6380215198469159    -1.04e-01  3.04e-04  1.06e-02  7.96e-03  0.000   2.0
                              *** Initializing SOSCF ***
---------------------------------------S-O-S-C-F--------------------------------------
Iteration    Energy (Eh)           Delta-E    RMSDP     MaxDP     MaxGrad    Time(sec)
--------------------------------------------------------------------------------------
    6    -2929.6390625205967808    -1.04e-03  1.08e-04  3.11e-03  1.94e-03     2.0
               *** Restarting incremental Fock matrix formation ***
    7    -2929.6391952300255070    -1.33e-04  7.08e-05  1.55e-03  2.60e-04     2.3
    8    -2929.6392000185760480    -4.79e-06  2.71e-05  7.53e-04  1.73e-04     1.9
                 **** Energy Check signals convergence ****

               *****************************************************
               *                     SUCCESS                       *
               *           SCF CONVERGED AFTER   8 CYCLES          *
               *****************************************************

             **** ENERGY FILE WAS UPDATED (sp.en.tmp) ****

----------------
TOTAL SCF ENERGY
----------------

Total Energy       :      -2929.63920001857605 Eh          -79719.53550 eV

Components:
Nuclear Repulsion  :       2780.69841323741457 Eh           75666.65064 eV
Electronic Energy  :      -5710.33761325598971 Eh         -155386.18614 eV
One Electron Energy:      -9579.88312070978827 Eh         -260681.87252 eV
Two Electron Energy:       3869.54550745379811 Eh          105295.68639 eV

Virial components:
Potential Energy   :      -5848.95038045115143 Eh         -159158.03129 eV
Kinetic Energy     :       2919.31118043257584 Eh           79438.49579 eV
Virial Ratio       :          2.00353782757221

DFT components:
N(Alpha)           :      101.000066476183 electrons
N(Beta)            :      101.000066476183 electrons
N(Total)           :      202.000132952365 electrons
E(X)               :     -231.805119382206 Eh       
E(C)               :       -7.293400904143 Eh       
E(XC)              :     -239.098520286349 Eh       

---------------
SCF CONVERGENCE
---------------

  Last Energy change         ...    4.7886e-06  Tolerance :   1.0000e-05
  Last MAX-Density change    ...    7.5281e-04  Tolerance :   1.0000e-03
  Last RMS-Density change    ...    2.7137e-05  Tolerance :   1.0000e-04
  Last DIIS Error            ...    1.9372e-03  Tolerance :   5.0000e-04
  Last Orbital Gradient      ...    1.7348e-04  Tolerance :   1.0000e-04
  Last Orbital Rotation      ...    3.6564e-04  Tolerance :   1.0000e-04


----------------
ORBITAL ENERGIES
----------------

  NO   OCC          E(Eh)            E(eV) 
   0   2.0000     -88.049786     -2395.9565 
   1   2.0000     -88.038615     -2395.6525 
   2   2.0000     -87.991415     -2394.3681 
   3   2.0000     -87.981349     -2394.0942 
   4   2.0000     -76.429601     -2079.7552 
   5   2.0000     -76.423095     -2079.5781 
   6   2.0000     -18.795776      -511.4591 
   7   2.0000     -18.795456      -511.4504 
   8   2.0000     -18.789748      -511.2950 
   9   2.0000     -18.787710      -511.2396 
  10   2.0000      -9.960907      -271.0501 
  11   2.0000      -9.955068      -270.8912 
  12   2.0000      -9.954741      -270.8823 
  13   2.0000      -9.954533      -270.8766 
  14   2.0000      -9.943431      -270.5745 
  15   2.0000      -9.892206      -269.1806 
  16   2.0000      -9.886461      -269.0243 
  17   2.0000      -9.882616      -268.9197 
  18   2.0000      -9.882423      -268.9144 
  19   2.0000      -7.695224      -209.3977 
  20   2.0000      -7.683711      -209.0844 
  21   2.0000      -7.636190      -207.7913 
  22   2.0000      -7.626726      -207.5338 
  23   2.0000      -6.427300      -174.8957 
  24   2.0000      -6.420935      -174.7225 
  25   2.0000      -5.723101      -155.7335 
  26   2.0000      -5.719836      -155.6447 
  27   2.0000      -5.712020      -155.4320 
  28   2.0000      -5.711630      -155.4214 
  29   2.0000      -5.708470      -155.3354 
  30   2.0000      -5.700370      -155.1149 
  31   2.0000      -5.664909      -154.1500 
  32   2.0000      -5.657128      -153.9383 
  33   2.0000      -5.656242      -153.9142 
  34   2.0000      -5.655787      -153.9018 
  35   2.0000      -5.647246      -153.6694 
  36   2.0000      -5.646786      -153.6569 
  37   2.0000      -4.649751      -126.5262 
  38   2.0000      -4.648966      -126.5048 
  39   2.0000      -4.647943      -126.4769 
  40   2.0000      -4.643907      -126.3671 
  41   2.0000      -4.642392      -126.3259 
  42   2.0000      -4.641325      -126.2969 
  43   2.0000      -0.988862       -26.9083 
  44   2.0000      -0.984495       -26.7895 
  45   2.0000      -0.946848       -25.7650 
  46   2.0000      -0.943190       -25.6655 
  47   2.0000      -0.766064       -20.8456 
  48   2.0000      -0.724350       -19.7106 
  49   2.0000      -0.711146       -19.3513 
  50   2.0000      -0.692409       -18.8414 
  51   2.0000      -0.687365       -18.7042 
  52   2.0000      -0.675554       -18.3828 
  53   2.0000      -0.652718       -17.7613 
  54   2.0000      -0.636778       -17.3276 
  55   2.0000      -0.601733       -16.3740 
  56   2.0000      -0.587602       -15.9895 
  57   2.0000      -0.579367       -15.7654 
  58   2.0000      -0.575860       -15.6699 
  59   2.0000      -0.555350       -15.1119 
  60   2.0000      -0.503942       -13.7130 
  61   2.0000      -0.498876       -13.5751 
  62   2.0000      -0.477498       -12.9934 
  63   2.0000      -0.472296       -12.8518 
  64   2.0000      -0.453019       -12.3273 
  65   2.0000      -0.450799       -12.2669 
  66   2.0000      -0.441764       -12.0210 
  67   2.0000      -0.437979       -11.9180 
  68   2.0000      -0.428472       -11.6593 
  69   2.0000      -0.420189       -11.4339 
  70   2.0000      -0.412246       -11.2178 
  71   2.0000      -0.396888       -10.7999 
  72   2.0000      -0.395955       -10.7745 
  73   2.0000      -0.386617       -10.5204 
  74   2.0000      -0.382314       -10.4033 
  75   2.0000      -0.372045       -10.1239 
  76   2.0000      -0.369709       -10.0603 
  77   2.0000      -0.360346        -9.8055 
  78   2.0000      -0.357659        -9.7324 
  79   2.0000      -0.354168        -9.6374 
  80   2.0000      -0.351932        -9.5766 
  81   2.0000      -0.345356        -9.3976 
  82   2.0000      -0.342880        -9.3302 
  83   2.0000      -0.337489        -9.1835 
  84   2.0000      -0.336174        -9.1478 
  85   2.0000      -0.316937        -8.6243 
  86   2.0000      -0.310214        -8.4413 
  87   2.0000      -0.304647        -8.2899 
  88   2.0000      -0.298560        -8.1242 
  89   2.0000      -0.289172        -7.8688 
  90   2.0000      -0.279460        -7.6045 
  91   2.0000      -0.276320        -7.5191 
  92   2.0000      -0.271774        -7.3954 
  93   2.0000      -0.266717        -7.2577 
  94   2.0000      -0.264348        -7.1933 
  95   2.0000      -0.233600        -6.3566 
  96   2.0000      -0.220655        -6.0043 
  97   2.0000      -0.211145        -5.7455 
  98   2.0000      -0.206232        -5.6118 
  99   2.0000      -0.201724        -5.4892 
 100   2.0000      -0.195207        -5.3119 
 101   0.0000      -0.042770        -1.1638 
 102   0.0000      -0.031950        -0.8694 
 103   0.0000      -0.012109        -0.3295 
 104   0.0000       0.009991         0.2719 
 105   0.0000       0.014246         0.3876 
 106   0.0000       0.025464         0.6929 
 107   0.0000       0.027142         0.7386 
 108   0.0000       0.034679         0.9437 
 109   0.0000       0.042835         1.1656 
 110   0.0000       0.047804         1.3008 
 111   0.0000       0.051608         1.4043 
*Only the first 10 virtual orbitals were printed.

                    ********************************
                    * MULLIKEN POPULATION ANALYSIS *
                    ********************************

-----------------------
MULLIKEN ATOMIC CHARGES
-----------------------
   0 C :   -0.331970
   1 C :    0.009391
   2 O :   -0.359065
   3 P :    0.611490
   4 S :   -0.334200
   5 O :   -0.370890
   6 C :   -0.004168
   7 C :   -0.318759
   8 S :   -0.070856
   9 C :   -0.347566
  10 S :   -0.106246
  11 P :    0.611051
  12 S :   -0.320005
  13 O :   -0.366086
  14 C :   -0.042130
  15 C :   -0.305063
  16 O :   -0.375631
  17 C :   -0.008834
  18 C :   -0.309262
  19 H :    0.103381
  20 H :    0.117390
  21 H :    0.150347
  22 H :    0.100812
  23 H :    0.106687
  24 H :    0.106034
  25 H :    0.111122
  26 H :    0.119042
  27 H :    0.115222
  28 H :    0.128209
  29 H :    0.201650
  30 H :    0.191883
  31 H :    0.112181
  32 H :    0.124086
  33 H :    0.112333
  34 H :    0.142663
  35 H :    0.125560
  36 H :    0.112670
  37 H :    0.109815
  38 H :    0.113171
  39 H :    0.108910
  40 H :    0.125630
Sum of atomic charges:    0.0000000

--------------------------------
MULLIKEN REDUCED ORBITAL CHARGES
--------------------------------
  0 C s       :     3.119702  s :     3.119702
      pz      :     1.070735  p :     3.184520
      px      :     1.047168
      py      :     1.066617
      dz2     :     0.006306  d :     0.027749
      dxz     :     0.002573
      dyz     :     0.007166
      dx2y2   :     0.004758
      dxy     :     0.006945

  1 C s       :     3.065723  s :     3.065723
      pz      :     0.924608  p :     2.865180
      px      :     1.084216
      py      :     0.856356
      dz2     :     0.012919  d :     0.059706
      dxz     :     0.006614
      dyz     :     0.016105
      dx2y2   :     0.009412
      dxy     :     0.014656

  2 O s       :     3.755410  s :     3.755410
      pz      :     1.586179  p :     4.590521
      px      :     1.762000
      py      :     1.242343
      dz2     :     0.002901  d :     0.013134
      dxz     :     0.001461
      dyz     :     0.004223
      dx2y2   :     0.002298
      dxy     :     0.002251

  3 P s       :     5.208038  s :     5.208038
      pz      :     2.919743  p :     8.591306
      px      :     2.825607
      py      :     2.845956
      dz2     :     0.121190  d :     0.589166
      dxz     :     0.104980
      dyz     :     0.102576
      dx2y2   :     0.144683
      dxy     :     0.115738

  4 S s       :     5.918595  s :     5.918595
      pz      :     3.340342  p :    10.373062
      px      :     3.379612
      py      :     3.653108
      dz2     :     0.007624  d :     0.042543
      dxz     :     0.016149
      dyz     :     0.005657
      dx2y2   :     0.006738
      dxy     :     0.006374

  5 O s       :     3.756314  s :     3.756314
      pz      :     1.631969  p :     4.601497
      px      :     1.463513
      py      :     1.506015
      dz2     :     0.001874  d :     0.013078
      dxz     :     0.002416
      dyz     :     0.002174
      dx2y2   :     0.004401
      dxy     :     0.002213

  6 C s       :     3.074739  s :     3.074739
      pz      :     0.995148  p :     2.869044
      px      :     1.064262
      py      :     0.809634
      dz2     :     0.009668  d :     0.060385
      dxz     :     0.010350
      dyz     :     0.015181
      dx2y2   :     0.016407
      dxy     :     0.008779

  7 C s       :     3.109834  s :     3.109834
      pz      :     1.056870  p :     3.180928
      px      :     1.097604
      py      :     1.026454
      dz2     :     0.004427  d :     0.027996
      dxz     :     0.006325
      dyz     :     0.006639
      dx2y2   :     0.006851
      dxy     :     0.003754

  8 S s       :     5.878138  s :     5.878138
      pz      :     3.285322  p :    10.115893
      px      :     3.098779
      py      :     3.731792
      dz2     :     0.022834  d :     0.076825
      dxz     :     0.013304
      dyz     :     0.011201
      dx2y2   :     0.019811
      dxy     :     0.009675

  9 C s       :     3.213595  s :     3.213595
      pz      :     1.174017  p :     3.093739
      px      :     0.938604
      py      :     0.981118
      dz2     :     0.006925  d :     0.040231
      dxz     :     0.005808
      dyz     :     0.009328
      dx2y2   :     0.009965
      dxy     :     0.008205

 10 S s       :     5.878694  s :     5.878694
      pz      :     3.761751  p :    10.152585
      px      :     3.191757
      py      :     3.199077
      dz2     :     0.009550  d :     0.074968
      dxz     :     0.010481
      dyz     :     0.010015
      dx2y2   :     0.030324
      dxy     :     0.014599

 11 P s       :     5.185175  s :     5.185175
      pz      :     2.824902  p :     8.613627
      px      :     2.910169
      py      :     2.878556
      dz2     :     0.138400  d :     0.590147
      dxz     :     0.101994
      dyz     :     0.118282
      dx2y2   :     0.116695
      dxy     :     0.114777

 12 S s       :     5.918103  s :     5.918103
      pz      :     3.656979  p :    10.359110
      px      :     3.501520
      py      :     3.200611
      dz2     :     0.005841  d :     0.042792
      dxz     :     0.003521
      dyz     :     0.008853
      dx2y2   :     0.010832
      dxy     :     0.013746

 13 O s       :     3.762955  s :     3.762955
      pz      :     1.732230  p :     4.589996
      px      :     1.643837
      py      :     1.213929
      dz2     :     0.001830  d :     0.013135
      dxz     :     0.001849
      dyz     :     0.002810
      dx2y2   :     0.002389
      dxy     :     0.004257

 14 C s       :     3.095497  s :     3.095497
      pz      :     1.065173  p :     2.887240
      px      :     1.073685
      py      :     0.748382
      dz2     :     0.011413  d :     0.059393
      dxz     :     0.008813
      dyz     :     0.010997
      dx2y2   :     0.013819
      dxy     :     0.014351

 15 C s       :     3.103652  s :     3.103652
      pz      :     1.047820  p :     3.173580
      px      :     1.080878
      py      :     1.044882
      dz2     :     0.006823  d :     0.027831
      dxz     :     0.006934
      dyz     :     0.003341
      dx2y2   :     0.006274
      dxy     :     0.004459

 16 O s       :     3.767621  s :     3.767621
      pz      :     1.260017  p :     4.594818
      px      :     1.645841
      py      :     1.688960
      dz2     :     0.003504  d :     0.013193
      dxz     :     0.003602
      dyz     :     0.002455
      dx2y2   :     0.001632
      dxy     :     0.002000

 17 C s       :     3.082036  s :     3.082036
      pz      :     0.897456  p :     2.866455
      px      :     0.944574
      py      :     1.024425
      dz2     :     0.010777  d :     0.060343
      dxz     :     0.018359
      dyz     :     0.009068
      dx2y2   :     0.012767
      dxy     :     0.009373

 18 C s       :     3.099584  s :     3.099584
      pz      :     1.084102  p :     3.181648
      px      :     1.039524
      py      :     1.058023
      dz2     :     0.004489  d :     0.028031
      dxz     :     0.008189
      dyz     :     0.003668
      dx2y2   :     0.007028
      dxy     :     0.004656

 19 H s       :     0.896619  s :     0.896619

 20 H s       :     0.882610  s :     0.882610

 21 H s       :     0.849653  s :     0.849653

 22 H s       :     0.899188  s :     0.899188

 23 H s       :     0.893313  s :     0.893313

 24 H s       :     0.893966  s :     0.893966

 25 H s       :     0.888878  s :     0.888878

 26 H s       :     0.880958  s :     0.880958

 27 H s       :     0.884778  s :     0.884778

 28 H s       :     0.871791  s :     0.871791

 29 H s       :     0.798350  s :     0.798350

 30 H s       :     0.808117  s :     0.808117

 31 H s       :     0.887819  s :     0.887819

 32 H s       :     0.875914  s :     0.875914

 33 H s       :     0.887667  s :     0.887667

 34 H s       :     0.857337  s :     0.857337

 35 H s       :     0.874440  s :     0.874440

 36 H s       :     0.887330  s :     0.887330

 37 H s       :     0.890185  s :     0.890185

 38 H s       :     0.886829  s :     0.886829

 39 H s       :     0.891090  s :     0.891090

 40 H s       :     0.874370  s :     0.874370


------------------------
MULLIKEN OVERLAP CHARGES
------------------------
B(  0-C ,  1-C ) :   0.8843 B(  0-C ,  2-O ) :  -0.1075 B(  0-C , 19-H ) :   0.6789 
B(  0-C , 20-H ) :   0.7320 B(  0-C , 21-H ) :   0.7086 B(  0-C , 22-H ) :  -0.0608 
B(  0-C , 23-H ) :  -0.0528 B(  1-C ,  2-O ) :   0.5376 B(  1-C ,  3-P ) :  -0.0794 
B(  1-C , 22-H ) :   0.6978 B(  1-C , 23-H ) :   0.7324 B(  2-O ,  3-P ) :   0.6570 
B(  2-O ,  4-S ) :  -0.0675 B(  2-O ,  5-O ) :  -0.0663 B(  2-O ,  8-S ) :  -0.0734 
B(  2-O , 22-H ) :  -0.0636 B(  2-O , 23-H ) :  -0.0565 B(  3-P ,  4-S ) :   0.9219 
B(  3-P ,  5-O ) :   0.6524 B(  3-P ,  6-C ) :  -0.0763 B(  3-P ,  8-S ) :   0.5053 
B(  3-P ,  9-C ) :  -0.0732 B(  4-S ,  5-O ) :  -0.0787 B(  4-S ,  8-S ) :  -0.0879 
B(  4-S , 25-H ) :   0.0653 B(  4-S , 29-H ) :   0.0765 B(  5-O ,  6-C ) :   0.5585 
B(  5-O ,  7-C ) :  -0.0934 B(  5-O ,  8-S ) :  -0.0595 B(  5-O , 24-H ) :  -0.0572 
B(  5-O , 25-H ) :  -0.0677 B(  6-C ,  7-C ) :   0.9289 B(  6-C , 24-H ) :   0.7260 
B(  6-C , 25-H ) :   0.7179 B(  7-C , 25-H ) :  -0.0675 B(  7-C , 26-H ) :   0.7308 
B(  7-C , 27-H ) :   0.6928 B(  7-C , 28-H ) :   0.7287 B(  8-S ,  9-C ) :   0.4631 
B(  8-S , 10-S ) :  -0.1268 B(  8-S , 30-H ) :  -0.0534 B(  9-C , 10-S ) :   0.4227 
B(  9-C , 29-H ) :   0.6258 B(  9-C , 30-H ) :   0.7131 B( 10-S , 11-P ) :   0.5523 
B( 10-S , 12-S ) :  -0.0744 B( 10-S , 13-O ) :  -0.0638 B( 10-S , 16-O ) :  -0.0922 
B( 10-S , 29-H ) :  -0.0774 B( 10-S , 30-H ) :  -0.0648 B( 11-P , 12-S ) :   0.9166 
B( 11-P , 13-O ) :   0.6482 B( 11-P , 16-O ) :   0.5854 B( 11-P , 17-C ) :  -0.0760 
B( 12-S , 13-O ) :  -0.0622 B( 12-S , 16-O ) :  -0.0716 B( 12-S , 36-H ) :   0.0744 
B( 13-O , 14-C ) :   0.5166 B( 13-O , 15-C ) :  -0.1058 B( 13-O , 16-O ) :  -0.0563 
B( 13-O , 31-H ) :  -0.0565 B( 13-O , 32-H ) :  -0.0604 B( 14-C , 15-C ) :   0.9110 
B( 14-C , 31-H ) :   0.7338 B( 14-C , 32-H ) :   0.7144 B( 15-C , 31-H ) :  -0.0504 
B( 15-C , 32-H ) :  -0.0648 B( 15-C , 33-H ) :   0.6937 B( 15-C , 34-H ) :   0.7486 
B( 15-C , 35-H ) :   0.7351 B( 16-O , 17-C ) :   0.5462 B( 16-O , 18-C ) :  -0.0917 
B( 16-O , 36-H ) :  -0.0623 B( 16-O , 37-H ) :  -0.0666 B( 17-C , 18-C ) :   0.8999 
B( 17-C , 36-H ) :   0.7146 B( 17-C , 37-H ) :   0.7246 B( 18-C , 36-H ) :  -0.0634 
B( 18-C , 37-H ) :  -0.0659 B( 18-C , 38-H ) :   0.7031 B( 18-C , 39-H ) :   0.7321 
B( 18-C , 40-H ) :   0.7204 B( 20-H , 21-H ) :  -0.0529 B( 22-H , 23-H ) :  -0.0656 
B( 24-H , 25-H ) :  -0.0645 B( 26-H , 28-H ) :  -0.0545 B( 31-H , 32-H ) :  -0.0666 
B( 36-H , 37-H ) :  -0.0626 B( 39-H , 40-H ) :  -0.0526 


                     *******************************
                     * LOEWDIN POPULATION ANALYSIS *
                     *******************************

----------------------
LOEWDIN ATOMIC CHARGES
----------------------
   0 C :   -0.369415
   1 C :   -0.108747
   2 O :   -0.240546
   3 P :    0.574195
   4 S :   -0.313173
   5 O :   -0.245000
   6 C :   -0.120012
   7 C :   -0.369345
   8 S :    0.105047
   9 C :   -0.476577
  10 S :    0.073624
  11 P :    0.569625
  12 S :   -0.314331
  13 O :   -0.240978
  14 C :   -0.117309
  15 C :   -0.361131
  16 O :   -0.245118
  17 C :   -0.125322
  18 C :   -0.364392
  19 H :    0.125550
  20 H :    0.121912
  21 H :    0.126782
  22 H :    0.108573
  23 H :    0.118958
  24 H :    0.119214
  25 H :    0.110093
  26 H :    0.124962
  27 H :    0.132229
  28 H :    0.121701
  29 H :    0.123315
  30 H :    0.137691
  31 H :    0.122255
  32 H :    0.112867
  33 H :    0.131465
  34 H :    0.119663
  35 H :    0.131973
  36 H :    0.109178
  37 H :    0.113875
  38 H :    0.131306
  39 H :    0.120764
  40 H :    0.124579

-------------------------------
LOEWDIN REDUCED ORBITAL CHARGES
-------------------------------
  0 C s       :     2.954591  s :     2.954591
      pz      :     1.127121  p :     3.346109
      px      :     1.097230
      py      :     1.121759
      dz2     :     0.016281  d :     0.068714
      dxz     :     0.005434
      dyz     :     0.017112
      dx2y2   :     0.011495
      dxy     :     0.018393

  1 C s       :     2.928900  s :     2.928900
      pz      :     0.994911  p :     3.046962
      px      :     1.113688
      py      :     0.938363
      dz2     :     0.030795  d :     0.132885
      dxz     :     0.012096
      dyz     :     0.035379
      dx2y2   :     0.019750
      dxy     :     0.034865

  2 O s       :     3.502903  s :     3.502903
      pz      :     1.625339  p :     4.713822
      px      :     1.756034
      py      :     1.332448
      dz2     :     0.004551  d :     0.023822
      dxz     :     0.001799
      dyz     :     0.008370
      dx2y2   :     0.005298
      dxy     :     0.003803

  3 P s       :     5.055691  s :     5.055691
      pz      :     2.909791  p :     8.552700
      px      :     2.833334
      py      :     2.809575
      dz2     :     0.169071  d :     0.817414
      dxz     :     0.148058
      dyz     :     0.138515
      dx2y2   :     0.212614
      dxy     :     0.149156

  4 S s       :     5.764895  s :     5.764895
      pz      :     3.407049  p :    10.491181
      px      :     3.423835
      py      :     3.660297
      dz2     :     0.008734  d :     0.057097
      dxz     :     0.024795
      dyz     :     0.007009
      dx2y2   :     0.008797
      dxy     :     0.007762

  5 O s       :     3.500654  s :     3.500654
      pz      :     1.655757  p :     4.720383
      px      :     1.533855
      py      :     1.530770
      dz2     :     0.003359  d :     0.023963
      dxz     :     0.004027
      dyz     :     0.004094
      dx2y2   :     0.008868
      dxy     :     0.003616

  6 C s       :     2.927397  s :     2.927397
      pz      :     1.041374  p :     3.057514
      px      :     1.115731
      py      :     0.900409
      dz2     :     0.019996  d :     0.135102
      dxz     :     0.023482
      dyz     :     0.037053
      dx2y2   :     0.038049
      dxy     :     0.016523

  7 C s       :     2.954108  s :     2.954108
      pz      :     1.116309  p :     3.346056
      px      :     1.141504
      py      :     1.088242
      dz2     :     0.010436  d :     0.069182
      dxz     :     0.014809
      dyz     :     0.017979
      dx2y2   :     0.017946
      dxy     :     0.008011

  8 S s       :     5.635793  s :     5.635793
      pz      :     3.299536  p :    10.162362
      px      :     3.149660
      py      :     3.713166
      dz2     :     0.030514  d :     0.096797
      dxz     :     0.015001
      dyz     :     0.013561
      dx2y2   :     0.026577
      dxy     :     0.011144

  9 C s       :     3.064495  s :     3.064495
      pz      :     1.203615  p :     3.323786
      px      :     1.050044
      py      :     1.070127
      dz2     :     0.014842  d :     0.088295
      dxz     :     0.012490
      dyz     :     0.020276
      dx2y2   :     0.023425
      dxy     :     0.017262

 10 S s       :     5.646413  s :     5.646413
      pz      :     3.749836  p :    10.185728
      px      :     3.205478
      py      :     3.230414
      dz2     :     0.012177  d :     0.094235
      dxz     :     0.012813
      dyz     :     0.011371
      dx2y2   :     0.038614
      dxy     :     0.019261

 11 P s       :     5.051912  s :     5.051912
      pz      :     2.809312  p :     8.559441
      px      :     2.886378
      py      :     2.863751
      dz2     :     0.205311  d :     0.819022
      dxz     :     0.137942
      dyz     :     0.153811
      dx2y2   :     0.157778
      dxy     :     0.164180

 12 S s       :     5.763389  s :     5.763389
      pz      :     3.661227  p :    10.493102
      px      :     3.540848
      py      :     3.291027
      dz2     :     0.008034  d :     0.057840
      dxz     :     0.004324
      dyz     :     0.011273
      dx2y2   :     0.013228
      dxy     :     0.020981

 13 O s       :     3.505819  s :     3.505819
      pz      :     1.737583  p :     4.711405
      px      :     1.675019
      py      :     1.298803
      dz2     :     0.002920  d :     0.023754
      dxz     :     0.002108
      dyz     :     0.005409
      dx2y2   :     0.004714
      dxy     :     0.008604

 14 C s       :     2.928822  s :     2.928822
      pz      :     1.103017  p :     3.056149
      px      :     1.117264
      py      :     0.835869
      dz2     :     0.024747  d :     0.132338
      dxz     :     0.022211
      dyz     :     0.024871
      dx2y2   :     0.028767
      dxy     :     0.031742

 15 C s       :     2.952122  s :     2.952122
      pz      :     1.104717  p :     3.339975
      px      :     1.122612
      py      :     1.112646
      dz2     :     0.016278  d :     0.069034
      dxz     :     0.017866
      dyz     :     0.008909
      dx2y2   :     0.014664
      dxy     :     0.011317

 16 O s       :     3.508069  s :     3.508069
      pz      :     1.347344  p :     4.712888
      px      :     1.661498
      py      :     1.704045
      dz2     :     0.007941  d :     0.024161
      dxz     :     0.006815
      dyz     :     0.004600
      dx2y2   :     0.002046
      dxy     :     0.002759

 17 C s       :     2.929031  s :     2.929031
      pz      :     0.966745  p :     3.061760
      px      :     1.017702
      py      :     1.077314
      dz2     :     0.023828  d :     0.134531
      dxz     :     0.040345
      dyz     :     0.019105
      dx2y2   :     0.028499
      dxy     :     0.022754

 18 C s       :     2.953170  s :     2.953170
      pz      :     1.133765  p :     3.341736
      px      :     1.092858
      py      :     1.115112
      dz2     :     0.011533  d :     0.069486
      dxz     :     0.019769
      dyz     :     0.008577
      dx2y2   :     0.016752
      dxy     :     0.012854

 19 H s       :     0.874450  s :     0.874450

 20 H s       :     0.878088  s :     0.878088

 21 H s       :     0.873218  s :     0.873218

 22 H s       :     0.891427  s :     0.891427

 23 H s       :     0.881042  s :     0.881042

 24 H s       :     0.880786  s :     0.880786

 25 H s       :     0.889907  s :     0.889907

 26 H s       :     0.875038  s :     0.875038

 27 H s       :     0.867771  s :     0.867771

 28 H s       :     0.878299  s :     0.878299

 29 H s       :     0.876685  s :     0.876685

 30 H s       :     0.862309  s :     0.862309

 31 H s       :     0.877745  s :     0.877745

 32 H s       :     0.887133  s :     0.887133

 33 H s       :     0.868535  s :     0.868535

 34 H s       :     0.880337  s :     0.880337

 35 H s       :     0.868027  s :     0.868027

 36 H s       :     0.890822  s :     0.890822

 37 H s       :     0.886125  s :     0.886125

 38 H s       :     0.868694  s :     0.868694

 39 H s       :     0.879236  s :     0.879236

 40 H s       :     0.875421  s :     0.875421


---------------------------------
LOEWDIN BOND ORDERS (THRESH 0.050000)
---------------------------------
B(  0-C ,  1-C ) :   1.1551 B(  0-C ,  2-O ) :   0.0591 B(  0-C , 19-H ) :   0.9269 
B(  0-C , 20-H ) :   0.9344 B(  0-C , 21-H ) :   0.9233 B(  1-C ,  2-O ) :   1.0735 
B(  1-C ,  3-P ) :   0.0664 B(  1-C , 22-H ) :   0.9119 B(  1-C , 23-H ) :   0.9183 
B(  2-O ,  3-P ) :   1.3015 B(  2-O ,  4-S ) :   0.0931 B(  2-O ,  5-O ) :   0.0526 
B(  2-O ,  8-S ) :   0.0507 B(  3-P ,  4-S ) :   1.7003 B(  3-P ,  5-O ) :   1.2782 
B(  3-P ,  6-C ) :   0.0638 B(  3-P ,  8-S ) :   1.0631 B(  4-S ,  5-O ) :   0.0936 
B(  4-S ,  8-S ) :   0.1282 B(  5-O ,  6-C ) :   1.0928 B(  5-O ,  7-C ) :   0.0591 
B(  5-O ,  8-S ) :   0.0569 B(  6-C ,  7-C ) :   1.1576 B(  6-C , 24-H ) :   0.9170 
B(  6-C , 25-H ) :   0.9072 B(  7-C , 26-H ) :   0.9356 B(  7-C , 27-H ) :   0.9252 
B(  7-C , 28-H ) :   0.9280 B(  8-S ,  9-C ) :   1.1846 B(  8-S , 10-S ) :   0.0780 
B(  9-C , 10-S ) :   1.1337 B(  9-C , 29-H ) :   0.9028 B(  9-C , 30-H ) :   0.9220 
B( 10-S , 11-P ) :   1.0689 B( 10-S , 12-S ) :   0.1215 B( 10-S , 13-O ) :   0.0609 
B( 10-S , 16-O ) :   0.0538 B( 11-P , 12-S ) :   1.7527 B( 11-P , 13-O ) :   1.2986 
B( 11-P , 14-C ) :   0.0637 B( 11-P , 16-O ) :   1.2415 B( 11-P , 17-C ) :   0.0648 
B( 12-S , 13-O ) :   0.0707 B( 12-S , 16-O ) :   0.0970 B( 13-O , 14-C ) :   1.0766 
B( 13-O , 15-C ) :   0.0598 B( 13-O , 16-O ) :   0.0596 B( 14-C , 15-C ) :   1.1588 
B( 14-C , 31-H ) :   0.9167 B( 14-C , 32-H ) :   0.9110 B( 15-C , 33-H ) :   0.9254 
B( 15-C , 34-H ) :   0.9259 B( 15-C , 35-H ) :   0.9341 B( 16-O , 17-C ) :   1.0875 
B( 16-O , 18-C ) :   0.0609 B( 17-C , 18-C ) :   1.1566 B( 17-C , 36-H ) :   0.9036 
B( 17-C , 37-H ) :   0.9128 B( 18-C , 38-H ) :   0.9269 B( 18-C , 39-H ) :   0.9381 
B( 18-C , 40-H ) :   0.9294 

------------------------------------------
LOEWDIN REDUCED ORBITAL POPULATIONS PER MO
-------------------------------------------
THRESHOLD FOR PRINTING IS 0.1%%
                      0         1         2         3         4         5   
                 -88.04979 -88.03862 -87.99141 -87.98135 -76.42960 -76.42309
                   2.00000   2.00000   2.00000   2.00000   2.00000   2.00000
                  --------  --------  --------  --------  --------  --------
 3 P  s               0.0       0.0       0.0       0.0     100.0       0.0
 4 S  s               0.0       0.0     100.0       0.0       0.0       0.0
 8 S  s             100.0       0.0       0.0       0.0       0.0       0.0
10 S  s               0.0     100.0       0.0       0.0       0.0       0.0
11 P  s               0.0       0.0       0.0       0.0       0.0     100.0
12 S  s               0.0       0.0       0.0     100.0       0.0       0.0

                      6         7         8         9        10        11   
                 -18.79578 -18.79546 -18.78975 -18.78771  -9.96091  -9.95507
                   2.00000   2.00000   2.00000   2.00000   2.00000   2.00000
                  --------  --------  --------  --------  --------  --------
 1 C  s               0.0       0.0       0.0       0.0       0.0      99.6
 2 O  s               0.0       0.0      99.9       0.0       0.0       0.0
 5 O  s              99.9       0.0       0.0       0.0       0.0       0.0
13 O  s               0.0      99.9       0.0       0.0       0.0       0.0
14 C  s               0.0       0.0       0.0       0.0      99.7       0.0
16 O  s               0.0       0.0       0.0      99.9       0.0       0.0

                     12        13        14        15        16        17   
                  -9.95474  -9.95453  -9.94343  -9.89221  -9.88646  -9.88262
                   2.00000   2.00000   2.00000   2.00000   2.00000   2.00000
                  --------  --------  --------  --------  --------  --------
 0 C  s               0.0       0.0       0.0       0.0       0.0       0.1
 6 C  s               0.0      99.6       0.0       0.0       0.0       0.0
 7 C  s               0.0       0.0       0.0       0.0      99.7       0.0
 9 C  s              99.7       0.0       0.0       0.0       0.0       0.0
15 C  s               0.0       0.0       0.0      99.7       0.0       0.0
17 C  s               0.0       0.0      99.7       0.0       0.0       0.0
18 C  s               0.0       0.0       0.0       0.0       0.0      99.6

                     18        19        20        21        22        23   
                  -9.88242  -7.69522  -7.68371  -7.63619  -7.62673  -6.42730
                   2.00000   2.00000   2.00000   2.00000   2.00000   2.00000
                  --------  --------  --------  --------  --------  --------
 0 C  s              99.6       0.0       0.0       0.0       0.0       0.0
 2 O  py              0.0       0.0       0.0       0.0       0.0       0.2
 3 P  s               0.0       0.0       0.0       0.0       0.0      99.3
 4 S  s               0.0       0.0       0.0      99.9       0.0       0.0
 5 O  px              0.0       0.0       0.0       0.0       0.0       0.2
 8 S  s               0.0      99.7       0.0       0.0       0.0       0.0
 9 C  px              0.0       0.2       0.0       0.0       0.0       0.0
 9 C  py              0.0       0.0       0.1       0.0       0.0       0.0
10 S  s               0.0       0.0      99.8       0.0       0.0       0.0
12 S  s               0.0       0.0       0.0       0.0      99.9       0.0
18 C  s               0.1       0.0       0.0       0.0       0.0       0.0

                     24        25        26        27        28        29   
                  -6.42094  -5.72310  -5.71984  -5.71202  -5.71163  -5.70847
                   2.00000   2.00000   2.00000   2.00000   2.00000   2.00000
                  --------  --------  --------  --------  --------  --------
 8 S  pz              0.0      49.7      35.3      14.9       0.0       0.0
 8 S  px              0.0      46.0      52.4       1.6       0.0       0.0
 8 S  py              0.0       4.2      12.2      83.5       0.0       0.0
10 S  pz              0.0       0.0       0.0       0.0       1.5      13.6
10 S  px              0.0       0.0       0.0       0.0      66.8      23.8
10 S  py              0.0       0.0       0.0       0.0      31.6      62.6
11 P  s              99.3       0.0       0.0       0.0       0.0       0.0
13 O  py              0.2       0.0       0.0       0.0       0.0       0.0
16 O  pz              0.2       0.0       0.0       0.0       0.0       0.0

                     30        31        32        33        34        35   
                  -5.70037  -5.66491  -5.65713  -5.65624  -5.65579  -5.64725
                   2.00000   2.00000   2.00000   2.00000   2.00000   2.00000
                  --------  --------  --------  --------  --------  --------
 4 S  pz              0.0      51.8      32.0      16.2       0.0       0.0
 4 S  px              0.0      44.0      15.3      40.7       0.0       0.0
 4 S  py              0.0       4.1      52.7      43.1       0.0       0.0
10 S  pz             84.8       0.0       0.0       0.0       0.0       0.0
10 S  px              9.3       0.0       0.0       0.0       0.0       0.0
10 S  py              5.8       0.0       0.0       0.0       0.0       0.0
12 S  pz              0.0       0.0       0.0       0.0       5.9       1.7
12 S  px              0.0       0.0       0.0       0.0      25.1      74.9
12 S  py              0.0       0.0       0.0       0.0      69.0      23.5

                     36        37        38        39        40        41   
                  -5.64679  -4.64975  -4.64897  -4.64794  -4.64391  -4.64239
                   2.00000   2.00000   2.00000   2.00000   2.00000   2.00000
                  --------  --------  --------  --------  --------  --------
 3 P  pz              0.0      14.0       7.2      78.7       0.0       0.0
 3 P  px              0.0      32.5      47.2      20.2       0.0       0.0
 3 P  py              0.0      53.3      45.5       1.1       0.0       0.0
11 P  pz              0.0       0.0       0.0       0.0      49.2      50.7
11 P  px              0.0       0.0       0.0       0.0      34.8      32.8
11 P  py              0.0       0.0       0.0       0.0      15.9      16.4
12 S  pz             92.4       0.0       0.0       0.0       0.0       0.0
12 S  py              7.6       0.0       0.0       0.0       0.0       0.0

                     42        43        44        45        46        47   
                  -4.64132  -0.98886  -0.98449  -0.94685  -0.94319  -0.76606
                   2.00000   2.00000   2.00000   2.00000   2.00000   2.00000
                  --------  --------  --------  --------  --------  --------
 0 C  s               0.0       0.2       0.0       0.3       0.0       0.2
 0 C  px              0.0       0.2       0.0       0.4       0.0       0.1
 0 C  py              0.0       0.1       0.0       0.2       0.0       0.0
 1 C  s               0.0       2.9       0.0       4.7       0.0       0.9
 1 C  pz              0.0       1.2       0.0       1.8       0.0       0.1
 1 C  py              0.0       2.1       0.0       2.4       0.0       0.0
 1 C  dyz             0.0       0.2       0.0       0.3       0.0       0.0
 2 O  s               0.0      25.8       0.0      33.0       0.0       0.3
 2 O  pz              0.0       1.0       0.0       1.0       0.0       0.2
 2 O  py              0.0       0.7       0.0       0.0       0.0       1.0
 3 P  s               0.0      14.3       0.0       0.1       0.0       3.5
 3 P  pz              0.0       0.0       0.0       1.2       0.0       1.8
 3 P  px              0.0       3.4       0.0       2.7       0.0       0.5
 3 P  py              0.0       1.4       0.0       6.8       0.0       0.6
 3 P  dz2             0.0       0.5       0.0       0.0       0.0       0.2
 3 P  dxz             0.0       0.2       0.0       0.3       0.0       0.0
 3 P  dyz             0.0       0.2       0.0       0.1       0.0       0.1
 3 P  dx2y2           0.0       0.0       0.0       2.7       0.0       0.0
 3 P  dxy             0.0       0.0       0.0       0.3       0.0       0.0
 4 S  s               0.0       0.3       0.0       0.0       0.0       0.6
 4 S  pz              0.0       0.2       0.0       0.0       0.0       0.1
 4 S  px              0.0       0.2       0.0       0.0       0.0       0.1
 5 O  s               0.0      31.2       0.0      27.8       0.0       0.2
 5 O  pz              0.0       0.0       0.0       0.1       0.0       0.2
 5 O  px              0.0       1.4       0.0       0.2       0.0       0.3
 5 O  py              0.0       0.2       0.0       0.9       0.0       0.1
 6 C  s               0.0       3.6       0.0       4.5       0.0       0.4
 6 C  pz              0.0       1.1       0.0       1.1       0.0       0.0
 6 C  px              0.0       0.4       0.0       0.3       0.0       0.0
 6 C  py              0.0       2.5       0.0       2.4       0.0       0.0
 6 C  dyz             0.0       0.2       0.0       0.2       0.0       0.0
 6 C  dx2y2           0.0       0.1       0.0       0.1       0.0       0.0
 7 C  s               0.0       0.2       0.0       0.3       0.0       0.1
 7 C  py              0.0       0.4       0.0       0.5       0.0       0.0
 8 S  s               0.0       0.3       0.0       0.0       0.0      22.0
 8 S  pz              0.0       0.3       0.0       0.0       0.0       0.3
 8 S  px              0.0       0.0       0.0       0.0       0.0       2.6
 8 S  py              0.0       0.1       0.0       0.0       0.0       0.2
 8 S  dx2y2           0.0       0.0       0.0       0.0       0.0       0.2
 9 C  s               0.0       0.0       0.0       0.0       0.0      25.4
 9 C  px              0.0       0.0       0.0       0.0       0.0       1.3
 9 C  py              0.0       0.0       0.0       0.0       0.0       1.3
10 S  s               0.0       0.0       0.3       0.0       0.0      15.1
10 S  pz              0.0       0.0       0.1       0.0       0.0       0.2
10 S  px              0.0       0.0       0.3       0.0       0.0       0.0
10 S  py              0.0       0.0       0.0       0.0       0.0       2.3
11 P  s               0.0       0.0      13.8       0.0       0.1       2.0
11 P  pz              0.0       0.0       1.0       0.0       7.1       0.4
11 P  px             32.4       0.0       0.4       0.0       1.7       1.3
11 P  py             67.6       0.0       3.3       0.0       2.0       0.1
11 P  dz2             0.0       0.0       0.1       0.0       2.2       0.0
11 P  dxz             0.0       0.0       0.2       0.0       0.0       0.0
11 P  dyz             0.0       0.0       0.1       0.0       0.3       0.0
11 P  dx2y2           0.0       0.0       0.2       0.0       0.2       0.1
11 P  dxy             0.0       0.0       0.5       0.0       0.5       0.0
12 S  s               0.0       0.0       0.3       0.0       0.0       0.4
[...]
                  --------  --------  --------  --------
 0 C  dxy             0.2       0.0       0.0       0.1
 1 C  s               1.5       0.0       0.0       0.4
 1 C  pz              1.1       0.0       0.0       0.2
 1 C  py              1.6       0.0       0.0       0.4
 1 C  dz2             0.4       0.0       0.0       0.0
 1 C  dxz             0.1       0.0       0.0       0.0
 1 C  dyz             7.0       0.1       0.0       1.5
 1 C  dx2y2           2.6       0.0       0.0       0.6
 2 O  s               2.4       0.0       0.0       0.3
 2 O  pz              0.9       0.0       0.0       0.1
 2 O  py              2.8       0.0       0.0       3.3
 2 O  dz2             2.4       0.0       0.0       4.8
 2 O  dxz             0.6       0.0       0.0       0.2
 2 O  dyz            41.8       0.4       0.0      18.9
 2 O  dx2y2           7.3       0.1       0.0       3.7
 2 O  dxy             1.6       0.0       0.0       0.3
 3 P  s               0.6       0.0       0.0       0.0
 3 P  pz              0.0       0.0       0.0       0.3
 3 P  px              0.3       0.0       0.0       0.6
 3 P  py              0.1       0.0       0.0       2.1
 3 P  dz2             0.2       0.0       0.0       0.1
 3 P  dxz             0.2       0.0       0.0       0.2
 3 P  dx2y2           0.0       0.0       0.0       1.0
 3 P  dxy             0.2       0.0       0.0       0.5
 5 O  s               0.1       0.0       0.0       0.3
 5 O  pz              0.4       0.0       0.0       1.0
 5 O  px              0.6       0.0       0.0       1.8
 5 O  py              0.7       0.0       0.0       1.9
 5 O  dz2             0.1       0.0       0.0       0.2
 5 O  dxz             0.1       0.0       0.0       0.3
 5 O  dyz             6.1       0.0       0.0      13.5
 5 O  dx2y2          10.6       0.1       0.0      30.7
 5 O  dxy             0.1       0.0       0.0       0.9
 6 C  s               0.4       0.0       0.0       1.2
 6 C  pz              0.2       0.0       0.0       0.4
 6 C  px              0.1       0.0       0.0       0.2
 6 C  py              0.5       0.0       0.0       1.4
 6 C  dxz             0.1       0.0       0.0       0.4
 6 C  dyz             1.2       0.0       0.0       3.3
 6 C  dx2y2           0.5       0.0       0.0       1.3
 6 C  dxy             0.5       0.0       0.0       1.1
11 P  s               0.0       0.4       0.4       0.0
11 P  pz              0.0       0.5       1.2       0.0
11 P  px              0.0       0.4       0.0       0.0
11 P  py              0.0       1.1       0.0       0.0
11 P  dz2             0.0       0.5       0.8       0.0
11 P  dx2y2           0.0       0.5       0.0       0.0
11 P  dxy             0.0       0.3       0.0       0.0
13 O  s               0.0       0.3       0.1       0.0
13 O  py              0.1       6.7       0.0       0.0
13 O  dz2             0.0       1.7       0.6       0.0
13 O  dyz             0.2      20.2       0.0       0.0
13 O  dx2y2           0.1      12.1       0.5       0.0
13 O  dxy             0.3      33.9       0.0       0.0
14 C  s               0.0       1.6       0.0       0.0
14 C  px              0.0       0.2       0.0       0.0
14 C  py              0.0       2.5       0.0       0.0
14 C  dz2             0.0       1.9       0.0       0.0
14 C  dyz             0.0       1.2       0.0       0.0
14 C  dx2y2           0.0       5.6       0.0       0.0
14 C  dxy             0.0       1.0       0.0       0.0
15 C  dyz             0.0       0.1       0.0       0.0
16 O  s               0.0       0.3       1.0       0.0
16 O  pz              0.0       0.2       5.5       0.0
16 O  px              0.0       0.0       0.8       0.0
16 O  py              0.0       0.0       0.5       0.0
16 O  dz2             0.0       4.3       1.2       0.0
16 O  dxz             0.0       0.0      40.3       0.0
16 O  dyz             0.0       0.3      18.2       0.0
16 O  dx2y2           0.0       0.0       0.7       0.0
16 O  dxy             0.0       0.1      10.3       0.0
17 C  s               0.0       0.0       1.9       0.0
17 C  pz              0.0       0.0       1.8       0.0
17 C  px              0.0       0.0       1.2       0.0
17 C  py              0.0       0.0       0.5       0.0
17 C  dz2             0.0       0.0       1.2       0.0
17 C  dxz             0.0       0.0       5.2       0.0
17 C  dyz             0.0       0.0       3.1       0.0
17 C  dxy             0.0       0.1       1.9       0.0
18 C  dx2y2           0.0       0.0       0.1       0.0


                      *****************************
                      * MAYER POPULATION ANALYSIS *
                      *****************************

  NA   - Mulliken gross atomic population
  ZA   - Total nuclear charge
  QA   - Mulliken gross atomic charge
  VA   - Mayer's total valence
  BVA  - Mayer's bonded valence
  FA   - Mayer's free valence

  ATOM       NA         ZA         QA         VA         BVA        FA
  0 C      6.3320     6.0000    -0.3320     3.9874     3.9874     0.0000
  1 C      5.9906     6.0000     0.0094     4.0007     4.0007    -0.0000
  2 O      8.3591     8.0000    -0.3591     2.1764     2.1764     0.0000
  3 P     14.3885    15.0000     0.6115     4.9690     4.9690     0.0000
  4 S     16.3342    16.0000    -0.3342     2.0686     2.0686    -0.0000
  5 O      8.3709     8.0000    -0.3709     2.1835     2.1835     0.0000
  6 C      6.0042     6.0000    -0.0042     4.0001     4.0001    -0.0000
  7 C      6.3188     6.0000    -0.3188     3.9890     3.9890    -0.0000
  8 S     16.0709    16.0000    -0.0709     2.2708     2.2708     0.0000
  9 C      6.3476     6.0000    -0.3476     3.8131     3.8131    -0.0000
 10 S     16.1062    16.0000    -0.1062     2.2467     2.2467     0.0000
 11 P     14.3889    15.0000     0.6111     4.9709     4.9709     0.0000
 12 S     16.3200    16.0000    -0.3200     2.0137     2.0137     0.0000
 13 O      8.3661     8.0000    -0.3661     2.1737     2.1737    -0.0000
 14 C      6.0421     6.0000    -0.0421     4.0219     4.0219    -0.0000
 15 C      6.3051     6.0000    -0.3051     3.9960     3.9960     0.0000
 16 O      8.3756     8.0000    -0.3756     2.1762     2.1762     0.0000
 17 C      6.0088     6.0000    -0.0088     3.9862     3.9862    -0.0000
 18 C      6.3093     6.0000    -0.3093     3.9965     3.9965     0.0000
 19 H      0.8966     1.0000     0.1034     0.9524     0.9524     0.0000
 20 H      0.8826     1.0000     0.1174     0.9653     0.9653     0.0000
 21 H      0.8497     1.0000     0.1503     0.9960     0.9960     0.0000
 22 H      0.8992     1.0000     0.1008     0.9787     0.9787    -0.0000
 23 H      0.8933     1.0000     0.1067     0.9477     0.9477     0.0000
 24 H      0.8940     1.0000     0.1060     0.9492     0.9492     0.0000
 25 H      0.8889     1.0000     0.1111     0.9831     0.9831    -0.0000
 26 H      0.8810     1.0000     0.1190     0.9600     0.9600     0.0000
 27 H      0.8848     1.0000     0.1152     0.9551     0.9551     0.0000
 28 H      0.8718     1.0000     0.1282     0.9802     0.9802    -0.0000
 29 H      0.7983     1.0000     0.2017     0.9792     0.9792    -0.0000
 30 H      0.8081     1.0000     0.1919     0.9431     0.9431    -0.0000
 31 H      0.8878     1.0000     0.1122     0.9467     0.9467    -0.0000
 32 H      0.8759     1.0000     0.1241     0.9708     0.9708    -0.0000
 33 H      0.8877     1.0000     0.1123     0.9551     0.9551    -0.0000
 34 H      0.8573     1.0000     0.1427     0.9647     0.9647     0.0000
 35 H      0.8744     1.0000     0.1256     0.9564     0.9564     0.0000
 36 H      0.8873     1.0000     0.1127     0.9908     0.9908     0.0000
 37 H      0.8902     1.0000     0.1098     0.9555     0.9555    -0.0000
 38 H      0.8868     1.0000     0.1132     0.9553     0.9553     0.0000
 39 H      0.8911     1.0000     0.1089     0.9571     0.9571    -0.0000
 40 H      0.8744     1.0000     0.1256     0.9769     0.9769    -0.0000

  Mayer bond orders larger than 0.100000
B(  0-C ,  1-C ) :   1.1697 B(  0-C , 19-H ) :   0.9376 B(  0-C , 20-H ) :   0.9411 
B(  0-C , 21-H ) :   0.9238 B(  1-C ,  2-O ) :   0.8953 B(  1-C , 22-H ) :   0.9139 
B(  1-C , 23-H ) :   0.9329 B(  2-O ,  3-P ) :   1.1439 B(  3-P ,  4-S ) :   1.5909 
B(  3-P ,  5-O ) :   1.1148 B(  3-P ,  8-S ) :   0.9564 B(  4-S ,  8-S ) :   0.1117 
B(  5-O ,  6-C ) :   0.9081 B(  6-C ,  7-C ) :   1.1644 B(  6-C , 24-H ) :   0.9333 
B(  6-C , 25-H ) :   0.9147 B(  7-C , 26-H ) :   0.9451 B(  7-C , 27-H ) :   0.9382 
B(  7-C , 28-H ) :   0.9354 B(  8-S ,  9-C ) :   1.0159 B(  9-C , 10-S ) :   0.9664 
B(  9-C , 29-H ) :   0.8596 B(  9-C , 30-H ) :   0.9040 B( 10-S , 11-P ) :   0.9773 
B( 10-S , 12-S ) :   0.1067 B( 11-P , 12-S ) :   1.6272 B( 11-P , 13-O ) :   1.1229 
B( 11-P , 16-O ) :   1.0679 B( 13-O , 14-C ) :   0.8985 B( 14-C , 15-C ) :   1.1710 
B( 14-C , 31-H ) :   0.9329 B( 14-C , 32-H ) :   0.9101 B( 15-C , 33-H ) :   0.9383 
B( 15-C , 34-H ) :   0.9291 B( 15-C , 35-H ) :   0.9444 B( 16-O , 17-C ) :   0.9018 
B( 17-C , 18-C ) :   1.1615 B( 17-C , 36-H ) :   0.9110 B( 17-C , 37-H ) :   0.9261 
B( 18-C , 38-H ) :   0.9409 B( 18-C , 39-H ) :   0.9477 B( 18-C , 40-H ) :   0.9372 


-------
TIMINGS
-------

Total SCF time: 0 days 0 hours 0 min 17 sec 

Total time                  ....      17.214 sec
Sum of individual times     ....      16.729 sec  ( 97.2%)

SCF preparation             ....       0.228 sec  (  1.3%)
Fock matrix formation       ....      15.330 sec  ( 89.1%)
  Startup                   ....       0.052 sec  (  0.3% of F)
  Split-RI-J                ....       9.169 sec  ( 59.8% of F)
  XC integration            ....       5.552 sec  ( 36.2% of F)
    Basis function eval.    ....       2.138 sec  ( 38.5% of XC)
    Density eval.           ....       1.091 sec  ( 19.7% of XC)
    XC-Functional eval.     ....       0.410 sec  (  7.4% of XC)
    XC-Potential eval.      ....       1.238 sec  ( 22.3% of XC)
Diagonalization             ....       0.000 sec  (  0.0%)
Density matrix formation    ....       0.234 sec  (  1.4%)
Total Energy calculation    ....       0.034 sec  (  0.2%)
Population analysis         ....       0.209 sec  (  1.2%)
Orbital Transformation      ....       0.092 sec  (  0.5%)
Orbital Orthonormalization  ....       0.000 sec  (  0.0%)
DIIS solution               ....       0.458 sec  (  2.7%)
  MO trafo                  ....       0.000 sec  (  0.0 % of DIIS)
  Orb grad                  ....       0.000 sec  (  0.0 % of DIIS)
  Energy W gradient         ....       0.000 sec  (  0.0 % of DIIS)
  DIIS error                ....       0.022 sec  (  4.7 % of DIIS)
  DIIS work                 ....       0.380 sec  ( 83.0 % of DIIS)
  Form Q                    ....       0.000 sec  (  0.0 % of DIIS)
  Form QpQm                 ....       0.000 sec  (  0.0 % of DIIS)
  Exp/Cayley                ....       0.000 sec  (  0.0 % of DIIS)
  Orb update                ....       0.000 sec  (  0.0 % of DIIS)
  Wake-sleep                ....       0.017 sec  (  3.7 % of DIIS)
SOSCF solution              ....       0.144 sec  (  0.8%)
  MO trafo                  ....       0.072 sec  ( 49.9 % of SOSCF)
  Orb grad                  ....       0.003 sec  (  2.1 % of SOSCF)
  Rot update                ....       0.030 sec  ( 20.5 % of SOSCF)
  Step                      ....       0.040 sec  ( 27.4 % of SOSCF)
Finished LeanSCF after  17.3 sec

Maximum memory used throughout the entire LEANSCF-calculation: 34.8 MB


-------------------------------------------------------------------------------
                          DFT DISPERSION CORRECTION                            
                                                                               
                                DFTD4 V3.4.0                                   
-------------------------------------------------------------------------------
The PBE functional is recognized
Active option DFTDOPT                   ...         5   

-------------------------   ----------------
Dispersion correction           -0.066131436
-------------------------   ----------------

------------------   -----------------
gCP correction             0.185943987
------------------   -----------------

-------------------------   --------------------
FINAL SINGLE POINT ENERGY     -2929.519387467522
-------------------------   --------------------


------------------------------------------------------------------------------
                              ORCA PROPERTY CALCULATIONS
------------------------------------------------------------------------------

GBWName                                 ... sp.gbw
Number of atoms                         ...     41
Number of basis functions               ...    334
Max core memory                         ...   1024 MB

Electric properties:
Dipole moment                           ... YES
Quadrupole moment                       ...  NO
Static polarizability (Dipole/Dipole)   ...  NO
Static polarizability (Dipole/Quad.)    ...  NO
Static polarizability (Quad./Quad.)     ...  NO
Static polarizability (Velocity)        ...  NO

Atomic electric properties:
Dipole moment                           ...  NO
Quadrupole moment                       ...  NO
Static polarizability                   ...  NO

Choice of electric origin               ... Center of mass
Position of electric origin             ...    -0.000003     0.000002     0.000005

General magnetic properties:
Magnetizability                         ...  NO

EPR properties:
g-Tensor (aka g-matrix)                 ...  NO
Zero-Field splitting spin-orbit         ...  NO
Zero-field splitting spin-spin          ...  NO
Hyperfine couplings                     ...  NO (   0 nuclei)
Quadrupole couplings                    ...  NO (   0 nuclei)
Contact density                         ...  NO (   0 nuclei)

NMR properties:
Chemical shifts                         ...  NO (   0 nuclei)
Spin-rotation constants                 ...  NO (   0 nuclei)
Spin-spin couplings                     ...  NO (   0 nuclei,    0 pairs)

Choice of magnetic origin               ... GIAO
Position of magnetic origin             ...     0.000000     0.000000     0.000000

Properties with geometric perturbations:
SCF Hessian                             ...  NO
IR spectrum                             ...  NO
VCD spectrum                            ...  NO
X-ray spectroscopy properties:
SCF XES/XAS/RIXS spectra                ...  NO


-------------
DIPOLE MOMENT
-------------

Method             : SCF
Type of density    : Electron Density
Multiplicity       :   1
Irrep              :   0
Energy             : -2929.6392000185760480 Eh
Relativity type    : 
Basis              : AO
                                X                 Y                 Z
Electronic contribution:      2.637611709     -11.665225664     -11.778333651
Nuclear contribution   :     -1.820947067      12.829251401      12.735366364
                        -----------------------------------------
Total Dipole Moment    :      0.816664642       1.164025737       0.957032713
                        -----------------------------------------
Magnitude (a.u.)       :      1.714003696
Magnitude (Debye)      :      4.356651165



--------------------
Rotational spectrum 
--------------------
 
Rotational constants in cm-1:             0.012115             0.005120             0.004870 
Rotational constants in MHz :           363.200640           153.499052           146.002501 

Dipole components along the rotational axes: 
x,y,z [a.u.] :     0.609183     1.424592    -0.732968 
x,y,z [Debye]:     1.548420     3.621025    -1.863058 

 

Dipole moment calculation done in   0.0 sec 

Maximum memory used throughout the entire PROP-calculation: 24.1 MB

--------------------------------
SUGGESTED CITATIONS FOR THIS RUN
--------------------------------

Below you find a list of papers that are relevant to this ORCA run
We neither can nor want to force you to cite these papers, but we appreciate if you do
You receive ORCA, which is the product of decades of hard work by many enthusiastic individuals, for free
The only thing we kindly ask in return is that you cite our papers,
We deeply appreciate it, if you show your appreciation for ORCA by not just citing the generic ORCA reference.

Please note that relegating all ORCA citations to the supporting information does *not* help us.
SI sections are not indexed - citations you put there will not count into any citation statistics
But we need these citations in order to attract the funding resources that allow us to do what we are doing

Therefore, if you are a happy ORCA user, please consider citing a few of the papers listed below in the main body of your paper

In addition to the list printed below, the program has created the file sp.bibtex that contains the list in bibtex format
You can import this file easily into all common literature databanks and citation aid programs


List of essential papers. We consider these as the minimum necessary citations

  1. Neese,F.
     Software update: the ORCA program system, version 5.0
     WIRES Comput. Molec. Sci., 2022 12(1)e1606
     doi.org/10.1002/wcms.1606

List of papers to cite with high priority. The work reported in these papers was absolutely
necessary for this run to complete.
Our perspective: the developers of density functionals and basis sets usually get cited in chemistry papers
Good! But without the algorithms to do something with them, the functionals or basis sets would not do anything.
Hence, in our opinion, the algorithm design and method developments papers are equally worthy of getting cited

  1. Neese,F.
     An improvement of the resolution of the identity approximation for the formation of the Coulomb matrix
     J. Comp. Chem., 2003 24(14)1740-1747
     doi.org/10.1002/jcc.10318
  2. Neese,F.
     The SHARK Integral Generation and Digestion System
     J. Comp. Chem., 2022  1-16
     doi.org/10.1002/jcc.26942
  3. Caldeweyher,E.; Bannwarth,C.; Grimme,S.
     Extension of the D3 dispersion coefficient model
     J. Chem. Phys., 2017 147 034112-XXXX
     doi.org/10.1063/1.4993215
  4. Caldeweyher,E.; Ehlert,S.; Hansen,A.; Neugebauer,H.; Spicher,S.; Bannwarth,C.; Grimme,S.
     A generally applicable atomic-charge dependent London dispersion correction
     J. Chem. Phys., 2019 150 154122-XXXX
     doi.org/10.1063/1.5090222
  5. Caldeweyher,E.; Mewes,J.; Ehlert,S.; Grimme,S.
     Extension and evaluation of the D4 London-dispersion model for periodic systems
     Phys. Chem. Chem. Phys., 2020 22(16)8499-8512
     doi.org/10.1039/D0CP00502A

List of suggested additional citations. These are papers that are important in the 'surrounding' of 
of this run, or papers that preceded the highly important papers. If you like your results we are grateful for a citation.

  1. Neese,F.
     The ORCA program system
     WIRES Comput. Molec. Sci., 2012 2(1)73-78
     doi.org/10.1002/wcms.81
  2. Neese,F.
     Software update: the ORCA program system, version 4.0
     WIRES Comput. Molec. Sci., 2018 8(1)1-6
     doi.org/10.1002/wcms.1327
  3. Neese,F.; Wennmohs,F.; Becker,U.; Riplinger,C.
     The ORCA quantum chemistry program package
     J. Chem. Phys., 2020 152 Art. No. L224108
     doi.org/10.1063/5.0004608

List of optional additional citations

  1. Neese,F.
     Approximate second-order SCF convergence for spin unrestricted wavefunctions
     Chem. Phys. Lett., 2000 325(1-3)93-98
     doi.org/10.1016/s0009-2614(00)00662-x

Timings for individual modules:

Sum of individual times          ...       20.962 sec (=   0.349 min)
Startup calculation              ...        1.612 sec (=   0.027 min)   7.7 %
SCF iterations                   ...       19.242 sec (=   0.321 min)  91.8 %
Property calculations            ...        0.108 sec (=   0.002 min)   0.5 %
                             ****ORCA TERMINATED NORMALLY****
TOTAL RUN TIME: 0 days 0 hours 0 minutes 21 seconds 719 msec
