7
 energy: -26.716282543886 gnorm: 0.044093378689 xtb: 6.7.1 (edcfbbe)
C           -0.24498527965731        0.00252020879194        0.00998835694959
N            1.37726881898937       -0.01688815499948       -0.25070394203753
O            1.88598374061849       -1.10913193541823       -0.30513215578587
O            1.91110998521721        1.06355710582829       -0.30245134707817
Cl          -0.90834490578686        1.46187253428890       -0.71021100981017
Cl          -0.94172297889326       -1.44975675437983       -0.69220712700663
Cl          -0.39616312537028        0.01510127508481        1.77903645384424
7
 energy: -26.718626021474 gnorm: 0.016394989594 xtb: 6.7.1 (edcfbbe)
C           -0.23807513753971        0.00259929869471        0.01650646244337
N            1.34619116548869       -0.01651458842547       -0.23793212836530
O            1.84090153816684       -1.09817411840691       -0.31395202199157
O            1.86648739741869        1.05332364463684       -0.31177415839399
Cl          -0.85691924057205        1.47219107526426       -0.71199674390059
Cl          -0.88969101777382       -1.46121196260187       -0.69432874337488
Cl          -0.38574845007128        0.01506093003484        1.78179656265841
7
 energy: -26.718762796761 gnorm: 0.025822364682 xtb: 6.7.1 (edcfbbe)
C           -0.21183975605040        0.00206601519046       -0.00229788181484
N            1.33323615731247       -0.01623673923700       -0.26778322630242
O            1.82793157293973       -1.09136806625116       -0.28702033945965
O            1.85313599584544        1.04698410676261       -0.28526243200956
Cl          -0.86217859140560        1.46562674192571       -0.70325336344971
Cl          -0.89510690710069       -1.45440989314750       -0.68587417209925
Cl          -0.36203221642358        0.01461211395329        1.75981064421090
7
 energy: -26.719178944129 gnorm: 0.018336379368 xtb: 6.7.1 (edcfbbe)
C           -0.20261965746419        0.00189258267719       -0.00600057820334
N            1.33698311239472       -0.01632183054475       -0.23236448669790
O            1.82819787513662       -1.09295168053647       -0.30034888167473
O            1.85309893519950        1.04872033657130       -0.29933598085462
Cl          -0.86664809870931        1.46149518167216       -0.70342353910419
Cl          -0.89986849346412       -1.44997097406290       -0.68627979593404
Cl          -0.36599741797586        0.01441066341988        1.75607249154427
7
 energy: -26.719385404364 gnorm: 0.007162585636 xtb: 6.7.1 (edcfbbe)
C           -0.21263246834685        0.00224608902928        0.00077795159036
N            1.32940081438357       -0.01629261193660       -0.23843305827097
O            1.82673242098161       -1.09705297820887       -0.29838199632026
O            1.85186185972876        1.05261439771864       -0.29802336769774
Cl          -0.86047682960515        1.46548745254401       -0.71186505347448
Cl          -0.89317668649942       -1.45396412010690       -0.69491900918530
Cl          -0.35856285552516        0.01423605015685        1.76916376243385
7
 energy: -26.719455373068 gnorm: 0.004904250242 xtb: 6.7.1 (edcfbbe)
C           -0.20666062751553        0.00204195920076       -0.00315485824530
N            1.32582965494237       -0.01619279377690       -0.24118495738345
O            1.82615521476247       -1.09591935603717       -0.29454927713213
O            1.85103766506049        1.05167415880407       -0.29486881413357
Cl          -0.86231091888171        1.46476311569411       -0.71052389670169
Cl          -0.89544321769419       -1.45310468233898       -0.69381528215981
Cl          -0.35546151555654        0.01401187765051        1.76641631483140
7
 energy: -26.719488029991 gnorm: 0.001404038113 xtb: 6.7.1 (edcfbbe)
C           -0.20150017788143        0.00208102369735       -0.00643704146438
N            1.32110667542836       -0.01615884494700       -0.24036232858156
O            1.82608005770516       -1.09500331845206       -0.29237359190591
O            1.85095989528598        1.05063821323167       -0.29397905973361
Cl          -0.86399897738627        1.46482156619004       -0.71020489589279
Cl          -0.89675592505219       -1.45280828362591       -0.69403343451936
Cl          -0.35274529298226        0.01370392310231        1.76570958117306
7
 energy: -26.719490610986 gnorm: 0.000464065963 xtb: 6.7.1 (edcfbbe)
C           -0.20183308586273        0.00186131880742       -0.00654469426715
N            1.31984008243666       -0.01605166787456       -0.23957687433467
O            1.82710669582633       -1.09430386539197       -0.29238032383543
O            1.85157922006516        1.05026873517829       -0.29488857776751
Cl          -0.86350114922185        1.46536929556640       -0.71047776584434
Cl          -0.89722137930753       -1.45331548113799       -0.69455400327532
Cl          -0.35282412881867        0.01344594404882        1.76674146839989
7
 energy: -26.719490785804 gnorm: 0.000157191942 xtb: 6.7.1 (edcfbbe)
C           -0.20227803410818        0.00233038870019       -0.00623223709623
N            1.32001391595148       -0.01620922181738       -0.23963498368079
O            1.82669446699030       -1.09454708586319       -0.29239822975106
O            1.85174899022838        1.04986803604160       -0.29533603749950
Cl          -0.86394229336743        1.46551382079618       -0.71025755012403
Cl          -0.89590315807161       -1.45313924768056       -0.69468668760579
Cl          -0.35318763250558        0.01345758901957        1.76686495483285
7
 energy: -26.719490840612 gnorm: 0.000181475029 xtb: 6.7.1 (edcfbbe)
C           -0.20235050600542        0.00191170379660       -0.00629310773892
N            1.32008884538261       -0.01605194184284       -0.23971975666942
O            1.82697919182954       -1.09424456076141       -0.29210161047049
O            1.85141485084347        1.05017799487854       -0.29550874832653
Cl          -0.86310264031867        1.46535631000516       -0.71017917832642
Cl          -0.89673965398609       -1.45312910284563       -0.69462971084532
Cl          -0.35314383262808        0.01325387596599        1.76675134145256
