      -----------------------------------------------------------      
     |                   =====================                   |     
     |                           x T B                           |     
     |                   =====================                   |     
     |                         S. Grimme                         |     
     |          Mulliken Center for Theoretical Chemistry        |     
     |                    University of Bonn                     |     
      -----------------------------------------------------------      

   * xtb version 6.7.1 (edcfbbe) compiled by 'albert@albert-system' on 2024-07-22

   xtb is free software: you can redistribute it and/or modify it under
   the terms of the GNU Lesser General Public License as published by
   the Free Software Foundation, either version 3 of the License, or
   (at your option) any later version.
   
   xtb is distributed in the hope that it will be useful,
   but WITHOUT ANY WARRANTY; without even the implied warranty of
   MERCHANTABILITY or FITNESS FOR A PARTICULAR PURPOSE.  See the
   GNU Lesser General Public License for more details.
   
   Cite this work as:
   * C. Bannwarth, E. Caldeweyher, S. Ehlert, A. Hansen, P. Pracht,
     J. Seibert, S. Spicher, S. Grimme, WIREs Comput. Mol. Sci., 2020, 11,
     e01493. DOI: 10.1002/wcms.1493
   
   for GFN2-xTB:
   * C. Bannwarth, S. Ehlert and S. Grimme., J. Chem. Theory Comput., 2019,
     15, 1652-1671. DOI: 10.1021/acs.jctc.8b01176
   for GFN1-xTB:
   * S. Grimme, C. Bannwarth, P. Shushkov, J. Chem. Theory Comput., 2017,
     13, 1989-2009. DOI: 10.1021/acs.jctc.7b00118
   for GFN0-xTB:
   * P. Pracht, E. Caldeweyher, S. Ehlert, S. Grimme, ChemRxiv, 2019, preprint.
     DOI: 10.26434/chemrxiv.8326202.v1
   for GFN-FF:
   * S. Spicher and S. Grimme, Angew. Chem. Int. Ed., 2020, 59, 15665-15673.
     DOI: 10.1002/anie.202004239
   
   for ALPB and GBSA implicit solvation:
   * S. Ehlert, M. Stahn, S. Spicher, S. Grimme, J. Chem. Theory Comput.,
     2021, 17, 4250-4261. DOI: 10.1021/acs.jctc.1c00471
   
   for ddCOSMO and CPCM-X implicit solvation:
   * M. Stahn, S. Ehlert, S. Grimme, J. Phys. Chem. A,
     2023, XX, XXXX-XXXX. DOI: 10.1021/acs.jpca.3c04382
   
   for DFT-D4:
   * E. Caldeweyher, C. Bannwarth and S. Grimme, J. Chem. Phys., 2017,
     147, 034112. DOI: 10.1063/1.4993215
   * E. Caldeweyher, S. Ehlert, A. Hansen, H. Neugebauer, S. Spicher,
     C. Bannwarth and S. Grimme, J. Chem. Phys., 2019, 150, 154122.
     DOI: 10.1063/1.5090222
   * E. Caldeweyher, J.-M. Mewes, S. Ehlert and S. Grimme, Phys. Chem. Chem. Phys.
     2020, 22, 8499-8512. DOI: 10.1039/D0CP00502A
   
   for sTDA-xTB:
   * S. Grimme and C. Bannwarth, J. Chem. Phys., 2016, 145, 054103.
     DOI: 10.1063/1.4959605
   
   in the mass-spec context:
   * V. Asgeirsson, C. Bauer and S. Grimme, Chem. Sci., 2017, 8, 4879.
     DOI: 10.1039/c7sc00601b
   * J. Koopman and S. Grimme, ACS Omega 2019, 4, 12, 15120-15133.
     DOI: 10.1021/acsomega.9b02011
   
   for metadynamics refer to:
   * S. Grimme, J. Chem. Theory Comput., 2019, 155, 2847-2862
     DOI: 10.1021/acs.jctc.9b00143
   
   for SPH calculations refer to:
   * S. Spicher and S. Grimme, J. Chem. Theory Comput., 2021, 17, 1701-1714
     DOI: 10.1021/acs.jctc.0c01306
   
   for ONIOM refer to:
   * C. Plett, A. Katbashev, S. Ehlert, S. Grimme, M. Bursch,
     Phys. Chem. Chem. Phys., 2023, 25, 17860-17868. DOI: 10.1039/D3CP02178E
   
   for DIPRO refer to:
   * J. Kohn, N. Gildemeister, S. Grimme, D. Fazzi, A. Hansen,
     J. Chem. Phys., 2023, just accepted.
   
   for PTB refer to:
   * S. Grimme, M. Mueller, A. Hansen, J. Chem. Phys., 2023, 158, 124111.
     DOI: 10.1063/5.0137838
   
   with help from (in alphabetical order)
   P. Atkinson, C. Bannwarth, F. Bohle, G. Brandenburg, E. Caldeweyher
   M. Checinski, S. Dohm, S. Ehlert, S. Ehrlich, I. Gerasimov, C. Hölzer
   A. Katbashev, J. Kohn, J. Koopman, C. Lavigne, S. Lehtola, F. März, M. Müller,
   F. Musil, H. Neugebauer, J. Pisarek, C. Plett, P. Pracht, F. Pultar,
   J. Seibert, P. Shushkov, S. Spicher, M. Stahn, M. Steiner, T. Strunk,
   J. Stückrath, T. Rose, and J. Unsleber
   
 * started run on 2025/04/09 at 15:33:15.948     
   ID    Z sym.   atoms
    1    6 C      1, 2, 4, 6, 7, 9, 12, 13, 18, 20
    2    8 O      3, 5, 10, 11, 17, 19
    3    1 H      8, 21-38
    4   16 S      14, 16
    5   15 P      15

           -------------------------------------------------
          |                Calculation Setup                |
           -------------------------------------------------

          program call               : /software/projects/pawsey0265/mwang1/xtb/bin/xtb xtb_opt.coord --opt normal --orca -I xtb_opt-xcontrol-inp
          hostname                   : nid002043
          coordinate file            : xtb_opt.coord
          omp threads                :                   128

           -------------------------------------------------
          |                   Orca driver                   |
           -------------------------------------------------
orca executable           : /software/projects/pawsey0265/mwang1/orca_avx2/orca
orca input file           : xtb_opt.inp
orca input line           : 
orca parallel             : true
orca number of threads    : 128
                         * ORCA takes the control...
  ------------------------------------------------------------------------

                                 *****************
                                 * O   R   C   A *
                                 *****************

                                            #,                                       
                                            ###                                      
                                            ####                                     
                                            #####                                    
                                            ######                                   
                                           ########,                                 
                                     ,,################,,,,,                         
                               ,,#################################,,                 
                          ,,##########################################,,             
                       ,#########################################, ''#####,          
                    ,#############################################,,   '####,        
                  ,##################################################,,,,####,       
                ,###########''''           ''''###############################       
              ,#####''   ,,,,##########,,,,          '''####'''          '####       
            ,##' ,,,,###########################,,,                        '##       
           ' ,,###''''                  '''############,,,                           
         ,,##''                                '''############,,,,        ,,,,,,###''
      ,#''                                            '''#######################'''  
     '                                                          ''''####''''         
             ,#######,   #######,   ,#######,      ##                                
            ,#'     '#,  ##    ##  ,#'     '#,    #''#        ,####,   ,####,        
            ##       ##  ##   ,#'  ##            #'  '#       #'       #'  '#        
            ##       ##  #######   ##           ,######,      #####,   #    #        
            '#,     ,#'  ##    ##  '#,     ,#' ,#      #,     #,   #   #,  ,#        
             '#######'   ##     ##  '#######'  #'      '#     '####' # '####'        



                #########################################################
                #                        -***-                          #
                #          Department of theory and spectroscopy        #
                #                                                       #
                #                      Frank Neese                      #
                #                                                       #
                #     Directorship, Architecture, Infrastructure        #
                #                    SHARK, DRIVERS                     #
                #        Core code/Algorithms in most modules           #
                #                                                       #
                #        Max Planck Institute fuer Kohlenforschung      #
                #                Kaiser Wilhelm Platz 1                 #
                #                 D-45470 Muelheim/Ruhr                 #
                #                      Germany                          #
                #                                                       #
                #                  All rights reserved                  #
                #                        -***-                          #
                #########################################################


                         Program Version 6.0.1  -  RELEASE   -


 With contributions from (in alphabetic order):
[Max-Planck-Institut fuer Kohlenforschung]                               
  Daniel Aravena         : Magnetic Suceptibility                        
  Michael Atanasov       : Ab Initio Ligand Field Theory (pilot matlab implementation)
  Alexander A. Auer      : GIAO ZORA, VPT2 properties, NMR spectrum      
  Ute Becker             : All parallelization in ORCA, NUMFREQ, NUMCALC 
  Giovanni Bistoni       : ED, misc. LED, open-shell LED, HFLD           
  Martin Brehm           : Molecular dynamics                            
  Dmytro Bykov           : pre 5.0 version of the SCF Hessian            
  Marcos Casanova-Páez   : Triplet and SCS-CIS(D). UHF-(DLPNO)-IP/EA/STEOM-CCSD. UHF-CVS-IP/STEOM-CCSD   
  Vijay G. Chilkuri      : MRCI spin determinant printing, contributions to CSF-ICE 
  Pauline Colinet        : FMM embedding                                 
  Dipayan Datta          : RHF DLPNO-CCSD density                        
  Achintya Kumar Dutta   : EOM-CC, STEOM-CC                              
  Nicolas Foglia         : Exact transition moments, OPA infrastructure, MCD improvements    
  Dmitry Ganyushin       : Spin-Orbit,Spin-Spin,Magnetic field MRCI      
  Miquel Garcia-Rates    : C-PCM and meta-GGA Hessian, CCSD/C-PCM, Gaussian charge scheme 
  Tiago L. C. Gouveia    : GS-ROHF, GS-ROCIS                             
  Yang Guo               : DLPNO-NEVPT2, F12-NEVPT2, CIM, IAO-localization        
  Andreas Hansen         : Spin unrestricted coupled pair/coupled cluster methods 
  Ingolf Harden          : AUTO-CI MPn and infrastructure                
  Benjamin Helmich-Paris : MC-RPA, TRAH-(SCF,CASSCF), AVAS, COSX integrals, SCF dyn. polar. 
  Lee Huntington         : MR-EOM, pCC                                   
  Robert Izsak           : Overlap fitted RIJCOSX, COSX-SCS-MP3, EOM     
  Riya Kayal             : Wick's Theorem for AUTO-CI, AUTO-CI UHF-CCSDT 
  Emily Kempfer          : AUTO-CI, RHF CISDT and CCSDT                  
  Christian Kollmar      : KDIIS, OOCD, Brueckner-CCSD(T), CCSD density, CASPT2, CASPT2-K, improved NEVPT2 
  Axel Koslowski         : Symmetry handling                             
  Simone Kossmann        : meta-GGA functionals, TD-DFT gradient, OOMP2, (MP2 Hessian; deprecated post 5.0) 
  Lucas Lang             : DCDCAS                                        
  Marvin Lechner         : AUTO-CI (C++ implementation), FIC-MRCC        
  Spencer Leger          : CASSCF response                               
  Dagmar Lenk            : GEPOL surface, SMD, ORCA-2-JSON               
  Dimitrios Liakos       : Extrapolation schemes; Compound Job, initial MDCI parallelization 
  Dimitrios Manganas     : Further ROCIS development; embedding schemes. LFT, Crystal Embedding 
  Dimitrios Pantazis     : SARC Basis sets                               
  Anastasios Papadopoulos: AUTO-CI, single reference methods and gradients 
  Taras Petrenko         : pre 6.0 DFT Hessian and TD-DFT gradient, (ASA, deprecated), ECA, 1-Electron XAS/XES, NRVS 
  Peter Pinski           : DLPNO-MP2, DLPNO-MP2 Gradient                 
  Christoph Reimann      : Effective Core Potentials                     
  Marius Retegan         : Local ZFS, SOC                                
  Christoph Riplinger    : Optimizer, TS searches, QM/MM, DLPNO-CCSD(T), (RO)-DLPNO pert. Triples 
  Michael Roemelt        : Original ROCIS implementation                 
  Masaaki Saitow         : Open-shell DLPNO-CCSD energy and density      
  Barbara Sandhoefer     : DKH picture change effects                    
  Kantharuban Sivalingam : CASSCF convergence/infrastructure, NEVPT2 and variants, FIC-MRCI 
  Bernardo de Souza      : ESD, SOC TD-DFT                               
  Georgi L. Stoychev     : AutoAux, RI-MP2 NMR, DLPNO-MP2 response, X2C  
  Van Anh Tran           : RI-MP2 g-tensors                              
  Willem Van den Heuvel  : Paramagnetic NMR                              
  Zikuan Wang            : NOTCH, Electric field optimization            
  Frank Wennmohs         : Technical directorship and infrastructure     
  Hang Xu                : AUTO-CI-Response properties                   
                                                                         
[FACCTs GmbH]                                                            
  Markus Bursch, Miquel Garcia-Rates, Christoph Riplinger, Bernardo de Souza, Georgi L. Stoychev 
                                                                 
  APM, Basis sets (HGBS, AHGBS, def-TZVP (Ac-Lr), def2-XVPD (La-Lu)), CI-OPT, improved COSX, DLPNO-Multilevel,           
  DOCKER, DRACO, updates on ESD, GOAT, IRC, LR-CPCM, MBIS, meta-GGA TD-DFT gradient, ML-optimized integration grids, 
  MM, NACMEs, nearIR, NEB, NEB-TS, NL-DFT gradient (VV10), 2- and 3-layer-ONIOM, interface openCOSMO-RS, QMMM,   
  Crystal-QMMM, SF, symmetry and pop. for TD-DFT, r2SCAN hybrids, SOLVATOR                                   
                                                                         
[Other institutions]                                                     
  V. Asgeirsson          : NEB                                           
  Christoph Bannwarth    : sTDA-DFT, sTD-DFT, PBEh-3c, B97-3c, D3        
  Sebastian Ehlert       : rSCAN, r2SCAN, r2SCAN-3c, D4, dhf basis sets  
  Marvin Friede          : D4 for Fr, Ra, Ac-Lr                          
  Lars Goerigk           : TD-DFT with DH, B97 family of functionals     
  Stefan Grimme          : VdW corrections, initial TS optimization, DFT functionals, gCP, sTDA/sTD-DF 
  Waldemar Hujo          : DFT-NL                                        
  H. Jonsson             : NEB                                           
  Holger Kruse           : gCP                                           
  Marcel Mueller         : wB97X-3c, vDZP basis set                      
  Hagen Neugebauer       : wr2SCAN                                       
  Tobias Risthaus        : range-separated hybrid DFT                    
  Lukas Wittmann         : regularized MP2, r2SCAN double-hybrids, wr2SCAN        
                                                                         
We gratefully acknowledge several colleagues who have allowed us to      
interface, adapt or use parts of their codes:                            
  Ed Valeev, F. Pavosevic, A. Kumar             : LibInt (2-el integral package), F12 methods 
  Garnet Chan, S. Sharma, J. Yang, R. Olivares  : DMRG                   
  Ulf Ekstrom                                   : XCFun DFT Library      
  Mihaly Kallay                                 : mrcc  (arbitrary order and MRCC methods)
  Frank Weinhold                                : gennbo (NPA and NBO analysis)           
  Simon Mueller                                 : openCOSMO-RS                            
  Christopher J. Cramer and Donald G. Truhlar   : smd solvation model                     
  S Lehtola, MJT Oliveira, MAL Marques          : LibXC Library                           
  Liviu Ungur et al                             : ANISO software                          


 Your calculation uses the libint2 library for the computation of 2-el integrals
 For citations please refer to: http://libint.valeyev.net

 Your ORCA version has been built with support for libXC version: 6.2.2
 For citations please refer to: https://libxc.gitlab.io

 This ORCA versions uses:
   CBLAS   interface :  Fast vector & matrix operations
   LAPACKE interface :  Fast linear algebra routines
   SCALAPACK package :  Parallel linear algebra routines
   Shared memory     :  Shared parallel matrices
   BLAS/LAPACK       :  OpenBLAS 0.3.27  USE64BITINT DYNAMIC_ARCH NO_AFFINITY Zen SINGLE_THREADED
        Core in use  :  Zen
   Copyright (c) 2011-2014, The OpenBLAS Project




***************************************
The coordinates will be read from file: xtb_opt.xyz
***************************************


Your calculation utilizes the geometrical counterpoise correction gCP
Please cite in your paper:
H.Kruse, S. Grimme J.Chem.Phys., 136, (2012), 154101 
   

Your calculation utilizes the atom-pairwise dispersion correction
based on EEQ partial charges (D4)


Your calculation utilizes the SMD solvation module
Please cite in your paper:
A.V. Marenich, C.J. Cramer, D.G. Truhlar J. Phys. Chem. B, 113, (2009), 6378 

================================================================================

----- Orbital basis set information -----
Your calculation utilizes the basis: def2-mTZVPP
   Stefan Grimme, Andreas Hansen, Sebastian Ehlert, and Jan-Michael Mewes 
   J. Chem. Phys. 154, 064103 (2021). DOI: 10.1063/5.0040021

----- AuxJ basis set information -----
Your calculation utilizes the auxiliary basis: def2/J
   F. Weigend, Phys. Chem. Chem. Phys. 8, 1057 (2006).

================================================================================
                                        WARNINGS
                       Please study these warnings very carefully!
================================================================================

WARNING: Old DensityContainer found on disk!
         Will remove this file - 
         If you want to keep old densities, please start your calculation with a different basename. 



WARNING: SCAN, rSCAN, or r2SCAN functional requested.
  ===> : libXC variant has now been activated.



================================================================================
                                       INPUT FILE
================================================================================
NAME = xtb_opt.inp
|  1> ! r2scan-3c def2/J RI DEFGRID2 scfconv7 ENGRAD tightSCF miniprint
|  2> %cpcm
|  3>     smd true
|  4>     smdsolvent "water"
|  5> end
|  6> * xyzfile 0 1 xtb_opt.xyz
|  7> 
|  8>                          ****END OF INPUT****
================================================================================

                     *******************************
                     * Energy+Gradient Calculation *
                     *******************************

---------------------------------
CARTESIAN COORDINATES (ANGSTROEM)
---------------------------------
  C      4.465429   -4.514492   -1.044585
  C      3.364310   -3.659402   -1.615028
  O      3.209835   -2.503117   -0.725340
  C      2.289878   -1.599740   -1.085182
  O      1.574405   -1.708220   -2.065226
  C      2.298995   -0.414366   -0.153649
  C      0.971393    0.337901   -0.162156
  H      0.635236    0.457334   -1.201125
  C      1.138788    1.751858    0.377426
  O      2.040647    2.470684   -0.015930
  O      0.199869    2.109497    1.243963
  C      0.185361    3.509813    1.684636
  C     -0.526406    4.368908    0.667088
  S     -0.292634   -0.706068    0.692848
  P     -2.107966    0.068188   -0.088654
  S     -2.041396    0.716280   -1.918406
  O     -3.094507   -1.160165    0.254940
  C     -3.079426   -2.361575   -0.567788
  O     -2.675443    1.194511    0.901783
  C     -2.755833    0.980773    2.341687
  H      5.410438   -3.965065   -1.005447
  H      4.212853   -4.863793   -0.039235
  H      4.602677   -5.388924   -1.687822
  H      2.408038   -4.189128   -1.651767
  H      3.606538   -3.288783   -2.615312
  H      3.080350    0.261117   -0.524847
  H      2.594580   -0.720068    0.853612
  H     -0.353414    3.473823    2.633057
  H      1.214372    3.831722    1.860371
  H      0.007870    4.383234   -0.286878
  H     -1.545213    4.006707    0.501024
  H     -0.581780    5.394208    1.045859
  H     -3.768362   -3.054921   -0.085781
  H     -2.075253   -2.793738   -0.600318
  H     -3.425179   -2.123410   -1.576618
  H     -3.075046    1.935812    2.759187
  H     -1.775156    0.707449    2.739730
  H     -3.492534    0.205299    2.565304

----------------------------
CARTESIAN COORDINATES (A.U.)
----------------------------
  NO LB      ZA    FRAG     MASS         X           Y           Z
   0 C     6.0000    0    12.011    8.438438   -8.531153   -1.973979
   1 C     6.0000    0    12.011    6.357624   -6.915268   -3.051961
   2 O     8.0000    0    15.999    6.065709   -4.730206   -1.370693
   3 C     6.0000    0    12.011    4.327243   -3.023070   -2.050696
   4 O     8.0000    0    15.999    2.975193   -3.228067   -3.902711
   5 C     6.0000    0    12.011    4.344470   -0.783038   -0.290355
   6 C     6.0000    0    12.011    1.835667    0.638540   -0.306431
   7 H     1.0000    0     1.008    1.200421    0.864237   -2.269797
   8 C     6.0000    0    12.011    2.151997    3.310532    0.713231
   9 O     8.0000    0    15.999    3.856264    4.668916   -0.030104
  10 O     8.0000    0    15.999    0.377698    3.986371    2.350749
  11 C     6.0000    0    12.011    0.350281    6.632585    3.183501
  12 C     6.0000    0    12.011   -0.994763    8.256040    1.260613
  13 S    16.0000    0    32.060   -0.552998   -1.334275    1.309292
  14 P    15.0000    0    30.974   -3.983479    0.128856   -0.167531
  15 S    16.0000    0    32.060   -3.857680    1.353573   -3.625261
  16 O     8.0000    0    15.999   -5.847771   -2.192395    0.481766
  17 C     6.0000    0    12.011   -5.819272   -4.462731   -1.072965
  18 O     8.0000    0    15.999   -5.055855    2.257299    1.704123
  19 C     6.0000    0    12.011   -5.207770    1.853393    4.425147
  20 H     1.0000    0     1.008   10.224246   -7.492887   -1.900020
  21 H     1.0000    0     1.008    7.961138   -9.191237   -0.074143
  22 H     1.0000    0     1.008    8.697799  -10.183590   -3.189522
  23 H     1.0000    0     1.008    4.550533   -7.916305   -3.121388
  24 H     1.0000    0     1.008    6.815370   -6.214900   -4.942224
  25 H     1.0000    0     1.008    5.821018    0.493440   -0.991818
  26 H     1.0000    0     1.008    4.903046   -1.360731    1.613093
  27 H     1.0000    0     1.008   -0.667856    6.564574    4.975756
  28 H     1.0000    0     1.008    2.294831    7.240905    3.515592
  29 H     1.0000    0     1.008    0.014871    8.283112   -0.542120
  30 H     1.0000    0     1.008   -2.920029    7.571579    0.946798
  31 H     1.0000    0     1.008   -1.099405   10.193577    1.976386
  32 H     1.0000    0     1.008   -7.121172   -5.772965   -0.162103
  33 H     1.0000    0     1.008   -3.921660   -5.279400   -1.134437
  34 H     1.0000    0     1.008   -6.472650   -4.012663   -2.979376
  35 H     1.0000    0     1.008   -5.810995    3.658155    5.214109
  36 H     1.0000    0     1.008   -3.354559    1.336884    5.177339
  37 H     1.0000    0     1.008   -6.599934    0.387960    4.847722

------------------------------------------------------------------------------
                   ___                                                        
                  /   \      - P O W E R E D   B Y -                         
                 /     \                                                     
                 |  |  |   _    _      __       _____    __    __             
                 |  |  |  | |  | |    /  \     |  _  \  |  |  /  |          
                  \  \/   | |  | |   /    \    | | | |  |  | /  /          
                 / \  \   | |__| |  /  /\  \   | |_| |  |  |/  /          
                |  |  |   |  __  | /  /__\  \  |    /   |      \           
                |  |  |   | |  | | |   __   |  |    \   |  |\   \          
                \     /   | |  | | |  |  |  |  | |\  \  |  | \   \       
                 \___/    |_|  |_| |__|  |__|  |_| \__\ |__|  \__/        
                                                                              
                      - O R C A' S   B I G   F R I E N D -                    
                                      &                                       
                       - I N T E G R A L  F E E D E R -                       
                                                                              
 v1 FN, 2020, v2 2021, v3 2022-2024                                           
------------------------------------------------------------------------------


----------------------
SHARK INTEGRAL PACKAGE
----------------------

Number of atoms                             ...     38
Number of basis functions                   ...    510
Number of shells                            ...    240
Maximum angular momentum                    ...      2
Integral batch strategy                     ... SHARK/LIBINT Hybrid
RI-J (if used) integral strategy            ... SPLIT-RIJ (Revised 2003 algorithm where possible)
Printlevel                                  ...      1
Contraction scheme used                     ... SEGMENTED contraction
Prescreening option                         ... SCHWARTZ
   Thresh                                   ... 3.000e-11
   Tcut                                     ... 1.000e-12
   Tpresel                                  ... 1.000e-12 
Coulomb Range Separation                    ... NOT USED
Exchange Range Separation                   ... NOT USED
Multipole approximations                    ... NOT USED
Finite Nucleus Model                        ... NOT USED
CABS basis                                  ... NOT available
Auxiliary Coulomb fitting basis             ... AVAILABLE
   # of basis functions in Aux-J            ...   1146
   # of shells in Aux-J                     ...    386
   Maximum angular momentum in Aux-J        ...      4
Auxiliary J/K fitting basis                 ... NOT available
Auxiliary Correlation fitting basis         ... NOT available
Auxiliary 'external' fitting basis          ... NOT available

Checking pre-screening integrals            ... done (  0.0 sec) Dimension = 240
Check shell pair data                       ... done (  0.0 sec)
Shell pair information
Shell pair cut-off parameter TPreSel        ...   1.0e-12
Total number of shell pairs                 ...     28920
Shell pairs after pre-screening             ...     19727
Total number of primitive shell pairs       ...    108409
Primitive shell pairs kept                  ...     45776
          la=0 lb=0:   5638 shell pairs
          la=1 lb=0:   7156 shell pairs
          la=1 lb=1:   2288 shell pairs
          la=2 lb=0:   2639 shell pairs
          la=2 lb=1:   1674 shell pairs
          la=2 lb=2:    332 shell pairs

Calculating one electron integrals          ... done (  0.1 sec)
Calculating RI/J V-Matrix + Cholesky decomp.... done (  0.1 sec)
Calculating Nuclear repulsion               ... done (  0.0 sec) ENN=   2098.745916172305 Eh

Diagonalization of the overlap matrix:
Smallest eigenvalue                        ... 5.612e-05
Time for diagonalization                   ...    0.036 sec
Threshold for overlap eigenvalues          ... 1.000e-07
Number of eigenvalues below threshold      ... 0
Time for construction of square roots      ...    0.018 sec
Total time needed                          ...    0.055 sec

-------------------
DFT GRID GENERATION
-------------------

General Integration Accuracy     IntAcc      ... 4.388
Radial Grid Type                 RadialGrid  ... OptM3 with GC (2021)
Angular Grid (max. ang.)         AngularGrid ... 4 (Lebedev-302)
Angular grid pruning method      GridPruning ... 4 (adaptive)
Weight generation scheme         WeightScheme... mBecke (2022)
Basis function cutoff            BFCut       ... 1.0000e-11
Integration weight cutoff        WCut        ... 1.0000e-14
Partially contracted basis set               ... off
Rotationally invariant grid construction     ... off
Angular grids for H and He will be reduced by one unit
Diffuse basis detected: some atoms will have their outermost
                        angular grid increased by 1.

Total number of grid points                  ...   180544
Total number of batches                      ...     2839
Average number of points per batch           ...       63
Average number of grid points per atom       ...     4751
Initializing property integral containers    ... done (  0.0 sec)

SHARK setup successfully completed in   2.8 seconds

Maximum memory used throughout the entire STARTUP-calculation: 97.9 MB
Occupation numbers will be reassigned to an Aufbau configuration
             **** ENERGY FILE WAS UPDATED (xtb_opt.en.tmp) ****
Finished Guess after   0.2 sec
Maximum memory used throughout the entire GUESS-calculation: 53.8 MB
--------------------
CPCM SOLVATION MODEL
--------------------
CPCM parameters:
  Epsilon                                         ...      78.3550
  Refrac                                          ...       1.3328
  Rsolv                                           ...       1.3000
  Surface type                                    ... GAUSSIAN VDW
  Discretization scheme                           ... Constant charge density
    Threshold for H atoms                         ...       5.0000 (charges/Ang^2)
    Threshold for non-H atoms                     ...       5.0000 (charges/Ang^2)
  Epsilon function type                           ...         CPCM
Solvent:                                          ... WATER
SMD-CDS solvent descriptors:
  Soln                                            ...       1.3328
  Soln25                                          ...       1.3323
  Sola                                            ...       0.0000
  Solb                                            ...       0.0000
  Solg                                            ...       0.0000
  Solc                                            ...       0.0000
  Solh                                            ...       0.0000
Radii:
  Scheme                                          ... Element-dependent radii
  Radius for C  used is    3.4960 Bohr (=   1.8500 Ang.)
  Radius for O  used is    2.8724 Bohr (=   1.5200 Ang.)
  Radius for H  used is    2.2677 Bohr (=   1.2000 Ang.)
  Radius for S  used is    4.7054 Bohr (=   2.4900 Ang.)
  Radius for P  used is    4.0062 Bohr (=   2.1200 Ang.)
Calculating surface                               ...        done! (  0.0s)
Cavity surface points                             ...         3031
Cavity Volume                                     ...    2269.6602
Cavity Surface-area                               ...    1275.3074
Calculating surface distance matrix               ...        done! (  0.1s)
Performing Cholesky decomposition & store         ...        done! (  0.3s)
Overall time for CPCM initialization              ...                 0.4s

----------------------------------------D-I-I-S--------------------------------------------
Iteration    Energy (Eh)           Delta-E    RMSDP     MaxDP     DIISErr   Damp  Time(sec)
-------------------------------------------------------------------------------------------
               ***  Starting incremental Fock matrix formation  ***
                              *** Initializing SOSCF ***
---------------------------------------S-O-S-C-F--------------------------------------
Iteration    Energy (Eh)           Delta-E    RMSDP     MaxDP     MaxGrad    Time(sec)
--------------------------------------------------------------------------------------
    1    -1981.5155286515796433     0.00e+00  1.51e-06  7.00e-05  1.13e-05    11.6
               *** Restarting incremental Fock matrix formation ***
    2    -1981.5155286365252323     1.51e-08  2.62e-06  1.18e-04  2.68e-05    11.6
    3    -1981.5155283675690043     2.69e-07  1.95e-06  9.79e-05  7.71e-05     7.7
    4    -1981.5155287020693322    -3.35e-07  7.14e-07  3.37e-05  6.78e-06     7.6
                  *** Gradient check signals convergence ***

               *****************************************************
               *                     SUCCESS                       *
               *           SCF CONVERGED AFTER   4 CYCLES          *
               *****************************************************


SMD CDS free energy correction energy :                10.03543     Kcal/mol
Total Energy after SMD CDS correction =             -1981.499536234 Eh
             **** ENERGY FILE WAS UPDATED (xtb_opt.en.tmp) ****

----------------
TOTAL SCF ENERGY
----------------

Total Energy       :      -1981.49953623445231 Eh          -53919.34359 eV

Components:
Nuclear Repulsion  :       2098.74591617230544 Eh           57109.77978 eV
Electronic Energy  :      -4080.22073588462263 Eh         -111028.45080 eV
One Electron Energy:      -6904.43246811657536 Eh         -187879.15905 eV
Two Electron Energy:       2824.21173223195274 Eh           76850.70825 eV
CPCM Dielectric    :         -0.04070898975209 Eh              -1.10775 eV
SMD CDS (Gcds)     :          0.01599246761703 Eh               0.43518 eV

Virial components:
Potential Energy   :      -3956.11403683250865 Eh         -107651.33583 eV
Kinetic Energy     :       1974.61450059805634 Eh           53731.99224 eV
Virial Ratio       :          2.00348677457514

DFT components:
N(Alpha)           :       87.000021580874 electrons
N(Beta)            :       87.000021580874 electrons
N(Total)           :      174.000043161747 electrons
E(X)               :     -181.292878418144 Eh       
E(C)               :       -5.957998124112 Eh       
E(XC)              :     -187.250876542256 Eh       

CPCM Solvation Model Properties:
Surface-charge          :         -0.05125344531093
Corrected charge        :          0.00000000000000
Outlying charge corr.   :          0.00014001992569 Eh               0.00381 eV
Free-energy (cav+disp)  :          0.01599246761703 Eh               0.43518 eV

---------------
SCF CONVERGENCE
---------------

  Last Energy change         ...    3.3450e-07  Tolerance :   1.0000e-07
  Last MAX-Density change    ...    3.3684e-05  Tolerance :   1.0000e-07
  Last RMS-Density change    ...    7.1380e-07  Tolerance :   5.0000e-09
  Last DIIS Error            ...    8.5404e-05  Tolerance :   1.0000e-07
  Last Orbital Gradient      ...    6.7825e-06  Tolerance :   1.0000e-04
  Last Orbital Rotation      ...    2.4000e-05  Tolerance :   1.0000e-04


----------------
ORBITAL ENERGIES
----------------

  NO   OCC          E(Eh)            E(eV) 
   0   2.0000     -88.582403     -2410.4497 
   1   2.0000     -88.534520     -2409.1468 
   2   2.0000     -76.923858     -2093.2046 
   3   2.0000     -19.012541      -517.3575 
   4   2.0000     -19.007424      -517.2183 
   5   2.0000     -18.999962      -517.0153 
   6   2.0000     -18.998851      -516.9850 
   7   2.0000     -18.955113      -515.7949 
   8   2.0000     -18.952527      -515.7245 
   9   2.0000     -10.179832      -277.0073 
  10   2.0000     -10.174136      -276.8523 
  11   2.0000     -10.101926      -274.8874 
  12   2.0000     -10.090004      -274.5630 
  13   2.0000     -10.087542      -274.4960 
  14   2.0000     -10.086503      -274.4677 
  15   2.0000     -10.085325      -274.4356 
  16   2.0000     -10.062418      -273.8123 
  17   2.0000     -10.022711      -272.7318 
  18   2.0000     -10.021826      -272.7078 
  19   2.0000      -7.876032      -214.3177 
  20   2.0000      -7.829770      -213.0589 
  21   2.0000      -6.601629      -179.6395 
  22   2.0000      -5.822953      -158.4506 
  23   2.0000      -5.819842      -158.3659 
  24   2.0000      -5.813273      -158.1872 
  25   2.0000      -5.777284      -157.2079 
  26   2.0000      -5.770072      -157.0116 
  27   2.0000      -5.769786      -157.0039 
  28   2.0000      -4.747272      -129.1798 
  29   2.0000      -4.746543      -129.1600 
  30   2.0000      -4.745416      -129.1293 
  31   2.0000      -1.083395       -29.4807 
  32   2.0000      -1.076873       -29.3032 
  33   2.0000      -1.046128       -28.4666 
  34   2.0000      -1.005496       -27.3609 
  35   2.0000      -0.996898       -27.1270 
  36   2.0000      -0.991764       -26.9873 
  37   2.0000      -0.809930       -22.0393 
  38   2.0000      -0.752045       -20.4642 
  39   2.0000      -0.740751       -20.1569 
  40   2.0000      -0.732448       -19.9309 
  41   2.0000      -0.695013       -18.9123 
  42   2.0000      -0.672061       -18.2877 
  43   2.0000      -0.661575       -18.0024 
  44   2.0000      -0.653141       -17.7729 
  45   2.0000      -0.619091       -16.8463 
  46   2.0000      -0.588239       -16.0068 
  47   2.0000      -0.541992       -14.7483 
  48   2.0000      -0.536315       -14.5939 
  49   2.0000      -0.523299       -14.2397 
  50   2.0000      -0.499472       -13.5913 
  51   2.0000      -0.489445       -13.3185 
  52   2.0000      -0.485903       -13.2221 
  53   2.0000      -0.464635       -12.6434 
  54   2.0000      -0.461450       -12.5567 
  55   2.0000      -0.457539       -12.4503 
  56   2.0000      -0.447603       -12.1799 
  57   2.0000      -0.446278       -12.1438 
  58   2.0000      -0.436031       -11.8650 
  59   2.0000      -0.426728       -11.6119 
  60   2.0000      -0.424855       -11.5609 
  61   2.0000      -0.410653       -11.1744 
  62   2.0000      -0.407430       -11.0867 
  63   2.0000      -0.404335       -11.0025 
  64   2.0000      -0.385147       -10.4804 
  65   2.0000      -0.381874       -10.3913 
  66   2.0000      -0.370720       -10.0878 
  67   2.0000      -0.365821        -9.9545 
  68   2.0000      -0.355327        -9.6690 
  69   2.0000      -0.353391        -9.6163 
  70   2.0000      -0.352765        -9.5992 
  71   2.0000      -0.338766        -9.2183 
  72   2.0000      -0.333268        -9.0687 
  73   2.0000      -0.326832        -8.8935 
  74   2.0000      -0.324989        -8.8434 
  75   2.0000      -0.323398        -8.8001 
  76   2.0000      -0.316178        -8.6036 
  77   2.0000      -0.310288        -8.4434 
  78   2.0000      -0.289891        -7.8883 
  79   2.0000      -0.286401        -7.7934 
  80   2.0000      -0.283973        -7.7273 
  81   2.0000      -0.281650        -7.6641 
  82   2.0000      -0.275712        -7.5025 
  83   2.0000      -0.261227        -7.1083 
  84   2.0000      -0.245536        -6.6814 
  85   2.0000      -0.235463        -6.4073 
  86   2.0000      -0.227434        -6.1888 
  87   0.0000      -0.050745        -1.3808 
  88   0.0000      -0.036499        -0.9932 
  89   0.0000      -0.027086        -0.7371 
  90   0.0000      -0.005740        -0.1562 
  91   0.0000       0.003493         0.0951 
  92   0.0000       0.024580         0.6689 
  93   0.0000       0.049737         1.3534 
  94   0.0000       0.060766         1.6535 
  95   0.0000       0.075168         2.0454 
  96   0.0000       0.079591         2.1658 
  97   0.0000       0.088631         2.4118 
*Only the first 10 virtual orbitals were printed.
Total SCF time: 0 days 0 hours 0 min 40 sec 
Finished LeanSCF after  46.4 sec

Maximum memory used throughout the entire LEANSCF-calculation: 116.3 MB


-------------------------------------------------------------------------------
                          DFT DISPERSION CORRECTION                            
                                                                               
                                DFTD4 V3.4.0                                   
-------------------------------------------------------------------------------
-------------------------   ----------------
Dispersion correction           -0.016565266
-------------------------   ----------------

------------------   -----------------
gCP correction             0.035798584
------------------   -----------------

-------------------------   --------------------
FINAL SINGLE POINT ENERGY     -1981.480302915749
-------------------------   --------------------

------------------------------------------------------------------------------
                         ORCA SCF GRADIENT CALCULATION
------------------------------------------------------------------------------

Nuc. rep. gradient        (SHARK) ... done (  0.0 sec)
HCore & Overlap gradient  (SHARK) ... done (  1.9 sec)
Split-RIJ-J gradient      (SHARK) ... done (  9.5 sec)
XC gradient                       ... done ( 21.2 sec)
CPCM gradient                     ... done ( 10.6 sec)
SMD gradient                      ... done (  0.0 sec)
Dispersion correction             ... done (  0.0 sec)

-------------------
DISPERSION GRADIENT
-------------------

   1   C   :    0.000056729   -0.000071983    0.000002981
   2   C   :    0.000038497   -0.000072552   -0.000041959
   3   O   :    0.000066440   -0.000053243   -0.000012462
   4   C   :    0.000090370   -0.000048971   -0.000046947
   5   O   :    0.000057329   -0.000048342   -0.000116387
   6   C   :    0.000109619    0.000005509    0.000017522
   7   C   :    0.000097501   -0.000005661   -0.000020728
   8   H   :    0.000029050    0.000001725   -0.000040939
   9   C   :    0.000129055    0.000088359    0.000025477
  10   O   :    0.000129048    0.000094802   -0.000014419
  11   O   :    0.000057005    0.000096804    0.000074909
  12   C   :    0.000054534    0.000145332    0.000070706
  13   C   :    0.000002357    0.000174339    0.000006403
  14   S   :   -0.000004424   -0.000137110    0.000110838
  15   P   :   -0.000246117   -0.000083644   -0.000052233
  16   S   :   -0.000206866    0.000042146   -0.000306675
  17   O   :   -0.000089224   -0.000069136   -0.000002529
  18   C   :   -0.000081250   -0.000107421   -0.000033035
  19   O   :   -0.000129902    0.000013299    0.000049692
  20   C   :   -0.000111589   -0.000007997    0.000131332
  21   H   :    0.000024646   -0.000020670    0.000001739
  22   H   :    0.000018989   -0.000028560    0.000007524
  23   H   :    0.000012401   -0.000021549   -0.000002133
  24   H   :    0.000012729   -0.000034289   -0.000014796
  25   H   :    0.000013087   -0.000019966   -0.000018790
  26   H   :    0.000048995    0.000017132   -0.000006972
  27   H   :    0.000041443   -0.000009587    0.000031719
  28   H   :    0.000014531    0.000053530    0.000040629
  29   H   :    0.000017268    0.000040451    0.000020631
  30   H   :    0.000006736    0.000068277   -0.000006874
  31   H   :   -0.000010955    0.000084731    0.000001301
  32   H   :   -0.000005064    0.000046097    0.000002055
  33   H   :   -0.000031135   -0.000047171   -0.000002306
  34   H   :   -0.000042840   -0.000058261   -0.000003163
  35   H   :   -0.000036197   -0.000035153   -0.000021057
  36   H   :   -0.000053628    0.000012087    0.000053426
  37   H   :   -0.000038229   -0.000008448    0.000068272
  38   H   :   -0.000040939    0.000005093    0.000047248

Difference to translation invariance:
           :   -0.0000000000    0.0000000000    0.0000000000

Difference to rotation invariance:
           :   -0.0000000000    0.0000000000    0.0000000000

Norm of the Dispersion gradient    ...    0.0007686208
RMS gradient                       ...    0.0000719879
MAX gradient                       ...    0.0003066749
gCP correction                   ... done

------------------
CARTESIAN GRADIENT
------------------

   1   C   :   -0.000033953    0.000046642   -0.000054082
   2   C   :    0.000009868    0.000039414    0.000054405
   3   O   :   -0.000014820    0.000014139    0.000026819
   4   C   :    0.000096466    0.000055288   -0.000039501
   5   O   :   -0.000067466   -0.000022731    0.000011705
   6   C   :   -0.000101034   -0.000063390    0.000033193
   7   C   :   -0.000121254   -0.000015448   -0.000002657
   8   H   :    0.000010781    0.000050624   -0.000024499
   9   C   :    0.000030153   -0.000021423   -0.000188717
  10   O   :    0.000142211    0.000070152    0.000012352
  11   O   :   -0.000187543   -0.000028618    0.000137728
  12   C   :    0.000007504    0.000040017    0.000001065
  13   C   :    0.000025398   -0.000001851   -0.000010328
  14   S   :    0.000013878   -0.000209844    0.000271352
  15   P   :    0.000100637   -0.000033374   -0.000052344
  16   S   :   -0.000107827    0.000071364   -0.000146665
  17   O   :    0.000124525    0.000207483    0.000032496
  18   C   :   -0.000052658    0.000048090    0.000053162
  19   O   :    0.000017049   -0.000027571   -0.000053384
  20   C   :    0.000015679    0.000055804   -0.000096164
  21   H   :    0.000080567    0.000090881   -0.000026242
  22   H   :   -0.000044203   -0.000029737    0.000133577
  23   H   :    0.000021289   -0.000120659   -0.000113918
  24   H   :    0.000002258   -0.000036467   -0.000011546
  25   H   :    0.000026449    0.000018019   -0.000073586
  26   H   :    0.000032846    0.000003393   -0.000003360
  27   H   :    0.000001029   -0.000026071    0.000053655
  28   H   :   -0.000013591    0.000006990    0.000015291
  29   H   :    0.000002985    0.000012503   -0.000009130
  30   H   :    0.000011910   -0.000012350   -0.000017018
  31   H   :   -0.000016165   -0.000009561   -0.000024551
  32   H   :   -0.000002904    0.000028712   -0.000016410
  33   H   :   -0.000013148   -0.000041343   -0.000031870
  34   H   :    0.000085649   -0.000068201   -0.000011933
  35   H   :   -0.000037989   -0.000026475   -0.000042921
  36   H   :   -0.000016042    0.000061187    0.000100312
  37   H   :    0.000100477   -0.000009988    0.000027245
  38   H   :   -0.000129012   -0.000115603    0.000086468

Difference to translation invariance:
           :    0.0000000001   -0.0000000000   -0.0000000000

Difference to rotation invariance:
           :    0.0001102102    0.0002780387    0.0004219574

Norm of the Cartesian gradient     ...    0.0007745825
RMS gradient                       ...    0.0000725463
MAX gradient                       ...    0.0002713521

-------
TIMINGS
-------

Total SCF gradient time     ....       43.201 sec

Densities                   ....       0.005 sec  (  0.0%)
One electron gradient       ....       1.872 sec  (  4.3%)
RI-J Coulomb gradient       ....       9.494 sec  ( 22.0%)
XC gradient                 ....      21.227 sec  ( 49.1%)
CPCM gradient               ....      10.557 sec  ( 24.4%)
   A-Matrix (El+Nuc)        ....       0.309 sec  (  0.7%)
   Potential                ....      10.248 sec  ( 23.7%)
SMD gradient                ....       0.003 sec  (  0.0%)

Maximum memory used throughout the entire SCFGRAD-calculation: 81.6 MB

------------------------------------------------------------------------------
                              ORCA PROPERTY CALCULATIONS
------------------------------------------------------------------------------

GBWName                                 ... xtb_opt.gbw
Number of atoms                         ...     38
Number of basis functions               ...    510
Max core memory                         ...   1024 MB

Electric properties:
Dipole moment                           ... YES
Quadrupole moment                       ...  NO
Static polarizability (Dipole/Dipole)   ...  NO
Static polarizability (Dipole/Quad.)    ...  NO
Static polarizability (Quad./Quad.)     ...  NO
Static polarizability (Velocity)        ...  NO

Atomic electric properties:
Dipole moment                           ...  NO
Quadrupole moment                       ...  NO
Static polarizability                   ...  NO

Choice of electric origin               ... Center of mass
Position of electric origin             ...    -0.068538    -0.092146    -0.225973

General magnetic properties:
Magnetizability                         ...  NO

EPR properties:
g-Tensor (aka g-matrix)                 ...  NO
Zero-Field splitting spin-orbit         ...  NO
Zero-field splitting spin-spin          ...  NO
Hyperfine couplings                     ...  NO (   0 nuclei)
Quadrupole couplings                    ...  NO (   0 nuclei)
Contact density                         ...  NO (   0 nuclei)

NMR properties:
Chemical shifts                         ...  NO (   0 nuclei)
Spin-rotation constants                 ...  NO (   0 nuclei)
Spin-spin couplings                     ...  NO (   0 nuclei,    0 pairs)

Choice of magnetic origin               ... GIAO
Position of magnetic origin             ...     0.000000     0.000000     0.000000

Properties with geometric perturbations:
SCF Hessian                             ...  NO
IR spectrum                             ...  NO
VCD spectrum                            ...  NO
X-ray spectroscopy properties:
SCF XES/XAS/RIXS spectra                ...  NO


-------------
DIPOLE MOMENT
-------------

Method             : SCF
Type of density    : Electron Density
Multiplicity       :   1
Irrep              :   0
Energy             : -1981.4995362344523073 Eh
Relativity type    : 
Basis              : AO
                                X                 Y                 Z
Electronic contribution:     -9.427747636       3.305794805      -2.983886214
Nuclear contribution   :      9.790940599      -4.604936762       5.592382844
                        -----------------------------------------
Total Dipole Moment    :      0.363192963      -1.299141958       2.608496630
                        -----------------------------------------
Magnitude (a.u.)       :      2.936653473
Magnitude (Debye)      :      7.464379925



--------------------
Rotational spectrum 
--------------------
 
Rotational constants in cm-1:             0.012279             0.006355             0.004929 
Rotational constants in MHz :           368.100522           190.518396           147.769364 

Dipole components along the rotational axes: 
x,y,z [a.u.] :     0.441855    -0.115655    -2.900917 
x,y,z [Debye]:     1.123107    -0.293972    -7.373546 

 

Dipole moment calculation done in   3.3 sec 

Maximum memory used throughout the entire PROP-calculation: 50.5 MB

--------------------------------
SUGGESTED CITATIONS FOR THIS RUN
--------------------------------

Below you find a list of papers that are relevant to this ORCA run
We neither can nor want to force you to cite these papers, but we appreciate if you do
You receive ORCA, which is the product of decades of hard work by many enthusiastic individuals, for free
The only thing we kindly ask in return is that you cite our papers,
We deeply appreciate it, if you show your appreciation for ORCA by not just citing the generic ORCA reference.

Please note that relegating all ORCA citations to the supporting information does *not* help us.
SI sections are not indexed - citations you put there will not count into any citation statistics
But we need these citations in order to attract the funding resources that allow us to do what we are doing

Therefore, if you are a happy ORCA user, please consider citing a few of the papers listed below in the main body of your paper

In addition to the list printed below, the program has created the file xtb_opt.bibtex that contains the list in bibtex format
You can import this file easily into all common literature databanks and citation aid programs


List of essential papers. We consider these as the minimum necessary citations

  1. Neese,F.
     Software update: the ORCA program system, version 5.0
     WIRES Comput. Molec. Sci., 2022 12(1)e1606
     doi.org/10.1002/wcms.1606
  2. Grimme,S.; Hansen,A.; Ehlert,S.; Mewes,J.
     r2SCAN-3c: A 'Swiss army knife' composite electronic-structure method
     J. Chem. Phys., 2021 154 064103
     doi.org/10.1063/5.0040021

List of papers to cite with high priority. The work reported in these papers was absolutely
necessary for this run to complete.
Our perspective: the developers of density functionals and basis sets usually get cited in chemistry papers
Good! But without the algorithms to do something with them, the functionals or basis sets would not do anything.
Hence, in our opinion, the algorithm design and method developments papers are equally worthy of getting cited

  1. Neese,F.
     An improvement of the resolution of the identity approximation for the formation of the Coulomb matrix
     J. Comp. Chem., 2003 24(14)1740-1747
     doi.org/10.1002/jcc.10318
  2. Garcia-Rates,M.; Neese,F.
     Effect of the Solute Cavity on the Solvation Energy and its Derivatives within the Framework of the Gaussian Charge Scheme
     J. Comput. Chem., 2020 41 922-939
     doi.org/10.1002/jcc.26139
  3. Neese,F.
     The SHARK Integral Generation and Digestion System
     J. Comp. Chem., 2022  1-16
     doi.org/10.1002/jcc.26942
  4. Lehtola,S.; Steigemann,C.; Oliveira,M.; Marques,M.
     Recent developments in Libxc - A comprehensive library of functionals for density functional theory
     Software X, 2018 7 
     doi.org/10.1016/j.softx.2017.11.002
  5. Caldeweyher,E.; Bannwarth,C.; Grimme,S.
     Extension of the D3 dispersion coefficient model
     J. Chem. Phys., 2017 147 034112
     doi.org/10.1063/1.4993215
  6. Caldeweyher,E.; Ehlert,S.; Hansen,A.; Neugebauer,H.; Spicher,S.; Bannwarth,C.; Grimme,S.
     A generally applicable atomic-charge dependent London dispersion correction
     J. Chem. Phys., 2019 150 154122
     doi.org/10.1063/1.5090222
  7. Caldeweyher,E.; Mewes,J.; Ehlert,S.; Grimme,S.
     Extension and evaluation of the D4 London-dispersion model for periodic systems
     Phys. Chem. Chem. Phys., 2020 22(16)8499-8512
     doi.org/10.1039/D0CP00502A
  8. Wittmann,L.; Gordiy,I.; Friede,M.; Helmich-Paris,B.; Grimme,S.; Hansen,A.; Bursch,M.
     Extension of the D3 and D4 London Dispersion Corrections to the full Actinides Series
     Phys. Chem. Chem. Phys., 2024 26(32)21379-21394
     doi.org/https://doi.org/10.1039/D4CP01514B 

List of suggested additional citations. These are papers that are important in the 'surrounding' of 
of this run, or papers that preceded the highly important papers. If you like your results we are grateful for a citation.

  1. Neese,F.
     The ORCA program system
     WIRES Comput. Molec. Sci., 2012 2(1)73-78
     doi.org/10.1002/wcms.81
  2. Neese,F.
     Software update: the ORCA program system, version 4.0
     WIRES Comput. Molec. Sci., 2018 8(1)1-6
     doi.org/10.1002/wcms.1327
  3. Neese,F.; Wennmohs,F.; Becker,U.; Riplinger,C.
     The ORCA quantum chemistry program package
     J. Chem. Phys., 2020 152 Art. No. L224108
     doi.org/10.1063/5.0004608

List of optional additional citations

  1. Neese,F.
     Approximate second-order SCF convergence for spin unrestricted wavefunctions
     Chem. Phys. Lett., 2000 325(1-3)93-98
     doi.org/10.1016/s0009-2614(00)00662-x

Timings for individual modules:

Sum of individual times          ...       97.496 sec (=   1.625 min)
Startup calculation              ...        2.805 sec (=   0.047 min)   2.9 %
SCF iterations                   ...       46.701 sec (=   0.778 min)  47.9 %
Property calculations            ...        3.388 sec (=   0.056 min)   3.5 %
SCF Gradient evaluation          ...       44.601 sec (=   0.743 min)  45.7 %
                             ****ORCA TERMINATED NORMALLY****
TOTAL RUN TIME: 0 days 0 hours 1 minutes 43 seconds 397 msec
  ------------------------------------------------------------------------
          * successful ORCA run, taking over control again...

         :::::::::::::::::::::::::::::::::::::::::::::::::::::
         ::                  ORCA SUMMARY                   ::
         :::::::::::::::::::::::::::::::::::::::::::::::::::::
         :: total energy           -1981.480302915749 Eh    ::
         :: gradient norm              0.000774582468 Eh/a0 ::
         :: HOMO-LUMO gap              0.000000000000 eV    ::
         :::::::::::::::::::::::::::::::::::::::::::::::::::::

      ----------------------------------------------------------- 
     |                       L-ANC optimizer                     |
      ----------------------------------------------------------- 
          low memory version by Sebastian Ehlert

          ...................................................
          :                      SETUP                      :
          :.................................................:
          :   energy convergence        0.5000000E-05 Eh    :
          :   grad. convergence         0.1000000E-02 Eh/a0 :
          :   optimization log               true           :
          :   writing optlog all                1     steps :
          :   Hessian reset                     8     steps :
          :   maximium step len.        1.0000000     a0    :
          :   LBFGS images                      8           :
          ...................................................
 * calculating model hessian...
Using Lindh-Hessian (1995)
 Shifting diagonal of input Hessian by   1.001097480708268E-002
 Lowest  eigenvalues of input Hessian
    0.010000    0.000000    0.000000    0.000000    0.000000    0.000000
    0.000000    0.010282    0.010526    0.010836    0.011048    0.011527
    0.012108    0.012283    0.012654    0.013544    0.014292    0.014924
 Highest eigenvalues
    1.727148    1.731853    1.748076    1.882229    2.293151    2.299542
 

........................................................................
.............................. CYCLE    1 ..............................
........................................................................
                         * ORCA takes the control...
  ------------------------------------------------------------------------

                                 *****************
                                 * O   R   C   A *
                                 *****************

                                            #,                                       
                                            ###                                      
                                            ####                                     
                                            #####                                    
                                            ######                                   
                                           ########,                                 
                                     ,,################,,,,,                         
                               ,,#################################,,                 
                          ,,##########################################,,             
                       ,#########################################, ''#####,          
                    ,#############################################,,   '####,        
                  ,##################################################,,,,####,       
                ,###########''''           ''''###############################       
              ,#####''   ,,,,##########,,,,          '''####'''          '####       
            ,##' ,,,,###########################,,,                        '##       
           ' ,,###''''                  '''############,,,                           
         ,,##''                                '''############,,,,        ,,,,,,###''
      ,#''                                            '''#######################'''  
     '                                                          ''''####''''         
             ,#######,   #######,   ,#######,      ##                                
            ,#'     '#,  ##    ##  ,#'     '#,    #''#        ,####,   ,####,        
            ##       ##  ##   ,#'  ##            #'  '#       #'       #'  '#        
            ##       ##  #######   ##           ,######,      #####,   #    #        
            '#,     ,#'  ##    ##  '#,     ,#' ,#      #,     #,   #   #,  ,#        
             '#######'   ##     ##  '#######'  #'      '#     '####' # '####'        



                #########################################################
                #                        -***-                          #
                #          Department of theory and spectroscopy        #
                #                                                       #
                #                      Frank Neese                      #
                #                                                       #
                #     Directorship, Architecture, Infrastructure        #
                #                    SHARK, DRIVERS                     #
                #        Core code/Algorithms in most modules           #
                #                                                       #
                #        Max Planck Institute fuer Kohlenforschung      #
                #                Kaiser Wilhelm Platz 1                 #
                #                 D-45470 Muelheim/Ruhr                 #
                #                      Germany                          #
                #                                                       #
                #                  All rights reserved                  #
                #                        -***-                          #
                #########################################################


                         Program Version 6.0.1  -  RELEASE   -


 With contributions from (in alphabetic order):
[Max-Planck-Institut fuer Kohlenforschung]                               
  Daniel Aravena         : Magnetic Suceptibility                        
  Michael Atanasov       : Ab Initio Ligand Field Theory (pilot matlab implementation)
  Alexander A. Auer      : GIAO ZORA, VPT2 properties, NMR spectrum      
  Ute Becker             : All parallelization in ORCA, NUMFREQ, NUMCALC 
  Giovanni Bistoni       : ED, misc. LED, open-shell LED, HFLD           
  Martin Brehm           : Molecular dynamics                            
  Dmytro Bykov           : pre 5.0 version of the SCF Hessian            
  Marcos Casanova-Páez   : Triplet and SCS-CIS(D). UHF-(DLPNO)-IP/EA/STEOM-CCSD. UHF-CVS-IP/STEOM-CCSD   
  Vijay G. Chilkuri      : MRCI spin determinant printing, contributions to CSF-ICE 
  Pauline Colinet        : FMM embedding                                 
  Dipayan Datta          : RHF DLPNO-CCSD density                        
  Achintya Kumar Dutta   : EOM-CC, STEOM-CC                              
  Nicolas Foglia         : Exact transition moments, OPA infrastructure, MCD improvements    
  Dmitry Ganyushin       : Spin-Orbit,Spin-Spin,Magnetic field MRCI      
  Miquel Garcia-Rates    : C-PCM and meta-GGA Hessian, CCSD/C-PCM, Gaussian charge scheme 
  Tiago L. C. Gouveia    : GS-ROHF, GS-ROCIS                             
  Yang Guo               : DLPNO-NEVPT2, F12-NEVPT2, CIM, IAO-localization        
  Andreas Hansen         : Spin unrestricted coupled pair/coupled cluster methods 
  Ingolf Harden          : AUTO-CI MPn and infrastructure                
  Benjamin Helmich-Paris : MC-RPA, TRAH-(SCF,CASSCF), AVAS, COSX integrals, SCF dyn. polar. 
  Lee Huntington         : MR-EOM, pCC                                   
  Robert Izsak           : Overlap fitted RIJCOSX, COSX-SCS-MP3, EOM     
  Riya Kayal             : Wick's Theorem for AUTO-CI, AUTO-CI UHF-CCSDT 
  Emily Kempfer          : AUTO-CI, RHF CISDT and CCSDT                  
  Christian Kollmar      : KDIIS, OOCD, Brueckner-CCSD(T), CCSD density, CASPT2, CASPT2-K, improved NEVPT2 
  Axel Koslowski         : Symmetry handling                             
  Simone Kossmann        : meta-GGA functionals, TD-DFT gradient, OOMP2, (MP2 Hessian; deprecated post 5.0) 
  Lucas Lang             : DCDCAS                                        
  Marvin Lechner         : AUTO-CI (C++ implementation), FIC-MRCC        
  Spencer Leger          : CASSCF response                               
  Dagmar Lenk            : GEPOL surface, SMD, ORCA-2-JSON               
  Dimitrios Liakos       : Extrapolation schemes; Compound Job, initial MDCI parallelization 
  Dimitrios Manganas     : Further ROCIS development; embedding schemes. LFT, Crystal Embedding 
  Dimitrios Pantazis     : SARC Basis sets                               
  Anastasios Papadopoulos: AUTO-CI, single reference methods and gradients 
  Taras Petrenko         : pre 6.0 DFT Hessian and TD-DFT gradient, (ASA, deprecated), ECA, 1-Electron XAS/XES, NRVS 
  Peter Pinski           : DLPNO-MP2, DLPNO-MP2 Gradient                 
  Christoph Reimann      : Effective Core Potentials                     
  Marius Retegan         : Local ZFS, SOC                                
  Christoph Riplinger    : Optimizer, TS searches, QM/MM, DLPNO-CCSD(T), (RO)-DLPNO pert. Triples 
  Michael Roemelt        : Original ROCIS implementation                 
  Masaaki Saitow         : Open-shell DLPNO-CCSD energy and density      
  Barbara Sandhoefer     : DKH picture change effects                    
  Kantharuban Sivalingam : CASSCF convergence/infrastructure, NEVPT2 and variants, FIC-MRCI 
  Bernardo de Souza      : ESD, SOC TD-DFT                               
  Georgi L. Stoychev     : AutoAux, RI-MP2 NMR, DLPNO-MP2 response, X2C  
  Van Anh Tran           : RI-MP2 g-tensors                              
  Willem Van den Heuvel  : Paramagnetic NMR                              
  Zikuan Wang            : NOTCH, Electric field optimization            
  Frank Wennmohs         : Technical directorship and infrastructure     
  Hang Xu                : AUTO-CI-Response properties                   
                                                                         
[FACCTs GmbH]                                                            
  Markus Bursch, Miquel Garcia-Rates, Christoph Riplinger, Bernardo de Souza, Georgi L. Stoychev 
                                                                 
  APM, Basis sets (HGBS, AHGBS, def-TZVP (Ac-Lr), def2-XVPD (La-Lu)), CI-OPT, improved COSX, DLPNO-Multilevel,           
  DOCKER, DRACO, updates on ESD, GOAT, IRC, LR-CPCM, MBIS, meta-GGA TD-DFT gradient, ML-optimized integration grids, 
  MM, NACMEs, nearIR, NEB, NEB-TS, NL-DFT gradient (VV10), 2- and 3-layer-ONIOM, interface openCOSMO-RS, QMMM,   
  Crystal-QMMM, SF, symmetry and pop. for TD-DFT, r2SCAN hybrids, SOLVATOR                                   
                                                                         
[Other institutions]                                                     
  V. Asgeirsson          : NEB                                           
  Christoph Bannwarth    : sTDA-DFT, sTD-DFT, PBEh-3c, B97-3c, D3        
  Sebastian Ehlert       : rSCAN, r2SCAN, r2SCAN-3c, D4, dhf basis sets  
  Marvin Friede          : D4 for Fr, Ra, Ac-Lr                          
  Lars Goerigk           : TD-DFT with DH, B97 family of functionals     
  Stefan Grimme          : VdW corrections, initial TS optimization, DFT functionals, gCP, sTDA/sTD-DF 
  Waldemar Hujo          : DFT-NL                                        
  H. Jonsson             : NEB                                           
  Holger Kruse           : gCP                                           
  Marcel Mueller         : wB97X-3c, vDZP basis set                      
  Hagen Neugebauer       : wr2SCAN                                       
  Tobias Risthaus        : range-separated hybrid DFT                    
  Lukas Wittmann         : regularized MP2, r2SCAN double-hybrids, wr2SCAN        
                                                                         
We gratefully acknowledge several colleagues who have allowed us to      
interface, adapt or use parts of their codes:                            
  Ed Valeev, F. Pavosevic, A. Kumar             : LibInt (2-el integral package), F12 methods 
  Garnet Chan, S. Sharma, J. Yang, R. Olivares  : DMRG                   
  Ulf Ekstrom                                   : XCFun DFT Library      
  Mihaly Kallay                                 : mrcc  (arbitrary order and MRCC methods)
  Frank Weinhold                                : gennbo (NPA and NBO analysis)           
  Simon Mueller                                 : openCOSMO-RS                            
  Christopher J. Cramer and Donald G. Truhlar   : smd solvation model                     
  S Lehtola, MJT Oliveira, MAL Marques          : LibXC Library                           
  Liviu Ungur et al                             : ANISO software                          


 Your calculation uses the libint2 library for the computation of 2-el integrals
 For citations please refer to: http://libint.valeyev.net

 Your ORCA version has been built with support for libXC version: 6.2.2
 For citations please refer to: https://libxc.gitlab.io

 This ORCA versions uses:
   CBLAS   interface :  Fast vector & matrix operations
   LAPACKE interface :  Fast linear algebra routines
   SCALAPACK package :  Parallel linear algebra routines
   Shared memory     :  Shared parallel matrices
   BLAS/LAPACK       :  OpenBLAS 0.3.27  USE64BITINT DYNAMIC_ARCH NO_AFFINITY Zen SINGLE_THREADED
        Core in use  :  Zen
   Copyright (c) 2011-2014, The OpenBLAS Project




***************************************
The coordinates will be read from file: xtb_opt.xyz
***************************************


Your calculation utilizes the geometrical counterpoise correction gCP
Please cite in your paper:
H.Kruse, S. Grimme J.Chem.Phys., 136, (2012), 154101 
   

Your calculation utilizes the atom-pairwise dispersion correction
based on EEQ partial charges (D4)


Your calculation utilizes the SMD solvation module
Please cite in your paper:
A.V. Marenich, C.J. Cramer, D.G. Truhlar J. Phys. Chem. B, 113, (2009), 6378 

================================================================================

----- Orbital basis set information -----
Your calculation utilizes the basis: def2-mTZVPP
   Stefan Grimme, Andreas Hansen, Sebastian Ehlert, and Jan-Michael Mewes 
   J. Chem. Phys. 154, 064103 (2021). DOI: 10.1063/5.0040021

----- AuxJ basis set information -----
Your calculation utilizes the auxiliary basis: def2/J
   F. Weigend, Phys. Chem. Chem. Phys. 8, 1057 (2006).

================================================================================
                                        WARNINGS
                       Please study these warnings very carefully!
================================================================================

WARNING: Old DensityContainer found on disk!
         Will remove this file - 
         If you want to keep old densities, please start your calculation with a different basename. 



WARNING: SCAN, rSCAN, or r2SCAN functional requested.
  ===> : libXC variant has now been activated.



================================================================================
                                       INPUT FILE
================================================================================
NAME = xtb_opt.inp
|  1> ! r2scan-3c def2/J RI DEFGRID2 scfconv7 ENGRAD tightSCF miniprint
|  2> %cpcm
|  3>     smd true
|  4>     smdsolvent "water"
|  5> end
|  6> * xyzfile 0 1 xtb_opt.xyz
|  7> 
|  8>                          ****END OF INPUT****
================================================================================

                     *******************************
                     * Energy+Gradient Calculation *
                     *******************************

---------------------------------
CARTESIAN COORDINATES (ANGSTROEM)
---------------------------------
  C      4.464965   -4.514765   -1.043866
  C      3.363991   -3.659771   -1.614679
  O      3.209923   -2.503237   -0.725336
  C      2.290373   -1.599620   -1.085569
  O      1.575681   -1.707680   -2.066198
  C      2.300635   -0.413515   -0.154997
  C      0.973421    0.339176   -0.163883
  H      0.637188    0.458625   -1.202737
  C      1.140219    1.752510    0.377090
  O      2.040968    2.472240   -0.016769
  O      0.201168    2.109335    1.243498
  C      0.185743    3.509365    1.684826
  C     -0.526724    4.368709    0.668005
  S     -0.292601   -0.703859    0.688497
  P     -2.110721    0.067355   -0.087690
  S     -2.038223    0.714549   -1.917044
  O     -3.097211   -1.161345    0.255264
  C     -3.080445   -2.362414   -0.567653
  O     -2.677519    1.194224    0.902410
  C     -2.756705    0.980903    2.342245
  H      5.410057   -3.965907   -1.004506
  H      4.212429   -4.864008   -0.038808
  H      4.602208   -5.389103   -1.686709
  H      2.407460   -4.188953   -1.651253
  H      3.606251   -3.289352   -2.614886
  H      3.082136    0.261540   -0.526366
  H      2.595813   -0.718884    0.852395
  H     -0.352876    3.472644    2.633266
  H      1.214591    3.831677    1.860670
  H      0.007153    4.383806   -0.286149
  H     -1.545473    4.006343    0.502223
  H     -0.582234    5.393720    1.047414
  H     -3.769183   -3.056040   -0.085885
  H     -2.075959   -2.793454   -0.599412
  H     -3.425346   -2.123890   -1.576598
  H     -3.075965    1.936037    2.759013
  H     -1.775985    0.707752    2.739827
  H     -3.492896    0.205439    2.565817

----------------------------
CARTESIAN COORDINATES (A.U.)
----------------------------
  NO LB      ZA    FRAG     MASS         X           Y           Z
   0 C     6.0000    0    12.011    8.437561   -8.531670   -1.972620
   1 C     6.0000    0    12.011    6.357021   -6.915966   -3.051300
   2 O     8.0000    0    15.999    6.065876   -4.730432   -1.370686
   3 C     6.0000    0    12.011    4.328178   -3.022844   -2.051428
   4 O     8.0000    0    15.999    2.977606   -3.227047   -3.904549
   5 C     6.0000    0    12.011    4.347569   -0.781429   -0.292901
   6 C     6.0000    0    12.011    1.839500    0.640950   -0.309694
   7 H     1.0000    0     1.008    1.204111    0.866675   -2.272843
   8 C     6.0000    0    12.011    2.154702    3.311764    0.712597
   9 O     8.0000    0    15.999    3.856871    4.671857   -0.031689
  10 O     8.0000    0    15.999    0.380153    3.986065    2.349871
  11 C     6.0000    0    12.011    0.351004    6.631739    3.183861
  12 C     6.0000    0    12.011   -0.995364    8.255663    1.262347
  13 S    16.0000    0    32.060   -0.552935   -1.330100    1.301072
  14 P    15.0000    0    30.974   -3.988685    0.127282   -0.165710
  15 S    16.0000    0    32.060   -3.851683    1.350302   -3.622687
  16 O     8.0000    0    15.999   -5.852881   -2.194624    0.482380
  17 C     6.0000    0    12.011   -5.821198   -4.464316   -1.072709
  18 O     8.0000    0    15.999   -5.059777    2.256756    1.705307
  19 C     6.0000    0    12.011   -5.209417    1.853638    4.426202
  20 H     1.0000    0     1.008   10.223527   -7.494478   -1.898241
  21 H     1.0000    0     1.008    7.960338   -9.191643   -0.073336
  22 H     1.0000    0     1.008    8.696913  -10.183929   -3.187418
  23 H     1.0000    0     1.008    4.549440   -7.915974   -3.120416
  24 H     1.0000    0     1.008    6.814827   -6.215974   -4.941418
  25 H     1.0000    0     1.008    5.824394    0.494239   -0.994687
  26 H     1.0000    0     1.008    4.905375   -1.358494    1.610793
  27 H     1.0000    0     1.008   -0.666839    6.562345    4.976152
  28 H     1.0000    0     1.008    2.295245    7.240821    3.516157
  29 H     1.0000    0     1.008    0.013516    8.284193   -0.540743
  30 H     1.0000    0     1.008   -2.920520    7.570891    0.949064
  31 H     1.0000    0     1.008   -1.100263   10.192654    1.979325
  32 H     1.0000    0     1.008   -7.122725   -5.775078   -0.162299
  33 H     1.0000    0     1.008   -3.922993   -5.278864   -1.132724
  34 H     1.0000    0     1.008   -6.472965   -4.013570   -2.979338
  35 H     1.0000    0     1.008   -5.812731    3.658579    5.213778
  36 H     1.0000    0     1.008   -3.356126    1.337458    5.177522
  37 H     1.0000    0     1.008   -6.600617    0.388224    4.848692

------------------------------------------------------------------------------
                   ___                                                        
                  /   \      - P O W E R E D   B Y -                         
                 /     \                                                     
                 |  |  |   _    _      __       _____    __    __             
                 |  |  |  | |  | |    /  \     |  _  \  |  |  /  |          
                  \  \/   | |  | |   /    \    | | | |  |  | /  /          
                 / \  \   | |__| |  /  /\  \   | |_| |  |  |/  /          
                |  |  |   |  __  | /  /__\  \  |    /   |      \           
                |  |  |   | |  | | |   __   |  |    \   |  |\   \          
                \     /   | |  | | |  |  |  |  | |\  \  |  | \   \       
                 \___/    |_|  |_| |__|  |__|  |_| \__\ |__|  \__/        
                                                                              
                      - O R C A' S   B I G   F R I E N D -                    
                                      &                                       
                       - I N T E G R A L  F E E D E R -                       
                                                                              
 v1 FN, 2020, v2 2021, v3 2022-2024                                           
------------------------------------------------------------------------------


----------------------
SHARK INTEGRAL PACKAGE
----------------------

Number of atoms                             ...     38
Number of basis functions                   ...    510
Number of shells                            ...    240
Maximum angular momentum                    ...      2
Integral batch strategy                     ... SHARK/LIBINT Hybrid
RI-J (if used) integral strategy            ... SPLIT-RIJ (Revised 2003 algorithm where possible)
Printlevel                                  ...      1
Contraction scheme used                     ... SEGMENTED contraction
Prescreening option                         ... SCHWARTZ
   Thresh                                   ... 3.000e-11
   Tcut                                     ... 1.000e-12
   Tpresel                                  ... 1.000e-12 
Coulomb Range Separation                    ... NOT USED
Exchange Range Separation                   ... NOT USED
Multipole approximations                    ... NOT USED
Finite Nucleus Model                        ... NOT USED
CABS basis                                  ... NOT available
Auxiliary Coulomb fitting basis             ... AVAILABLE
   # of basis functions in Aux-J            ...   1146
   # of shells in Aux-J                     ...    386
   Maximum angular momentum in Aux-J        ...      4
Auxiliary J/K fitting basis                 ... NOT available
Auxiliary Correlation fitting basis         ... NOT available
Auxiliary 'external' fitting basis          ... NOT available

Checking pre-screening integrals            ... done (  0.0 sec) Dimension = 240
Check shell pair data                       ... done (  0.0 sec)
Shell pair information
Shell pair cut-off parameter TPreSel        ...   1.0e-12
Total number of shell pairs                 ...     28920
Shell pairs after pre-screening             ...     19727
Total number of primitive shell pairs       ...    108409
Primitive shell pairs kept                  ...     45773
          la=0 lb=0:   5638 shell pairs
          la=1 lb=0:   7156 shell pairs
          la=1 lb=1:   2288 shell pairs
[...]

Nuc. rep. gradient        (SHARK) ... done (  0.0 sec)
HCore & Overlap gradient  (SHARK) ... done (  1.9 sec)
Split-RIJ-J gradient      (SHARK) ... done (  9.8 sec)
XC gradient                       ... done ( 20.7 sec)
CPCM gradient                     ... done ( 10.4 sec)
SMD gradient                      ... done (  0.0 sec)
Dispersion correction             ... done (  0.0 sec)

-------------------
DISPERSION GRADIENT
-------------------

   1   C   :    0.000056685   -0.000072022    0.000003058
   2   C   :    0.000038498   -0.000072616   -0.000041883
   3   O   :    0.000066462   -0.000053268   -0.000012420
   4   C   :    0.000090391   -0.000048925   -0.000046985
   5   O   :    0.000057347   -0.000048279   -0.000116417
   6   C   :    0.000109633    0.000005614    0.000017380
   7   C   :    0.000097491   -0.000005553   -0.000020882
   8   H   :    0.000029025    0.000001777   -0.000040979
   9   C   :    0.000129015    0.000088405    0.000025363
  10   O   :    0.000128949    0.000094876   -0.000014578
  11   O   :    0.000057093    0.000096736    0.000074930
  12   C   :    0.000054555    0.000145275    0.000070810
  13   C   :    0.000002305    0.000174333    0.000006568
  14   S   :   -0.000004423   -0.000136950    0.000110467
  15   P   :   -0.000246137   -0.000083720   -0.000052228
  16   S   :   -0.000206857    0.000042064   -0.000306545
  17   O   :   -0.000089158   -0.000069155   -0.000002473
  18   C   :   -0.000081203   -0.000107440   -0.000032985
  19   O   :   -0.000129913    0.000013279    0.000049677
  20   C   :   -0.000111604   -0.000008007    0.000131329
  21   H   :    0.000024637   -0.000020684    0.000001772
  22   H   :    0.000018965   -0.000028565    0.000007562
  23   H   :    0.000012389   -0.000021568   -0.000002116
  24   H   :    0.000012742   -0.000034335   -0.000014778
  25   H   :    0.000013079   -0.000019984   -0.000018773
  26   H   :    0.000048990    0.000017146   -0.000007043
  27   H   :    0.000041482   -0.000009540    0.000031674
  28   H   :    0.000014566    0.000053482    0.000040685
  29   H   :    0.000017265    0.000040434    0.000020656
  30   H   :    0.000006696    0.000068272   -0.000006826
  31   H   :   -0.000010983    0.000084718    0.000001397
  32   H   :   -0.000005072    0.000046102    0.000002108
  33   H   :   -0.000031111   -0.000047170   -0.000002283
  34   H   :   -0.000042812   -0.000058258   -0.000003126
  35   H   :   -0.000036189   -0.000035158   -0.000021038
  36   H   :   -0.000053638    0.000012073    0.000053398
  37   H   :   -0.000038222   -0.000008463    0.000068282
  38   H   :   -0.000040941    0.000005076    0.000047242

Difference to translation invariance:
           :    0.0000000000    0.0000000000    0.0000000000

Difference to rotation invariance:
           :    0.0000000000    0.0000000000   -0.0000000000

Norm of the Dispersion gradient    ...    0.0007684852
RMS gradient                       ...    0.0000719752
MAX gradient                       ...    0.0003065453
gCP correction                   ... done

------------------
CARTESIAN GRADIENT
------------------

   1   C   :   -0.000000956   -0.000003232   -0.000021723
   2   C   :    0.000020882    0.000002943    0.000008185
   3   O   :   -0.000010782    0.000014224   -0.000009665
   4   C   :    0.000046436    0.000017016    0.000000213
   5   O   :   -0.000033160   -0.000018955    0.000007259
   6   C   :   -0.000011869   -0.000011037    0.000005467
   7   C   :   -0.000001559    0.000000404    0.000012858
   8   H   :   -0.000001319    0.000008602    0.000007208
   9   C   :   -0.000001227    0.000022754   -0.000050606
  10   O   :    0.000006458   -0.000030634    0.000040207
  11   O   :   -0.000015320   -0.000018648    0.000001752
  12   C   :   -0.000010581    0.000018402    0.000000535
  13   C   :    0.000008790   -0.000005049   -0.000012039
  14   S   :   -0.000016371   -0.000011657    0.000054339
  15   P   :   -0.000022444   -0.000000456    0.000015591
  16   S   :    0.000014577    0.000022557   -0.000073408
  17   O   :    0.000014503    0.000010268    0.000012228
  18   C   :    0.000000538   -0.000000075    0.000015867
  19   O   :   -0.000002163   -0.000007874    0.000032358
  20   C   :   -0.000001289    0.000007020   -0.000002450
  21   H   :    0.000004950    0.000014287   -0.000016976
  22   H   :    0.000008987    0.000002270   -0.000008057
  23   H   :    0.000010448    0.000002249   -0.000015670
  24   H   :    0.000008708   -0.000002859   -0.000008330
  25   H   :    0.000001050    0.000008915   -0.000006404
  26   H   :    0.000006199   -0.000016770    0.000020477
  27   H   :   -0.000013237   -0.000013339    0.000012057
  28   H   :   -0.000011711    0.000004952   -0.000005715
  29   H   :   -0.000005266    0.000003311   -0.000000452
  30   H   :    0.000007291   -0.000006198   -0.000010950
  31   H   :    0.000002753    0.000000518   -0.000015282
  32   H   :    0.000002631    0.000002555   -0.000019385
  33   H   :    0.000002217   -0.000003939   -0.000005106
  34   H   :   -0.000005656   -0.000003146   -0.000004508
  35   H   :   -0.000004073   -0.000001417    0.000002371
  36   H   :    0.000002138   -0.000006126    0.000013160
  37   H   :    0.000001212   -0.000001398    0.000008418
  38   H   :   -0.000001786   -0.000000438    0.000016176

Difference to translation invariance:
           :    0.0000000000    0.0000000000   -0.0000000000

Difference to rotation invariance:
           :    0.0001282951    0.0002692040    0.0004113658

Norm of the Cartesian gradient     ...    0.0001712250
RMS gradient                       ...    0.0000160367
MAX gradient                       ...    0.0000734076

-------
TIMINGS
-------

Total SCF gradient time     ....       42.863 sec

Densities                   ....       0.006 sec  (  0.0%)
One electron gradient       ....       1.923 sec  (  4.5%)
RI-J Coulomb gradient       ....       9.820 sec  ( 22.9%)
XC gradient                 ....      20.701 sec  ( 48.3%)
CPCM gradient               ....      10.366 sec  ( 24.2%)
   A-Matrix (El+Nuc)        ....       0.303 sec  (  0.7%)
   Potential                ....      10.063 sec  ( 23.5%)
SMD gradient                ....       0.003 sec  (  0.0%)

Maximum memory used throughout the entire SCFGRAD-calculation: 81.5 MB

------------------------------------------------------------------------------
                              ORCA PROPERTY CALCULATIONS
------------------------------------------------------------------------------

GBWName                                 ... xtb_opt.gbw
Number of atoms                         ...     38
Number of basis functions               ...    510
Max core memory                         ...   1024 MB

Electric properties:
Dipole moment                           ... YES
Quadrupole moment                       ...  NO
Static polarizability (Dipole/Dipole)   ...  NO
Static polarizability (Dipole/Quad.)    ...  NO
Static polarizability (Quad./Quad.)     ...  NO
Static polarizability (Velocity)        ...  NO

Atomic electric properties:
Dipole moment                           ...  NO
Quadrupole moment                       ...  NO
Static polarizability                   ...  NO

Choice of electric origin               ... Center of mass
Position of electric origin             ...    -0.068142    -0.091978    -0.227236

General magnetic properties:
Magnetizability                         ...  NO

EPR properties:
g-Tensor (aka g-matrix)                 ...  NO
Zero-Field splitting spin-orbit         ...  NO
Zero-field splitting spin-spin          ...  NO
Hyperfine couplings                     ...  NO (   0 nuclei)
Quadrupole couplings                    ...  NO (   0 nuclei)
Contact density                         ...  NO (   0 nuclei)

NMR properties:
Chemical shifts                         ...  NO (   0 nuclei)
Spin-rotation constants                 ...  NO (   0 nuclei)
Spin-spin couplings                     ...  NO (   0 nuclei,    0 pairs)

Choice of magnetic origin               ... GIAO
Position of magnetic origin             ...     0.000000     0.000000     0.000000

Properties with geometric perturbations:
SCF Hessian                             ...  NO
IR spectrum                             ...  NO
VCD spectrum                            ...  NO
X-ray spectroscopy properties:
SCF XES/XAS/RIXS spectra                ...  NO


-------------
DIPOLE MOMENT
-------------

Method             : SCF
Type of density    : Electron Density
Multiplicity       :   1
Irrep              :   0
Energy             : -1981.4995442284973706 Eh
Relativity type    : 
Basis              : AO
                                X                 Y                 Z
Electronic contribution:     -9.422563669       3.309402240      -3.002502313
Nuclear contribution   :      9.783982760      -4.608623551       5.614832394
                        -----------------------------------------
Total Dipole Moment    :      0.361419092      -1.299221311       2.612330080
                        -----------------------------------------
Magnitude (a.u.)       :      2.939875546
Magnitude (Debye)      :      7.472569782



--------------------
Rotational spectrum 
--------------------
 
Rotational constants in cm-1:             0.012276             0.006356             0.004929 
Rotational constants in MHz :           368.030604           190.542716           147.771672 

Dipole components along the rotational axes: 
x,y,z [a.u.] :     0.439543    -0.116714    -2.904488 
x,y,z [Debye]:     1.117230    -0.296662    -7.382621 

 

Dipole moment calculation done in   1.9 sec 

Maximum memory used throughout the entire PROP-calculation: 50.5 MB

--------------------------------
SUGGESTED CITATIONS FOR THIS RUN
--------------------------------

Below you find a list of papers that are relevant to this ORCA run
We neither can nor want to force you to cite these papers, but we appreciate if you do
You receive ORCA, which is the product of decades of hard work by many enthusiastic individuals, for free
The only thing we kindly ask in return is that you cite our papers,
We deeply appreciate it, if you show your appreciation for ORCA by not just citing the generic ORCA reference.

Please note that relegating all ORCA citations to the supporting information does *not* help us.
SI sections are not indexed - citations you put there will not count into any citation statistics
But we need these citations in order to attract the funding resources that allow us to do what we are doing

Therefore, if you are a happy ORCA user, please consider citing a few of the papers listed below in the main body of your paper

In addition to the list printed below, the program has created the file xtb_opt.bibtex that contains the list in bibtex format
You can import this file easily into all common literature databanks and citation aid programs


List of essential papers. We consider these as the minimum necessary citations

  1. Neese,F.
     Software update: the ORCA program system, version 5.0
     WIRES Comput. Molec. Sci., 2022 12(1)e1606
     doi.org/10.1002/wcms.1606
  2. Grimme,S.; Hansen,A.; Ehlert,S.; Mewes,J.
     r2SCAN-3c: A 'Swiss army knife' composite electronic-structure method
     J. Chem. Phys., 2021 154 064103
     doi.org/10.1063/5.0040021

List of papers to cite with high priority. The work reported in these papers was absolutely
necessary for this run to complete.
Our perspective: the developers of density functionals and basis sets usually get cited in chemistry papers
Good! But without the algorithms to do something with them, the functionals or basis sets would not do anything.
Hence, in our opinion, the algorithm design and method developments papers are equally worthy of getting cited

  1. Neese,F.
     An improvement of the resolution of the identity approximation for the formation of the Coulomb matrix
     J. Comp. Chem., 2003 24(14)1740-1747
     doi.org/10.1002/jcc.10318
  2. Garcia-Rates,M.; Neese,F.
     Effect of the Solute Cavity on the Solvation Energy and its Derivatives within the Framework of the Gaussian Charge Scheme
     J. Comput. Chem., 2020 41 922-939
     doi.org/10.1002/jcc.26139
  3. Neese,F.
     The SHARK Integral Generation and Digestion System
     J. Comp. Chem., 2022  1-16
     doi.org/10.1002/jcc.26942
  4. Lehtola,S.; Steigemann,C.; Oliveira,M.; Marques,M.
     Recent developments in Libxc - A comprehensive library of functionals for density functional theory
     Software X, 2018 7 
     doi.org/10.1016/j.softx.2017.11.002
  5. Caldeweyher,E.; Bannwarth,C.; Grimme,S.
     Extension of the D3 dispersion coefficient model
     J. Chem. Phys., 2017 147 034112
     doi.org/10.1063/1.4993215
  6. Caldeweyher,E.; Ehlert,S.; Hansen,A.; Neugebauer,H.; Spicher,S.; Bannwarth,C.; Grimme,S.
     A generally applicable atomic-charge dependent London dispersion correction
     J. Chem. Phys., 2019 150 154122
     doi.org/10.1063/1.5090222
  7. Caldeweyher,E.; Mewes,J.; Ehlert,S.; Grimme,S.
     Extension and evaluation of the D4 London-dispersion model for periodic systems
     Phys. Chem. Chem. Phys., 2020 22(16)8499-8512
     doi.org/10.1039/D0CP00502A
  8. Wittmann,L.; Gordiy,I.; Friede,M.; Helmich-Paris,B.; Grimme,S.; Hansen,A.; Bursch,M.
     Extension of the D3 and D4 London Dispersion Corrections to the full Actinides Series
     Phys. Chem. Chem. Phys., 2024 26(32)21379-21394
     doi.org/https://doi.org/10.1039/D4CP01514B 

List of suggested additional citations. These are papers that are important in the 'surrounding' of 
of this run, or papers that preceded the highly important papers. If you like your results we are grateful for a citation.

  1. Neese,F.
     The ORCA program system
     WIRES Comput. Molec. Sci., 2012 2(1)73-78
     doi.org/10.1002/wcms.81
  2. Neese,F.
     Software update: the ORCA program system, version 4.0
     WIRES Comput. Molec. Sci., 2018 8(1)1-6
     doi.org/10.1002/wcms.1327
  3. Neese,F.; Wennmohs,F.; Becker,U.; Riplinger,C.
     The ORCA quantum chemistry program package
     J. Chem. Phys., 2020 152 Art. No. L224108
     doi.org/10.1063/5.0004608

List of optional additional citations

  1. Neese,F.
     Approximate second-order SCF convergence for spin unrestricted wavefunctions
     Chem. Phys. Lett., 2000 325(1-3)93-98
     doi.org/10.1016/s0009-2614(00)00662-x

Timings for individual modules:

Sum of individual times          ...       96.493 sec (=   1.608 min)
Startup calculation              ...        2.724 sec (=   0.045 min)   2.8 %
SCF iterations                   ...       47.084 sec (=   0.785 min)  48.8 %
Property calculations            ...        2.015 sec (=   0.034 min)   2.1 %
SCF Gradient evaluation          ...       44.669 sec (=   0.744 min)  46.3 %
                             ****ORCA TERMINATED NORMALLY****
TOTAL RUN TIME: 0 days 0 hours 1 minutes 42 seconds 862 msec
  ------------------------------------------------------------------------
          * successful ORCA run, taking over control again...

         :::::::::::::::::::::::::::::::::::::::::::::::::::::
         ::                  ORCA SUMMARY                   ::
         :::::::::::::::::::::::::::::::::::::::::::::::::::::
         :: total energy           -1981.480306361929 Eh    ::
         :: gradient norm              0.000171224952 Eh/a0 ::
         :: HOMO-LUMO gap              0.000000000000 eV    ::
         :::::::::::::::::::::::::::::::::::::::::::::::::::::

           -------------------------------------------------
          |                Property Printout                |
           -------------------------------------------------
           -------------------------------------------------
          |                Geometry Summary                 |
           -------------------------------------------------

      molecular mass/u    :      330.3579996
   center of mass at/Å    :       -0.0360973      -0.0486687      -0.1202644
  moments of inertia/u·Å² :        0.1373222E+04   0.2652318E+04   0.3419982E+04
rotational constants/cm⁻¹ :        0.1227597E-01   0.6355811E-02   0.4929158E-02

 * 31 selected distances

     #   Z          #   Z                                           value/Å
     1   6 C        2   6 C                                       1.5062742
     3   8 O        4   6 C                                       1.3386170
     4   6 C        5   8 O                                       1.2182386
     6   6 C        7   6 C                                       1.5259567
     7   6 C        8   1 H                                       1.0984450
     9   6 C       10   8 O                                       1.2184505
     9   6 C       11   8 O                                       1.3265099
    12   6 C       13   6 C                                       1.5099717
    14  16 S       15  15 P                                       2.1224724 (max)
    15  15 P       16  16 S                                       1.9421620
    15  15 P       17   8 O                                       1.6126738
    17   8 O       18   6 C                                       1.4561447
    15  15 P       19   8 O                                       1.6035453
     1   6 C       21   1 H                                       1.0936607
     1   6 C       22   1 H                                       1.0936268
     1   6 C       23   1 H                                       1.0939392
     2   6 C       24   1 H                                       1.0937705
     2   6 C       25   1 H                                       1.0937777
     6   6 C       26   1 H                                       1.0974595
     6   6 C       27   1 H                                       1.0932677
    12   6 C       28   1 H                                       1.0913347
    12   6 C       29   1 H                                       1.0924075
    13   6 C       30   1 H                                       1.0934619
    13   6 C       31   1 H                                       1.0939152
    13   6 C       32   1 H                                       1.0943904
    18   6 C       33   1 H                                       1.0897800 (min)
    18   6 C       34   1 H                                       1.0935328
    18   6 C       35   1 H                                       1.0926311
    20   6 C       36   1 H                                       1.0899394
    20   6 C       37   1 H                                       1.0929587
    20   6 C       38   1 H                                       1.0924650

 * 5 distinct bonds (by element types)

   Z      Z             #   av. dist./Å        max./Å        min./Å
   1 H    6 C          19     1.0934086     1.0984450     1.0897800
   6 C    6 C           3     1.5140675     1.5259567     1.5062742
   6 C    8 O           5     1.3115921     1.4561447     1.2182386
   8 O   15 P           2     1.6081096     1.6126738     1.6035453
  15 P   16 S           2     2.0323172     2.1224724     1.9421620


optimized geometry written to: xtbopt.coord


           -------------------------------------------------
          | TOTAL ENERGY            -1981.480306361929 Eh   |
          | GRADIENT NORM               0.000171224952 Eh/α |
           -------------------------------------------------

------------------------------------------------------------------------
 * finished run on 2025/04/09 at 15:42:26.753     
------------------------------------------------------------------------
 total:
 * wall-time:     0 d,  0 h,  9 min, 10.804 sec
 *  cpu-time:     0 d,  0 h,  0 min, 44.424 sec
 * ratio c/w:     0.081 speedup
 SCF:
 * wall-time:     0 d,  0 h,  1 min, 43.425 sec
 *  cpu-time:     0 d,  0 h,  0 min,  1.361 sec
 * ratio c/w:     0.013 speedup
 ANC optimizer:
 * wall-time:     0 d,  0 h,  7 min, 25.198 sec
 *  cpu-time:     0 d,  0 h,  0 min, 23.675 sec
 * ratio c/w:     0.053 speedup

