
                                 *****************
                                 * O   R   C   A *
                                 *****************

                                            #,                                       
                                            ###                                      
                                            ####                                     
                                            #####                                    
                                            ######                                   
                                           ########,                                 
                                     ,,################,,,,,                         
                               ,,#################################,,                 
                          ,,##########################################,,             
                       ,#########################################, ''#####,          
                    ,#############################################,,   '####,        
                  ,##################################################,,,,####,       
                ,###########''''           ''''###############################       
              ,#####''   ,,,,##########,,,,          '''####'''          '####       
            ,##' ,,,,###########################,,,                        '##       
           ' ,,###''''                  '''############,,,                           
         ,,##''                                '''############,,,,        ,,,,,,###''
      ,#''                                            '''#######################'''  
     '                                                          ''''####''''         
             ,#######,   #######,   ,#######,      ##                                
            ,#'     '#,  ##    ##  ,#'     '#,    #''#        ,####,   ,####,        
            ##       ##  ##   ,#'  ##            #'  '#       #'       #'  '#        
            ##       ##  #######   ##           ,######,      #####,   #    #        
            '#,     ,#'  ##    ##  '#,     ,#' ,#      #,     #,   #   #,  ,#        
             '#######'   ##     ##  '#######'  #'      '#     '####' # '####'        



                #########################################################
                #                        -***-                          #
                #          Department of theory and spectroscopy        #
                #                                                       #
                #                      Frank Neese                      #
                #                                                       #
                #     Directorship, Architecture, Infrastructure        #
                #                    SHARK, DRIVERS                     #
                #        Core code/Algorithms in most modules           #
                #                                                       #
                #        Max Planck Institute fuer Kohlenforschung      #
                #                Kaiser Wilhelm Platz 1                 #
                #                 D-45470 Muelheim/Ruhr                 #
                #                      Germany                          #
                #                                                       #
                #                  All rights reserved                  #
                #                        -***-                          #
                #########################################################


                         Program Version 6.0.1  -  RELEASE   -


 With contributions from (in alphabetic order):
[Max-Planck-Institut fuer Kohlenforschung]                               
  Daniel Aravena         : Magnetic Suceptibility                        
  Michael Atanasov       : Ab Initio Ligand Field Theory (pilot matlab implementation)
  Alexander A. Auer      : GIAO ZORA, VPT2 properties, NMR spectrum      
  Ute Becker             : All parallelization in ORCA, NUMFREQ, NUMCALC 
  Giovanni Bistoni       : ED, misc. LED, open-shell LED, HFLD           
  Martin Brehm           : Molecular dynamics                            
  Dmytro Bykov           : pre 5.0 version of the SCF Hessian            
  Marcos Casanova-Páez   : Triplet and SCS-CIS(D). UHF-(DLPNO)-IP/EA/STEOM-CCSD. UHF-CVS-IP/STEOM-CCSD   
  Vijay G. Chilkuri      : MRCI spin determinant printing, contributions to CSF-ICE 
  Pauline Colinet        : FMM embedding                                 
  Dipayan Datta          : RHF DLPNO-CCSD density                        
  Achintya Kumar Dutta   : EOM-CC, STEOM-CC                              
  Nicolas Foglia         : Exact transition moments, OPA infrastructure, MCD improvements    
  Dmitry Ganyushin       : Spin-Orbit,Spin-Spin,Magnetic field MRCI      
  Miquel Garcia-Rates    : C-PCM and meta-GGA Hessian, CCSD/C-PCM, Gaussian charge scheme 
  Tiago L. C. Gouveia    : GS-ROHF, GS-ROCIS                             
  Yang Guo               : DLPNO-NEVPT2, F12-NEVPT2, CIM, IAO-localization        
  Andreas Hansen         : Spin unrestricted coupled pair/coupled cluster methods 
  Ingolf Harden          : AUTO-CI MPn and infrastructure                
  Benjamin Helmich-Paris : MC-RPA, TRAH-(SCF,CASSCF), AVAS, COSX integrals, SCF dyn. polar. 
  Lee Huntington         : MR-EOM, pCC                                   
  Robert Izsak           : Overlap fitted RIJCOSX, COSX-SCS-MP3, EOM     
  Riya Kayal             : Wick's Theorem for AUTO-CI, AUTO-CI UHF-CCSDT 
  Emily Kempfer          : AUTO-CI, RHF CISDT and CCSDT                  
  Christian Kollmar      : KDIIS, OOCD, Brueckner-CCSD(T), CCSD density, CASPT2, CASPT2-K, improved NEVPT2 
  Axel Koslowski         : Symmetry handling                             
  Simone Kossmann        : meta-GGA functionals, TD-DFT gradient, OOMP2, (MP2 Hessian; deprecated post 5.0) 
  Lucas Lang             : DCDCAS                                        
  Marvin Lechner         : AUTO-CI (C++ implementation), FIC-MRCC        
  Spencer Leger          : CASSCF response                               
  Dagmar Lenk            : GEPOL surface, SMD, ORCA-2-JSON               
  Dimitrios Liakos       : Extrapolation schemes; Compound Job, initial MDCI parallelization 
  Dimitrios Manganas     : Further ROCIS development; embedding schemes. LFT, Crystal Embedding 
  Dimitrios Pantazis     : SARC Basis sets                               
  Anastasios Papadopoulos: AUTO-CI, single reference methods and gradients 
  Taras Petrenko         : pre 6.0 DFT Hessian and TD-DFT gradient, (ASA, deprecated), ECA, 1-Electron XAS/XES, NRVS 
  Peter Pinski           : DLPNO-MP2, DLPNO-MP2 Gradient                 
  Christoph Reimann      : Effective Core Potentials                     
  Marius Retegan         : Local ZFS, SOC                                
  Christoph Riplinger    : Optimizer, TS searches, QM/MM, DLPNO-CCSD(T), (RO)-DLPNO pert. Triples 
  Michael Roemelt        : Original ROCIS implementation                 
  Masaaki Saitow         : Open-shell DLPNO-CCSD energy and density      
  Barbara Sandhoefer     : DKH picture change effects                    
  Kantharuban Sivalingam : CASSCF convergence/infrastructure, NEVPT2 and variants, FIC-MRCI 
  Bernardo de Souza      : ESD, SOC TD-DFT                               
  Georgi L. Stoychev     : AutoAux, RI-MP2 NMR, DLPNO-MP2 response, X2C  
  Van Anh Tran           : RI-MP2 g-tensors                              
  Willem Van den Heuvel  : Paramagnetic NMR                              
  Zikuan Wang            : NOTCH, Electric field optimization            
  Frank Wennmohs         : Technical directorship and infrastructure     
  Hang Xu                : AUTO-CI-Response properties                   
                                                                         
[FACCTs GmbH]                                                            
  Markus Bursch, Miquel Garcia-Rates, Christoph Riplinger, Bernardo de Souza, Georgi L. Stoychev 
                                                                 
  APM, Basis sets (HGBS, AHGBS, def-TZVP (Ac-Lr), def2-XVPD (La-Lu)), CI-OPT, improved COSX, DLPNO-Multilevel,           
  DOCKER, DRACO, updates on ESD, GOAT, IRC, LR-CPCM, MBIS, meta-GGA TD-DFT gradient, ML-optimized integration grids, 
  MM, NACMEs, nearIR, NEB, NEB-TS, NL-DFT gradient (VV10), 2- and 3-layer-ONIOM, interface openCOSMO-RS, QMMM,   
  Crystal-QMMM, SF, symmetry and pop. for TD-DFT, r2SCAN hybrids, SOLVATOR                                   
                                                                         
[Other institutions]                                                     
  V. Asgeirsson          : NEB                                           
  Christoph Bannwarth    : sTDA-DFT, sTD-DFT, PBEh-3c, B97-3c, D3        
  Sebastian Ehlert       : rSCAN, r2SCAN, r2SCAN-3c, D4, dhf basis sets  
  Marvin Friede          : D4 for Fr, Ra, Ac-Lr                          
  Lars Goerigk           : TD-DFT with DH, B97 family of functionals     
  Stefan Grimme          : VdW corrections, initial TS optimization, DFT functionals, gCP, sTDA/sTD-DF 
  Waldemar Hujo          : DFT-NL                                        
  H. Jonsson             : NEB                                           
  Holger Kruse           : gCP                                           
  Marcel Mueller         : wB97X-3c, vDZP basis set                      
  Hagen Neugebauer       : wr2SCAN                                       
  Tobias Risthaus        : range-separated hybrid DFT                    
  Lukas Wittmann         : regularized MP2, r2SCAN double-hybrids, wr2SCAN        
                                                                         
We gratefully acknowledge several colleagues who have allowed us to      
interface, adapt or use parts of their codes:                            
  Ed Valeev, F. Pavosevic, A. Kumar             : LibInt (2-el integral package), F12 methods 
  Garnet Chan, S. Sharma, J. Yang, R. Olivares  : DMRG                   
  Ulf Ekstrom                                   : XCFun DFT Library      
  Mihaly Kallay                                 : mrcc  (arbitrary order and MRCC methods)
  Frank Weinhold                                : gennbo (NPA and NBO analysis)           
  Simon Mueller                                 : openCOSMO-RS                            
  Christopher J. Cramer and Donald G. Truhlar   : smd solvation model                     
  S Lehtola, MJT Oliveira, MAL Marques          : LibXC Library                           
  Liviu Ungur et al                             : ANISO software                          


 Your calculation uses the libint2 library for the computation of 2-el integrals
 For citations please refer to: http://libint.valeyev.net

 Your ORCA version has been built with support for libXC version: 6.2.2
 For citations please refer to: https://libxc.gitlab.io

 This ORCA versions uses:
   CBLAS   interface :  Fast vector & matrix operations
   LAPACKE interface :  Fast linear algebra routines
   SCALAPACK package :  Parallel linear algebra routines
   Shared memory     :  Shared parallel matrices
   BLAS/LAPACK       :  OpenBLAS 0.3.27  USE64BITINT DYNAMIC_ARCH NO_AFFINITY Zen SINGLE_THREADED
        Core in use  :  Zen
   Copyright (c) 2011-2014, The OpenBLAS Project


Your calculation utilizes the geometrical counterpoise correction gCP
Please cite in your paper:
H.Kruse, S. Grimme J.Chem.Phys., 136, (2012), 154101 
   

Your calculation utilizes the atom-pairwise dispersion correction
based on EEQ partial charges (D4)


Your calculation utilizes the SMD solvation module
Please cite in your paper:
A.V. Marenich, C.J. Cramer, D.G. Truhlar J. Phys. Chem. B, 113, (2009), 6378 

================================================================================

----- Orbital basis set information -----
Your calculation utilizes the basis: def2-mTZVPP
   Stefan Grimme, Andreas Hansen, Sebastian Ehlert, and Jan-Michael Mewes 
   J. Chem. Phys. 154, 064103 (2021). DOI: 10.1063/5.0040021

----- AuxJ basis set information -----
Your calculation utilizes the auxiliary basis: def2/J
   F. Weigend, Phys. Chem. Chem. Phys. 8, 1057 (2006).

================================================================================
                                        WARNINGS
                       Please study these warnings very carefully!
================================================================================

WARNING: Old DensityContainer found on disk!
         Will remove this file - 
         If you want to keep old densities, please start your calculation with a different basename. 



WARNING: SCAN, rSCAN, or r2SCAN functional requested.
  ===> : libXC variant has now been activated.



================================================================================
                                       INPUT FILE
================================================================================
NAME = sp_solv.inp
|  1> ! r2scan-3c def2/J RI DEFGRID2 scfconv6 printgap
|  2> %output
|  3>     printlevel normal
|  4> end
|  5> %cpcm
|  6>     smd true
|  7>     smdsolvent "water"
|  8> end
|  9> * xyz 0 1
| 10> C 2.3105074824 -3.6098633188 -0.3653774724
| 11> C 2.9745898389 -2.2806126868 -0.0446801944
| 12> O 2.1914019842 -1.1815211037 -0.5476151874
| 13> C 2.3271526711 -0.8464823812 -1.8222819683
| 14> O 3.1206142048 -1.3591262524 -2.5776890888
| 15> C 1.3925328756 0.2730309584 -2.2298429063
| 16> C 0.3447156388 0.6037420204 -1.17770097
| 17> H -0.244314444 1.4722630015 -1.4930747576
| 18> C 0.9469047418 0.9316158639 0.1747853184
| 19> O 0.4792731588 0.5124140936 1.2142044531
| 20> O 1.9758873292 1.7296892889 0.0758043848
| 21> C 2.5734309246 2.223481347 1.2935630052
| 22> C 1.8549706394 3.477021031 1.7648999793
| 23> S -0.8231482975 -0.7791576033 -0.9337843892
| 24> P -2.039098063 0.1129786388 0.5612645477
| 25> S -2.134632458 2.0679993951 0.5966029553
| 26> O -3.4580104688 -0.5538572512 0.1874800485
| 27> C -4.158779832 -0.1966681534 -1.0058295224
| 28> O -1.8457555268 -0.5640124055 1.975596927
| 29> C -1.5267923488 -1.9578727569 2.1317434754
| 30> H 1.2882632689 -3.6178037739 0.004363393
| 31> H 2.2957732736 -3.7681105396 -1.4409712543
| 32> H 2.8694918104 -4.412540811 0.1038452116
| 33> H 3.9725182378 -2.2272337733 -0.4889805241
| 34> H 3.0268788756 -2.1084801717 1.0310354896
| 35> H 0.9135749995 -0.0161065457 -3.1665513105
| 36> H 2.0017937952 1.1593189176 -2.4224439185
| 37> H 2.5232703405 1.4371676098 2.0512771792
| 38> H 3.608461487 2.4316593644 1.022929318
| 39> H 1.8922086709 4.2438300451 0.9963329391
| 40> H 0.8117065194 3.253037201 1.9820567137
| 41> H 2.3304104237 3.8478962656 2.6666998857
| 42> H -4.2111207894 0.8897114117 -1.0975080825
| 43> H -5.1556990045 -0.6160924765 -0.8980201733
| 44> H -3.6540938985 -0.6204375681 -1.8741472679
| 45> H -1.6630090491 -2.1635947015 3.19025467
| 46> H -0.4888350272 -2.1212657718 1.8413333271
| 47> H -2.1940043192 -2.5710728733 1.5276327044
| 48> *
| 49> 
| 50>                          ****END OF INPUT****
================================================================================

                       ****************************
                       * Single Point Calculation *
                       ****************************

---------------------------------
CARTESIAN COORDINATES (ANGSTROEM)
---------------------------------
  C      2.310507   -3.609863   -0.365377
  C      2.974590   -2.280613   -0.044680
  O      2.191402   -1.181521   -0.547615
  C      2.327153   -0.846482   -1.822282
  O      3.120614   -1.359126   -2.577689
  C      1.392533    0.273031   -2.229843
  C      0.344716    0.603742   -1.177701
  H     -0.244314    1.472263   -1.493075
  C      0.946905    0.931616    0.174785
  O      0.479273    0.512414    1.214204
  O      1.975887    1.729689    0.075804
  C      2.573431    2.223481    1.293563
  C      1.854971    3.477021    1.764900
  S     -0.823148   -0.779158   -0.933784
  P     -2.039098    0.112979    0.561265
  S     -2.134632    2.067999    0.596603
  O     -3.458010   -0.553857    0.187480
  C     -4.158780   -0.196668   -1.005830
  O     -1.845756   -0.564012    1.975597
  C     -1.526792   -1.957873    2.131743
  H      1.288263   -3.617804    0.004363
  H      2.295773   -3.768111   -1.440971
  H      2.869492   -4.412541    0.103845
  H      3.972518   -2.227234   -0.488981
  H      3.026879   -2.108480    1.031035
  H      0.913575   -0.016107   -3.166551
  H      2.001794    1.159319   -2.422444
  H      2.523270    1.437168    2.051277
  H      3.608461    2.431659    1.022929
  H      1.892209    4.243830    0.996333
  H      0.811707    3.253037    1.982057
  H      2.330410    3.847896    2.666700
  H     -4.211121    0.889711   -1.097508
  H     -5.155699   -0.616092   -0.898020
  H     -3.654094   -0.620438   -1.874147
  H     -1.663009   -2.163595    3.190255
  H     -0.488835   -2.121266    1.841333
  H     -2.194004   -2.571073    1.527633

----------------------------
CARTESIAN COORDINATES (A.U.)
----------------------------
  NO LB      ZA    FRAG     MASS         X           Y           Z
   0 C     6.0000    0    12.011    4.366226   -6.821653   -0.690463
   1 C     6.0000    0    12.011    5.621160   -4.309733   -0.084433
   2 O     8.0000    0    15.999    4.141150   -2.232751   -1.034843
   3 C     6.0000    0    12.011    4.397681   -1.599620   -3.443614
   4 O     8.0000    0    15.999    5.897106   -2.568376   -4.871126
   5 C     6.0000    0    12.011    2.631506    0.515954   -4.213792
   6 C     6.0000    0    12.011    0.651418    1.140907   -2.225532
   7 H     1.0000    0     1.008   -0.461687    2.782174   -2.821502
   8 C     6.0000    0    12.011    1.789391    1.760499    0.330296
   9 O     8.0000    0    15.999    0.905695    0.968322    2.294514
  10 O     8.0000    0    15.999    3.733886    3.268639    0.143250
  11 C     6.0000    0    12.011    4.863080    4.201771    2.444480
  12 C     6.0000    0    12.011    3.505386    6.570618    3.335178
  13 S    16.0000    0    32.060   -1.555525   -1.472394   -1.764597
  14 P    15.0000    0    30.974   -3.853337    0.213499    1.060636
  15 S    16.0000    0    32.060   -4.033871    3.907953    1.127416
  16 O     8.0000    0    15.999   -6.534693   -1.046639    0.354286
  17 C     6.0000    0    12.011   -7.858955   -0.371649   -1.900742
  18 O     8.0000    0    15.999   -3.487972   -1.065829    3.733337
  19 C     6.0000    0    12.011   -2.885219   -3.699843    4.028411
  20 H     1.0000    0     1.008    2.434465   -6.836658    0.008246
  21 H     1.0000    0     1.008    4.338383   -7.120697   -2.723041
  22 H     1.0000    0     1.008    5.422554   -8.338494    0.196239
  23 H     1.0000    0     1.008    7.506972   -4.208862   -0.924039
  24 H     1.0000    0     1.008    5.719972   -3.984450    1.948375
  25 H     1.0000    0     1.008    1.726407   -0.030437   -5.983915
  26 H     1.0000    0     1.008    3.782842    2.190795   -4.577756
  27 H     1.0000    0     1.008    4.768290    2.715853    3.876352
  28 H     1.0000    0     1.008    6.819004    4.595170    1.933056
  29 H     1.0000    0     1.008    3.575756    8.019677    1.882796
  30 H     1.0000    0     1.008    1.533903    6.147349    3.745544
  31 H     1.0000    0     1.008    4.403837    7.271470    5.039332
  32 H     1.0000    0     1.008   -7.957865    1.681311   -2.073990
  33 H     1.0000    0     1.008   -9.742859   -1.164246   -1.697012
  34 H     1.0000    0     1.008   -6.905237   -1.172457   -3.541625
  35 H     1.0000    0     1.008   -3.142632   -4.088601    6.028708
  36 H     1.0000    0     1.008   -0.923764   -4.008611    3.479616
  37 H     1.0000    0     1.008   -4.146067   -4.858624    2.886807

--------------------------------
INTERNAL COORDINATES (ANGSTROEM)
--------------------------------
 C      0   0   0     0.000000000000     0.00000000     0.00000000
 C      1   0   0     1.520118206918     0.00000000     0.00000000
 O      2   1   0     1.440253148226   110.85941217     0.00000000
 C      3   2   1     1.324935695382   118.24269336   277.36878392
 O      4   3   2     1.209555646443   124.11636468   355.90477613
 C      4   3   2     1.514242450160   112.49819654   176.93866156
 C      6   4   3     1.521280191939   113.55916707   349.96219969
 H      7   6   4     1.095785452979   110.09003800   175.26732569
 C      7   6   4     1.516361478452   112.97604657    55.22495555
 O      9   7   6     1.214414080626   122.40118335   222.51499359
 O      9   7   6     1.305956960271   112.17500178    44.35597864
 C     11   9   7     1.443545982158   118.11562877   174.42897540
 C     12  11   9     1.519771517014   110.37027105   273.88157215
 S      7   6   4     1.826420773351   111.60375674   294.11666568
 P     14   7   6     2.123584759414    98.16718794   179.91261184
 S     15  14   7     1.957672541883   117.39940295    26.29225253
 O     15  14   7     1.611737376674    99.61356136   147.32392382
 C     17  15  14     1.429212889666   121.45918965   290.11437589
 O     15  14   7     1.579884264591   112.34339739   250.09231720
 C     19  15  14     1.438390048875   122.65365059   328.32934285
 H      1   2   3     1.087085364821   110.20848420   305.56179761
 H      1   2   3     1.087272396165   109.99225361    65.54822427
 H      1   2   3     1.084861540757   109.30781668   185.30760657
 H      2   1   3     1.093669593940   110.82974874   239.46822548
 H      2   1   3     1.090654839497   111.53266340   115.97712401
 H      6   4   3     1.091065432435   107.82423303   227.26788412
 H      6   4   3     1.092611717251   107.63691201   111.02597507
 H     12  11   9     1.093131349375   108.64410987    35.66995562
 H     12  11   9     1.089894006167   104.41651455   153.80140908
 H     13  12  11     1.086313964918   110.27944042   301.68165004
 H     13  12  11     1.088910385420   110.18867326    61.57325293
 H     13  12  11     1.084820030843   109.42752206   181.32424288
 H     18  17  15     1.091496721786   110.02258497   311.28397278
 H     18  17  15     1.086916489460   105.69181929   192.10292093
 H     18  17  15     1.090075279721   109.93299128    72.58983180
 H     20  19  15     1.086886588851   105.15004828   191.41942260
 H     20  19  15     1.090133355611   109.11472973    72.86196578
 H     20  19  15     1.089098719050   110.45910452   311.12948602

---------------------------
INTERNAL COORDINATES (A.U.)
---------------------------
 C      0   0   0     0.000000000000     0.00000000     0.00000000
 C      1   0   0     2.872607102262     0.00000000     0.00000000
 O      2   1   0     2.721684013665   110.85941217     0.00000000
 C      3   2   1     2.503765609329   118.24269336   277.36878392
 O      4   3   2     2.285728915516   124.11636468   355.90477613
 C      4   3   2     2.861503531160   112.49819654   176.93866156
 C      6   4   3     2.874802935724   113.55916707   349.96219969
 H      7   6   4     2.070734407664   110.09003800   175.26732569
 C      7   6   4     2.865507914302   112.97604657    55.22495555
 O      9   7   6     2.294910025561   122.40118335   222.51499359
 O      9   7   6     2.467900997600   112.17500178    44.35597864
 C     11   9   7     2.727906568001   118.11562877   174.42897540
 C     12  11   9     2.871951953290   110.37027105   273.88157215
 S      7   6   4     3.451435066938   111.60375674   294.11666568
 P     14   7   6     4.012993617461    98.16718794   179.91261184
 S     15  14   7     3.699464964057   117.39940295    26.29225253
 O     15  14   7     3.045742241718    99.61356136   147.32392382
 C     17  15  14     2.700820948540   121.45918965   290.11437589
 O     15  14   7     2.985548583369   112.34339739   250.09231720
 C     19  15  14     2.718163266131   122.65365059   328.32934285
 H      1   2   3     2.054293623706   110.20848420   305.56179761
 H      1   2   3     2.054647061724   109.99225361    65.54822427
 H      1   2   3     2.050091205255   109.30781668   185.30760657
 H      2   1   3     2.066736013544   110.82974874   239.46822548
 H      2   1   3     2.061038953284   111.53266340   115.97712401
 H      6   4   3     2.061814861490   107.82423303   227.26788412
 H      6   4   3     2.064736916319   107.63691201   111.02597507
 H     12  11   9     2.065718878723   108.64410987    35.66995562
 H     12  11   9     2.059601186657   104.41651455   153.80140908
 H     13  12  11     2.052835889150   110.27944042   301.68165004
 H     13  12  11     2.057742412827   110.18867326    61.57325293
 H     13  12  11     2.050012762885   109.42752206   181.32424288
 H     18  17  15     2.062629880249   110.02258497   311.28397278
 H     18  17  15     2.053974495522   105.69181929   192.10292093
 H     18  17  15     2.059943744030   109.93299128    72.58983180
 H     20  19  15     2.053917991560   105.15004828   191.41942260
 H     20  19  15     2.060053491558   109.11472973    72.86196578
 H     20  19  15     2.058098311809   110.45910452   311.12948602

---------------------
BASIS SET INFORMATION
---------------------
There are 5 groups of distinct atoms

 Group   1 Type C   : 11s6p1d contracted to 5s3p1d pattern {62111/411/1}
 Group   2 Type O   : 11s6p2d contracted to 5s3p2d pattern {62111/411/11}
 Group   3 Type H   : 4s1p contracted to 2s1p pattern {31/1}
 Group   4 Type S   : 14s9p2d contracted to 5s4p2d pattern {73211/6111/11}
 Group   5 Type P   : 14s9p2d contracted to 5s4p2d pattern {73211/6111/11}

Atom   0C    basis set group =>   1
Atom   1C    basis set group =>   1
Atom   2O    basis set group =>   2
Atom   3C    basis set group =>   1
Atom   4O    basis set group =>   2
Atom   5C    basis set group =>   1
Atom   6C    basis set group =>   1
Atom   7H    basis set group =>   3
Atom   8C    basis set group =>   1
Atom   9O    basis set group =>   2
Atom  10O    basis set group =>   2
Atom  11C    basis set group =>   1
Atom  12C    basis set group =>   1
Atom  13S    basis set group =>   4
Atom  14P    basis set group =>   5
Atom  15S    basis set group =>   4
Atom  16O    basis set group =>   2
Atom  17C    basis set group =>   1
Atom  18O    basis set group =>   2
Atom  19C    basis set group =>   1
Atom  20H    basis set group =>   3
Atom  21H    basis set group =>   3
Atom  22H    basis set group =>   3
Atom  23H    basis set group =>   3
Atom  24H    basis set group =>   3
Atom  25H    basis set group =>   3
Atom  26H    basis set group =>   3
Atom  27H    basis set group =>   3
Atom  28H    basis set group =>   3
Atom  29H    basis set group =>   3
Atom  30H    basis set group =>   3
Atom  31H    basis set group =>   3
Atom  32H    basis set group =>   3
Atom  33H    basis set group =>   3
Atom  34H    basis set group =>   3
Atom  35H    basis set group =>   3
Atom  36H    basis set group =>   3
Atom  37H    basis set group =>   3
---------------------------------
AUXILIARY/J BASIS SET INFORMATION
---------------------------------
There are 5 groups of distinct atoms

 Group   1 Type C   : 12s5p4d2f1g contracted to 6s4p3d1f1g pattern {711111/2111/211/2/1}
 Group   2 Type O   : 12s5p4d2f1g contracted to 6s4p3d1f1g pattern {711111/2111/211/2/1}
 Group   3 Type H   : 5s2p1d contracted to 3s1p1d pattern {311/2/1}
 Group   4 Type S   : 14s5p5d2f1g contracted to 8s4p3d1f1g pattern {71111111/2111/311/2/1}
 Group   5 Type P   : 14s5p5d2f1g contracted to 8s4p3d1f1g pattern {71111111/2111/311/2/1}

Atom   0C    basis set group =>   1
Atom   1C    basis set group =>   1
Atom   2O    basis set group =>   2
Atom   3C    basis set group =>   1
Atom   4O    basis set group =>   2
Atom   5C    basis set group =>   1
Atom   6C    basis set group =>   1
Atom   7H    basis set group =>   3
Atom   8C    basis set group =>   1
Atom   9O    basis set group =>   2
Atom  10O    basis set group =>   2
Atom  11C    basis set group =>   1
Atom  12C    basis set group =>   1
Atom  13S    basis set group =>   4
Atom  14P    basis set group =>   5
Atom  15S    basis set group =>   4
Atom  16O    basis set group =>   2
Atom  17C    basis set group =>   1
Atom  18O    basis set group =>   2
Atom  19C    basis set group =>   1
Atom  20H    basis set group =>   3
Atom  21H    basis set group =>   3
Atom  22H    basis set group =>   3
Atom  23H    basis set group =>   3
Atom  24H    basis set group =>   3
Atom  25H    basis set group =>   3
Atom  26H    basis set group =>   3
Atom  27H    basis set group =>   3
Atom  28H    basis set group =>   3
Atom  29H    basis set group =>   3
Atom  30H    basis set group =>   3
Atom  31H    basis set group =>   3
Atom  32H    basis set group =>   3
Atom  33H    basis set group =>   3
Atom  34H    basis set group =>   3
Atom  35H    basis set group =>   3
Atom  36H    basis set group =>   3
Atom  37H    basis set group =>   3

Checking for AutoStart:
The File: sp_solv.gbw exists
Trying to determine its content:
     ... Fine, the file contains calculation information
     ... Fine, the calculation information was read
     ... Fine, the file contains a basis set
     ... Fine, the basis set was read
     ... Fine, the file contains a geometry
     ... Fine, the geometry was read
     ... Fine, the file contains a set of orbitals
     ... Fine, the orbitals can be read
     => possible old guess file was deleted
     => GBW file was renamed to GES file
     => GES file is set as startup file
     => Guess is set to MORead
     ... now leaving AutoStart

------------------------------------------------------------------------------
                             ORCA STARTUP CALCULATIONS
                           -- RI-GTO INTEGRALS CHOSEN --
------------------------------------------------------------------------------
------------------------------------------------------------------------------
                   ___                                                        
                  /   \      - P O W E R E D   B Y -                         
                 /     \                                                     
                 |  |  |   _    _      __       _____    __    __             
                 |  |  |  | |  | |    /  \     |  _  \  |  |  /  |          
                  \  \/   | |  | |   /    \    | | | |  |  | /  /          
                 / \  \   | |__| |  /  /\  \   | |_| |  |  |/  /          
                |  |  |   |  __  | /  /__\  \  |    /   |      \           
                |  |  |   | |  | | |   __   |  |    \   |  |\   \          
                \     /   | |  | | |  |  |  |  | |\  \  |  | \   \       
                 \___/    |_|  |_| |__|  |__|  |_| \__\ |__|  \__/        
                                                                              
                      - O R C A' S   B I G   F R I E N D -                    
                                      &                                       
                       - I N T E G R A L  F E E D E R -                       
                                                                              
 v1 FN, 2020, v2 2021, v3 2022-2024                                           
------------------------------------------------------------------------------


----------------------
SHARK INTEGRAL PACKAGE
----------------------

Number of atoms                             ...     38
Number of basis functions                   ...    510
Number of shells                            ...    240
Maximum angular momentum                    ...      2
Integral batch strategy                     ... SHARK/LIBINT Hybrid
RI-J (if used) integral strategy            ... SPLIT-RIJ (Revised 2003 algorithm where possible)
Printlevel                                  ...      1
Contraction scheme used                     ... SEGMENTED contraction
Prescreening option                         ... SCHWARTZ
   Thresh                                   ... 1.000e-10
   Tcut                                     ... 1.000e-11
   Tpresel                                  ... 1.000e-11 
Coulomb Range Separation                    ... NOT USED
Exchange Range Separation                   ... NOT USED
Multipole approximations                    ... NOT USED
Finite Nucleus Model                        ... NOT USED
CABS basis                                  ... NOT available
Auxiliary Coulomb fitting basis             ... AVAILABLE
   # of basis functions in Aux-J            ...   1146
   # of shells in Aux-J                     ...    386
   Maximum angular momentum in Aux-J        ...      4
Auxiliary J/K fitting basis                 ... NOT available
Auxiliary Correlation fitting basis         ... NOT available
Auxiliary 'external' fitting basis          ... NOT available

Checking pre-screening integrals            ... done (  0.0 sec) Dimension = 240
Check shell pair data                       ... done (  0.0 sec)
Shell pair information
Shell pair cut-off parameter TPreSel        ...   1.0e-11
Total number of shell pairs                 ...     28920
Shell pairs after pre-screening             ...     20679
Total number of primitive shell pairs       ...    108409
Primitive shell pairs kept                  ...     47643
          la=0 lb=0:   5982 shell pairs
          la=1 lb=0:   7491 shell pairs
          la=1 lb=1:   2378 shell pairs
          la=2 lb=0:   2766 shell pairs
          la=2 lb=1:   1725 shell pairs
          la=2 lb=2:    337 shell pairs

Calculating one electron integrals          ... done (  0.1 sec)
Calculating RI/J V-Matrix + Cholesky decomp.... done (  0.1 sec)
Calculating Nuclear repulsion               ... done (  0.0 sec) ENN=   2202.624030227744 Eh

Diagonalization of the overlap matrix:
Smallest eigenvalue                        ... 3.996e-05
Time for diagonalization                   ...    0.032 sec
Threshold for overlap eigenvalues          ... 1.000e-07
Number of eigenvalues below threshold      ... 0
Time for construction of square roots      ...    0.018 sec
Total time needed                          ...    0.051 sec

-------------------
DFT GRID GENERATION
-------------------

General Integration Accuracy     IntAcc      ... 4.388
Radial Grid Type                 RadialGrid  ... OptM3 with GC (2021)
Angular Grid (max. ang.)         AngularGrid ... 4 (Lebedev-302)
Angular grid pruning method      GridPruning ... 4 (adaptive)
Weight generation scheme         WeightScheme... mBecke (2022)
Basis function cutoff            BFCut       ... 1.0000e-10
Integration weight cutoff        WCut        ... 1.0000e-14
Partially contracted basis set               ... off
Rotationally invariant grid construction     ... off
Angular grids for H and He will be reduced by one unit
Diffuse basis detected: some atoms will have their outermost
                        angular grid increased by 1.

Total number of grid points                  ...   180002
Total number of batches                      ...     2833
Average number of points per batch           ...       63
Average number of grid points per atom       ...     4737
Initializing property integral containers    ... done (  0.0 sec)

SHARK setup successfully completed in   2.7 seconds

Maximum memory used throughout the entire STARTUP-calculation: 99.2 MB
-------------------------------------------------------------------------------
                                 ORCA GUESS
                   Start orbitals & Density for SCF / CASSCF
-------------------------------------------------------------------------------

------------
SCF SETTINGS
------------
Hamiltonian:
 Density Functional     Method          .... DFT(GTOs)
  Functional kind                       .... Exchange
  Functional name                       .... Re-regularized SCAN exchange by Furness et al
  Functional family                     .... MGGA
  Functional refs                              
    [ 0] J. W. Furness, A. D. Kaplan, J. Ning, J. P. Perdew, and J. Sun.,  J. Phys. Chem. Lett. 11, 8208-8215 (2020), doi: 10.1021/acs.jpclett.0c02405
    [ 1] J. W. Furness, A. D. Kaplan, J. Ning, J. P. Perdew, and J. Sun.,  J. Phys. Chem. Lett. 11, 9248-9248 (2020), doi: 10.1021/acs.jpclett.0c03077
  Functional external parameters        .... 6
    Parameter  0 _c1        =  6.670000e-01 : c1 parameter        
    Parameter  1 _c2        =  8.000000e-01 : c2 parameter        
    Parameter  2 _d         =  1.240000e+00 : d parameter         
    Parameter  3 _k1        =  6.500000e-02 : k1 parameter        
    Parameter  4 _eta       =  1.000000e-03 : eta parameter       
    Parameter  5 _dp2       =  3.610000e-01 : dp2 parameter       
  Functional kind                       .... Correlation
  Functional name                       .... Re-regularized SCAN correlation by Furness et al
  Functional family                     .... MGGA
  Functional refs                              
    [ 0] J. W. Furness, A. D. Kaplan, J. Ning, J. P. Perdew, and J. Sun.,  J. Phys. Chem. Lett. 11, 8208-8215 (2020), doi: 10.1021/acs.jpclett.0c02405
    [ 1] J. W. Furness, A. D. Kaplan, J. Ning, J. P. Perdew, and J. Sun.,  J. Phys. Chem. Lett. 11, 9248-9248 (2020), doi: 10.1021/acs.jpclett.0c03077
  Functional external parameters        .... 1
    Parameter  0 _eta       =  1.000000e-03 : Regularization parameter
 Gradients option       PostSCFGGA      .... off
 RI-approximation to the Coulomb term is turned on
   Number of AuxJ basis functions       .... 1146


General Settings:
 Integral files         IntName         .... sp_solv
 Hartree-Fock type      HFTyp           .... RHF
 Total Charge           Charge          ....    0
 Multiplicity           Mult            ....    1
 Number of Electrons    NEL             ....  174
 Basis Dimension        Dim             ....  510
 Nuclear Repulsion      ENuc            ....   2202.6240302277 Eh

Convergence Acceleration:
 AO-DIIS                CNVDIIS         .... on
   Start iteration      DIISMaxIt       ....    12
   Startup error        DIISStart       ....  0.200000
   # of expansion vecs  DIISMaxEq       ....     5
   Bias factor          DIISBfac        ....   1.050
   Max. coefficient     DIISMaxC        ....  10.000
 MO-DIIS                CNVKDIIS        .... off
 Trust-Rad. Augm. Hess. CNVTRAH         .... auto
   Auto Start mean grad. ratio tolernc. ....  1.125000
   Auto Start start iteration           ....     1
   Auto Start num. interpolation iter.  ....    10
   Max. Number of Micro iterations      ....    24
   Max. Number of Macro iterations      .... Maxiter - #DIIS iter
   Number of Davidson start vectors     ....     2
   Converg. threshold    (grad. norm)   ....   3.330e-04
   Grad. Scal. Fac. for Micro threshold ....   0.100
   Minimum threshold for Micro iter.    ....   1.000e-02
   NR start threshold (gradient norm)   ....   1.000e-04
   Initial trust radius                 ....   0.400
   Minimum AH scaling param. (alpha)    ....   1.000
   Maximum AH scaling param. (alpha)    .... 1000.000
   Quad. conv. algorithm                .... NR
   White noise on init. David. guess    .... on
   Maximum white noise                  ....   0.010
   Pseudo random numbers                .... off
   Inactive MOs                         .... canonical
   Orbital update algorithm             .... Taylor
   Preconditioner                       .... Diag
   Full preconditioner red. dimension   ....   250
   COSX micro iterations for RIJONX calc.... off
 SOSCF                  CNVSOSCF        .... on
   Start iteration      SOSCFMaxIt      ....   150
   Startup grad/error   SOSCFStart      ....  0.003300
   Hessian update       SOSCFHessUp     .... L-BFGS
 Level Shifting         CNVShift        .... on
   Level shift para.    LevelShift      ....    0.2500
   Turn off err/grad.   ShiftErr        ....    0.0010
 Zerner damping         CNVZerner       .... off
 Static damping         CNVDamp         .... on
   Fraction old density DampFac         ....    0.7000
   Max. Damping (<1)    DampMax         ....    0.9800
   Min. Damping (>=0)   DampMin         ....    0.0000
   Turn off err/grad.   DampErr         ....    0.1000

SCF Procedure:
 Maximum # iterations   MaxIter         ....   125
 SCF integral mode      SCFMode         .... Direct
   Integral package                     .... SHARK and LIBINT hybrid scheme
 Reset frequency        DirectResetFreq ....    20
 Integral Threshold     Thresh          ....  1.000e-10 Eh
 Primitive CutOff       TCut            ....  1.000e-11 Eh

Convergence Tolerance:
 Convergence Check Mode ConvCheckMode   .... Total+1el-Energy
 Convergence forced     ConvForced      .... 0
 Energy Change          TolE            ....  1.000e-06 Eh
 1-El. energy change                    ....  1.000e-03 Eh
 Orbital Gradient       TolG            ....  3.330e-04
 Orbital Rotation angle TolX            ....  3.330e-04
 DIIS Error             TolErr          ....  1.000e-06

---------------------
INITIAL GUESS: MOREAD
---------------------
Guess MOs are being read from file: sp_solv.ges
Input Geometry matches current geometry (good)
Atom 0: N(Shells)= 9 and 6 - projection required
Input basis set needs projection
NBasis(read)= 316
NBasis(calc)= 510
Basis set overlap was calculated
Using GuessMode=FMatrix for the initial guess
C*T matrix was formed
Effective Fockian was calculated
Effective Fockian was diagonalized
Initial density was built
                      ------------------
                      INITIAL GUESS DONE (   0.1 sec)
                      ------------------
             **** ENERGY FILE WAS UPDATED (sp_solv.en.tmp) ****
Finished Guess after   0.2 sec
Maximum memory used throughout the entire GUESS-calculation: 58.6 MB

-------------------------------------------------------------------------------------------
                                      ORCA LEAN-SCF
                              memory conserving SCF solver
-------------------------------------------------------------------------------------------

--------------------
CPCM SOLVATION MODEL
--------------------
CPCM parameters:
  Epsilon                                         ...      78.3550
  Refrac                                          ...       1.3328
  Rsolv                                           ...       1.3000
  Surface type                                    ... GAUSSIAN VDW
  Discretization scheme                           ... Constant charge density
    Threshold for H atoms                         ...       5.0000 (charges/Ang^2)
    Threshold for non-H atoms                     ...       5.0000 (charges/Ang^2)
  Epsilon function type                           ...         CPCM
Solvent:                                          ... WATER
SMD-CDS solvent descriptors:
  Soln                                            ...       1.3328
  Soln25                                          ...       1.3323
  Sola                                            ...       0.0000
  Solb                                            ...       0.0000
  Solg                                            ...       0.0000
  Solc                                            ...       0.0000
  Solh                                            ...       0.0000
Radii:
  Scheme                                          ... Element-dependent radii
  Radius for C  used is    3.4960 Bohr (=   1.8500 Ang.)
  Radius for O  used is    2.8724 Bohr (=   1.5200 Ang.)
  Radius for H  used is    2.2677 Bohr (=   1.2000 Ang.)
  Radius for S  used is    4.7054 Bohr (=   2.4900 Ang.)
  Radius for P  used is    4.0062 Bohr (=   2.1200 Ang.)
Calculating surface                               ...        done! (  0.0s)
Cavity surface points                             ...         2950
Cavity Volume                                     ...    2226.2335
Cavity Surface-area                               ...    1211.7203
Calculating surface distance matrix               ...        done! (  0.0s)
Performing Cholesky decomposition & store         ...        done! (  0.3s)
Overall time for CPCM initialization              ...                 0.3s

----------------------------------------D-I-I-S--------------------------------------------
Iteration    Energy (Eh)           Delta-E    RMSDP     MaxDP     DIISErr   Damp  Time(sec)
-------------------------------------------------------------------------------------------
               ***  Starting incremental Fock matrix formation  ***
    1    -1980.9946337549763484     0.00e+00  3.95e-03  5.17e-01  6.33e-01  0.700  11.9
    2    -1981.1444096255436307    -1.50e-01  3.00e-03  3.33e-01  4.45e-01  0.700  10.3
    3    -1981.2502507220578991    -1.06e-01  2.15e-03  2.22e-01  3.13e-01  0.700  10.1
    4    -1981.3245825155763669    -7.43e-02  1.53e-03  1.51e-01  2.19e-01  0.700  10.0
                               ***Turning on AO-DIIS***
    5    -1981.3767443748947699    -5.22e-02  1.09e-03  1.00e-01  1.53e-01  0.700   9.8
    6    -1981.4133002872604266    -3.66e-02  7.71e-04  7.00e-02  1.07e-01  0.700   9.6
    7    -1981.4389514146105284    -2.57e-02  5.43e-04  4.89e-02  7.49e-02  0.700   9.4
    8    -1981.4569259190257071    -1.80e-02  1.27e-03  1.12e-01  5.26e-02  0.000   9.2
                              *** Initializing SOSCF ***
---------------------------------------S-O-S-C-F--------------------------------------
Iteration    Energy (Eh)           Delta-E    RMSDP     MaxDP     MaxGrad    Time(sec)
--------------------------------------------------------------------------------------
    9    -1981.4989349479692464    -4.20e-02  1.08e-05  7.21e-04  2.62e-04     9.7
               *** Restarting incremental Fock matrix formation ***
   10    -1981.4989356303203749    -6.82e-07  1.03e-05  5.35e-04  5.61e-05    11.5
                  *** Gradient check signals convergence ***

               *****************************************************
               *                     SUCCESS                       *
               *           SCF CONVERGED AFTER  10 CYCLES          *
               *****************************************************


SMD CDS free energy correction energy :                 9.74303     Kcal/mol
Total Energy after SMD CDS correction =             -1981.483409123 Eh
             **** ENERGY FILE WAS UPDATED (sp_solv.en.tmp) ****

----------------
TOTAL SCF ENERGY
----------------

Total Energy       :      -1981.48340912319350 Eh          -53918.90475 eV

Components:
Nuclear Repulsion  :       2202.62403022774379 Eh           59936.44697 eV
Electronic Energy  :      -4184.08429760574836 Eh         -113854.72200 eV
One Electron Energy:      -7111.91729112786743 Eh         -193525.10812 eV
Two Electron Energy:       2927.83299352211907 Eh           79670.38612 eV
CPCM Dielectric    :         -0.03866825231556 Eh              -1.05222 eV
SMD CDS (Gcds)     :          0.01552650712693 Eh               0.42250 eV

Virial components:
Potential Energy   :      -3956.64756730706267 Eh         -107665.85393 eV
Kinetic Energy     :       1975.16415818386918 Eh           53746.94919 eV
Virial Ratio       :          2.00319935480458

DFT components:
N(Alpha)           :       86.999999484437 electrons
N(Beta)            :       86.999999484437 electrons
N(Total)           :      173.999998968875 electrons
E(X)               :     -181.430930389244 Eh       
E(C)               :       -5.975127263900 Eh       
E(XC)              :     -187.406057653144 Eh       

CPCM Solvation Model Properties:
Surface-charge          :         -0.04951638999612
Corrected charge        :         -0.00000000000000
Outlying charge corr.   :          0.00013545493456 Eh               0.00369 eV
Free-energy (cav+disp)  :          0.01552650712693 Eh               0.42250 eV

---------------
SCF CONVERGENCE
---------------

  Last Energy change         ...    6.8235e-07  Tolerance :   1.0000e-06
  Last MAX-Density change    ...    5.3539e-04  Tolerance :   1.0000e-05
  Last RMS-Density change    ...    1.0304e-05  Tolerance :   1.0000e-06
  Last DIIS Error            ...    2.6154e-04  Tolerance :   1.0000e-06
  Last Orbital Gradient      ...    5.6124e-05  Tolerance :   3.3300e-04
  Last Orbital Rotation      ...    2.5366e-04  Tolerance :   3.3300e-04


----------------
ORBITAL ENERGIES
----------------

  NO   OCC          E(Eh)            E(eV) 
   0   2.0000     -88.576665     -2410.2936 
   1   2.0000     -88.523114     -2408.8364 
   2   2.0000     -76.918457     -2093.0576 
   3   2.0000     -19.013507      -517.3838 
   4   2.0000     -19.010051      -517.2898 
   5   2.0000     -18.993282      -516.8335 
   6   2.0000     -18.986413      -516.6466 
   7   2.0000     -18.949058      -515.6301 
   8   2.0000     -18.948769      -515.6222 
   9   2.0000     -10.174715      -276.8681 
  10   2.0000     -10.172862      -276.8176 
  11   2.0000     -10.096639      -274.7435 
  12   2.0000     -10.088483      -274.5216 
  13   2.0000     -10.087424      -274.4927 
  14   2.0000     -10.084161      -274.4040 
  15   2.0000     -10.077508      -274.2229 
  16   2.0000     -10.062026      -273.8016 
  17   2.0000     -10.019966      -272.6571 
  18   2.0000     -10.019723      -272.6505 
  19   2.0000      -7.870903      -214.1782 
  20   2.0000      -7.818448      -212.7508 
  21   2.0000      -6.596217      -179.4922 
  22   2.0000      -5.817789      -158.3101 
  23   2.0000      -5.814923      -158.2321 
  24   2.0000      -5.807866      -158.0401 
  25   2.0000      -5.766232      -156.9071 
  26   2.0000      -5.758915      -156.7081 
  27   2.0000      -5.758010      -156.6834 
  28   2.0000      -4.741789      -129.0306 
  29   2.0000      -4.741442      -129.0212 
  30   2.0000      -4.739794      -128.9764 
  31   2.0000      -1.094881       -29.7932 
  32   2.0000      -1.086165       -29.5561 
  33   2.0000      -1.049089       -28.5472 
  34   2.0000      -1.005681       -27.3660 
  35   2.0000      -0.999948       -27.2100 
  36   2.0000      -0.996889       -27.1267 
  37   2.0000      -0.814826       -22.1725 
  38   2.0000      -0.748697       -20.3731 
  39   2.0000      -0.744255       -20.2522 
  40   2.0000      -0.726980       -19.7821 
  41   2.0000      -0.697265       -18.9736 
  42   2.0000      -0.664509       -18.0822 
  43   2.0000      -0.659149       -17.9363 
  44   2.0000      -0.653605       -17.7855 
  45   2.0000      -0.626945       -17.0600 
  46   2.0000      -0.599903       -16.3242 
  47   2.0000      -0.538002       -14.6398 
  48   2.0000      -0.529139       -14.3986 
  49   2.0000      -0.524737       -14.2788 
  50   2.0000      -0.506369       -13.7790 
  51   2.0000      -0.487994       -13.2790 
  52   2.0000      -0.485659       -13.2154 
  53   2.0000      -0.478629       -13.0242 
  54   2.0000      -0.458524       -12.4771 
  55   2.0000      -0.454190       -12.3591 
  56   2.0000      -0.447589       -12.1795 
  57   2.0000      -0.443528       -12.0690 
  58   2.0000      -0.434897       -11.8341 
  59   2.0000      -0.424767       -11.5585 
  60   2.0000      -0.419849       -11.4247 
  61   2.0000      -0.412591       -11.2272 
  62   2.0000      -0.409110       -11.1325 
  63   2.0000      -0.405616       -11.0374 
  64   2.0000      -0.392608       -10.6834 
  65   2.0000      -0.389079       -10.5874 
  66   2.0000      -0.374554       -10.1921 
  67   2.0000      -0.364844        -9.9279 
  68   2.0000      -0.360962        -9.8223 
  69   2.0000      -0.353151        -9.6097 
  70   2.0000      -0.347427        -9.4540 
  71   2.0000      -0.343764        -9.3543 
  72   2.0000      -0.338231        -9.2037 
  73   2.0000      -0.329610        -8.9691 
  74   2.0000      -0.315703        -8.5907 
  75   2.0000      -0.312442        -8.5020 
  76   2.0000      -0.310403        -8.4465 
  77   2.0000      -0.305789        -8.3209 
  78   2.0000      -0.292340        -7.9550 
  79   2.0000      -0.287734        -7.8296 
  80   2.0000      -0.280817        -7.6414 
  81   2.0000      -0.274628        -7.4730 
  82   2.0000      -0.261245        -7.1088 
  83   2.0000      -0.257760        -7.0140 
  84   2.0000      -0.239230        -6.5098 
  85   2.0000      -0.224491        -6.1087 
  86   2.0000      -0.218508        -5.9459 
  87   0.0000      -0.049348        -1.3428 
  88   0.0000      -0.031219        -0.8495 
  89   0.0000      -0.027372        -0.7448 
  90   0.0000       0.003692         0.1005 
  91   0.0000       0.018695         0.5087 
  92   0.0000       0.034165         0.9297 
  93   0.0000       0.051398         1.3986 
  94   0.0000       0.067301         1.8314 
  95   0.0000       0.086163         2.3446 
  96   0.0000       0.087904         2.3920 
  97   0.0000       0.100397         2.7319 
*Only the first 10 virtual orbitals were printed.

                    ********************************
                    * MULLIKEN POPULATION ANALYSIS *
                    ********************************

-----------------------
MULLIKEN ATOMIC CHARGES
-----------------------
   0 C :   -0.486714
   1 C :   -0.167294
   2 O :   -0.113129
   3 C :    0.332605
   4 O :   -0.469394
   5 C :   -0.423690
   6 C :    0.033398
   7 H :    0.271577
   8 C :    0.277673
   9 O :   -0.457506
  10 O :   -0.150966
  11 C :   -0.132608
  12 C :   -0.502614
  13 S :   -0.206846
  14 P :    0.804244
  15 S :   -0.516421
  16 O :   -0.396973
  17 C :   -0.309151
  18 O :   -0.348882
  19 C :   -0.306730
  20 H :    0.166976
  21 H :    0.172662
  22 H :    0.173535
  23 H :    0.175626
  24 H :    0.182176
  25 H :    0.226872
  26 H :    0.233072
  27 H :    0.177821
  28 H :    0.179168
  29 H :    0.170233
  30 H :    0.170679
  31 H :    0.173471
  32 H :    0.174898
  33 H :    0.176304
  34 H :    0.171739
  35 H :    0.181435
  36 H :    0.180757
  37 H :    0.181997
Sum of atomic charges:   -0.0000000

--------------------------------
MULLIKEN REDUCED ORBITAL CHARGES
--------------------------------
  0 C s       :     3.336534  s :     3.336534
      pz      :     1.096448  p :     3.124689
      px      :     1.071179
      py      :     0.957062
      dz2     :     0.007041  d :     0.025491
      dxz     :     0.002817
      dyz     :     0.004095
      dx2y2   :     0.005785
      dxy     :     0.005753

  1 C s       :     3.281638  s :     3.281638
      pz      :     1.073789  p :     2.832995
      px      :     0.968033
      py      :     0.791173
      dz2     :     0.011107  d :     0.052661
      dxz     :     0.005949
      dyz     :     0.008801
      dx2y2   :     0.013633
      dxy     :     0.013171

  2 O s       :     3.690164  s :     3.690164
      pz      :     1.272406  p :     4.382570
      px      :     1.636616
      py      :     1.473548
      dz2     :     0.013193  d :     0.040395
      dxz     :     0.008297
      dyz     :     0.000154
      dx2y2   :     0.011511
      dxy     :     0.007240

  3 C s       :     3.166812  s :     3.166812
      pz      :     0.801886  p :     2.374655
      px      :     0.791139
      py      :     0.781629
      dz2     :     0.042891  d :     0.125928
      dxz     :     0.026796
      dyz     :     0.024922
      dx2y2   :     0.014363
      dxy     :     0.016956

  4 O s       :     3.833623  s :     3.833623
      pz      :     1.594888  p :     4.615231
      px      :     1.446104
      py      :     1.574240
      dz2     :     0.000832  d :     0.020539
      dxz     :     0.006378
      dyz     :     0.005350
      dx2y2   :     0.005923
      dxy     :     0.002056

  5 C s       :     3.303487  s :     3.303487
      pz      :     1.051300  p :     3.086114
      px      :     0.988799
      py      :     1.046016
      dz2     :     0.007184  d :     0.034088
      dxz     :     0.008204
      dyz     :     0.004259
      dx2y2   :     0.003653
      dxy     :     0.010787

  6 C s       :     2.944824  s :     2.944824
      pz      :     0.932381  p :     2.978123
      px      :     1.020237
      py      :     1.025505
      dz2     :     0.010378  d :     0.043656
      dxz     :     0.010390
      dyz     :     0.006579
      dx2y2   :     0.006052
      dxy     :     0.010256

  7 H s       :     0.709984  s :     0.709984
      pz      :     0.003808  p :     0.018439
      px      :     0.005956
      py      :     0.008675

  8 C s       :     3.218041  s :     3.218041
      pz      :     0.860315  p :     2.376700
      px      :     0.717624
      py      :     0.798761
      dz2     :     0.035102  d :     0.127586
      dxz     :     0.028668
      dyz     :     0.022813
      dx2y2   :     0.021073
      dxy     :     0.019930

  9 O s       :     3.829238  s :     3.829238
      pz      :     1.455037  p :     4.593517
      px      :     1.579753
      py      :     1.558727
      dz2     :     0.010080  d :     0.034751
      dxz     :     0.005370
      dyz     :     0.007157
      dx2y2   :     0.007635
      dxy     :     0.004507

 10 O s       :     3.700807  s :     3.700807
      pz      :     1.520534  p :     4.411739
      px      :     1.367055
      py      :     1.524151
      dz2     :     0.009589  d :     0.038420
      dxz     :     0.005983
      dyz     :     0.010449
      dx2y2   :     0.010167
      dxy     :     0.002233

 11 C s       :     3.263711  s :     3.263711
      pz      :     0.813986  p :     2.816572
      px      :     1.009886
      py      :     0.992699
      dz2     :     0.010817  d :     0.052325
      dxz     :     0.009819
      dyz     :     0.014929
      dx2y2   :     0.010300
      dxy     :     0.006460

 12 C s       :     3.344857  s :     3.344857
      pz      :     1.097030  p :     3.132269
      px      :     1.064103
      py      :     0.971137
      dz2     :     0.003727  d :     0.025488
      dxz     :     0.003533
      dyz     :     0.006969
      dx2y2   :     0.006920
      dxy     :     0.004339

 13 S s       :     5.949836  s :     5.949836
      pz      :     3.499513  p :    10.159266
      px      :     3.295724
      py      :     3.364028
      dz2     :     0.016995  d :     0.097744
      dxz     :     0.019224
      dyz     :     0.018194
      dx2y2   :     0.014782
      dxy     :     0.028548

 14 P s       :     5.083923  s :     5.083923
      pz      :     2.812594  p :     8.401002
      px      :     2.799545
      py      :     2.788863
      dz2     :     0.125097  d :     0.710831
      dxz     :     0.106049
      dyz     :     0.187658
      dx2y2   :     0.112477
      dxy     :     0.179551

 15 S s       :     5.898280  s :     5.898280
      pz      :     3.698764  p :    10.556244
      px      :     3.723809
      py      :     3.133671
      dz2     :     0.008987  d :     0.061898
      dxz     :     0.002016
      dyz     :     0.012660
      dx2y2   :     0.025921
      dxy     :     0.012313

 16 O s       :     3.764273  s :     3.764273
      pz      :     1.463517  p :     4.597072
      px      :     1.390421
      py      :     1.743134
      dz2     :     0.016454  d :     0.035628
      dxz     :     0.005392
      dyz     :     0.003569
      dx2y2   :     0.000075
      dxy     :     0.010138

 17 C s       :     3.343433  s :     3.343433
      pz      :     0.813939  p :     2.921601
      px      :     1.010361
      py      :     1.097302
      dz2     :     0.013442  d :     0.044116
      dxz     :     0.010656
      dyz     :     0.007538
      dx2y2   :     0.007791
      dxy     :     0.004690

 18 O s       :     3.741148  s :     3.741148
      pz      :     1.488631  p :     4.579757
      px      :     1.802636
      py      :     1.288490
      dz2     :     0.009925  d :     0.027978
      dxz     :     0.001117
      dyz     :     0.006121
      dx2y2   :     0.006687
      dxy     :     0.004128

 19 C s       :     3.350578  s :     3.350578
      pz      :     1.135099  p :     2.913064
      px      :     1.095120
      py      :     0.682845
      dz2     :     0.008559  d :     0.043089
      dxz     :     0.002930
      dyz     :     0.007843
      dx2y2   :     0.012834
      dxy     :     0.010924

 20 H s       :     0.814715  s :     0.814715
      pz      :     0.004427  p :     0.018309
      px      :     0.010455
      py      :     0.003427

 21 H s       :     0.809053  s :     0.809053
      pz      :     0.011018  p :     0.018284
      px      :     0.003582
      py      :     0.003684

 22 H s       :     0.807945  s :     0.807945
      pz      :     0.005052  p :     0.018520
      px      :     0.005535
      py      :     0.007932

 23 H s       :     0.806559  s :     0.806559
      pz      :     0.004738  p :     0.017816
      px      :     0.010490
      py      :     0.002587

 24 H s       :     0.800294  s :     0.800294
      pz      :     0.011703  p :     0.017530
      px      :     0.003089
      py      :     0.002738

 25 H s       :     0.755041  s :     0.755041
      pz      :     0.009556  p :     0.018088
      px      :     0.004741
      py      :     0.003791

 26 H s       :     0.748642  s :     0.748642
      pz      :     0.003654  p :     0.018286
      px      :     0.005797
      py      :     0.008835

 27 H s       :     0.804259  s :     0.804259
      pz      :     0.007063  p :     0.017920
      px      :     0.003238
      py      :     0.007618

 28 H s       :     0.803265  s :     0.803265
      pz      :     0.002771  p :     0.017567
      px      :     0.011191
      py      :     0.003606

 29 H s       :     0.811482  s :     0.811482
      pz      :     0.007292  p :     0.018285
      px      :     0.003595
      py      :     0.007398

 30 H s       :     0.810992  s :     0.810992
      pz      :     0.003861  p :     0.018330
      px      :     0.010703
      py      :     0.003766

 31 H s       :     0.808011  s :     0.808011
      pz      :     0.009012  p :     0.018518
      px      :     0.004977
      py      :     0.004529

 32 H s       :     0.806881  s :     0.806881
      pz      :     0.002658  p :     0.018221
      px      :     0.003289
      py      :     0.012275

 33 H s       :     0.805822  s :     0.805822
      pz      :     0.002535  p :     0.017874
      px      :     0.010607
      py      :     0.004732

 34 H s       :     0.810267  s :     0.810267
      pz      :     0.008488  p :     0.017994
      px      :     0.004874
      py      :     0.004632

 35 H s       :     0.800685  s :     0.800685
      pz      :     0.011647  p :     0.017880
      px      :     0.003669
      py      :     0.002564

 36 H s       :     0.801284  s :     0.801284
      pz      :     0.004178  p :     0.017959
      px      :     0.011350
      py      :     0.002431

 37 H s       :     0.800041  s :     0.800041
      pz      :     0.006021  p :     0.017962
      px      :     0.006532
      py      :     0.005410


------------------------
MULLIKEN OVERLAP CHARGES
------------------------
B(  0-C ,  1-C ) :   0.4695 B(  0-C ,  2-O ) :  -0.1120 B(  0-C , 20-H ) :   0.8292 
B(  0-C , 21-H ) :   0.8428 B(  0-C , 22-H ) :   0.8007 B(  0-C , 23-H ) :  -0.0772 
B(  1-C ,  2-O ) :   0.2260 B(  1-C ,  3-C ) :  -0.1397 B(  1-C , 20-H ) :  -0.0725 
B(  1-C , 21-H ) :  -0.0855 B(  1-C , 22-H ) :  -0.0654 B(  1-C , 23-H ) :   0.8363 
B(  1-C , 24-H ) :   0.8132 B(  2-O ,  3-C ) :   0.3949 B(  2-O ,  4-O ) :  -0.2249 
B(  2-O ,  5-C ) :  -0.2197 B(  2-O ,  8-C ) :   0.2171 B(  2-O , 24-H ) :  -0.0888 
B(  3-C ,  4-O ) :   1.0861 B(  3-C ,  6-C ) :   0.2993 B(  3-C ,  8-C ) :  -0.2228 
B(  3-C , 25-H ) :  -0.0732 B(  4-O ,  5-C ) :  -0.2166 B(  5-C ,  6-C ) :  -0.6325 
B(  5-C ,  8-C ) :   0.1339 B(  5-C , 10-O ) :   0.1775 B(  5-C , 25-H ) :   0.8578 
B(  5-C , 26-H ) :   0.7192 B(  6-C ,  7-H ) :   0.8102 B(  6-C ,  8-C ) :  -0.4032 
B(  6-C ,  9-O ) :  -0.1559 B(  6-C , 10-O ) :  -0.1362 B(  6-C , 13-S ) :   0.3751 
B(  6-C , 15-S ) :   0.0531 B(  6-C , 25-H ) :  -0.1007 B(  7-H ,  8-C ) :  -0.0519 
B(  7-H , 13-S ) :  -0.0724 B(  8-C ,  9-O ) :   0.7566 B(  8-C , 10-O ) :   0.3818 
B(  8-C , 11-C ) :  -0.2225 B(  8-C , 13-S ) :  -0.1777 B(  8-C , 14-P ) :  -0.0639 
B(  9-O , 10-O ) :  -0.1804 B(  9-O , 14-P ) :   0.0936 B(  9-O , 15-S ) :  -0.0618 
B( 10-O , 11-C ) :   0.2972 B( 10-O , 12-C ) :  -0.1070 B( 10-O , 27-H ) :  -0.0582 
B( 10-O , 28-H ) :  -0.0859 B( 11-C , 12-C ) :   0.5133 B( 11-C , 27-H ) :   0.8511 
B( 11-C , 28-H ) :   0.7980 B( 11-C , 29-H ) :  -0.0651 B( 11-C , 30-H ) :  -0.0832 
B( 11-C , 31-H ) :  -0.0702 B( 12-C , 27-H ) :  -0.0720 B( 12-C , 29-H ) :   0.8334 
B( 12-C , 30-H ) :   0.8356 B( 12-C , 31-H ) :   0.8061 B( 13-S , 14-P ) :   0.5925 
B( 13-S , 15-S ) :  -0.1093 B( 13-S , 16-O ) :  -0.1065 B( 13-S , 18-O ) :  -0.0770 
B( 14-P , 15-S ) :   1.2687 B( 14-P , 16-O ) :   0.4147 B( 14-P , 17-C ) :  -0.1717 
B( 14-P , 18-O ) :   0.7620 B( 14-P , 19-C ) :  -0.1867 B( 15-S , 16-O ) :  -0.1021 
B( 15-S , 18-O ) :  -0.1004 B( 16-O , 17-C ) :   0.3632 B( 16-O , 18-O ) :  -0.2571 
B( 16-O , 32-H ) :  -0.0849 B( 16-O , 33-H ) :  -0.0879 B( 16-O , 34-H ) :  -0.0732 
B( 17-C , 32-H ) :   0.8285 B( 17-C , 33-H ) :   0.8013 B( 17-C , 34-H ) :   0.8031 
B( 18-O , 19-C ) :   0.3128 B( 18-O , 35-H ) :  -0.0756 B( 18-O , 36-H ) :  -0.0776 
B( 18-O , 37-H ) :  -0.0745 B( 19-C , 35-H ) :   0.7874 B( 19-C , 36-H ) :   0.8017 
B( 19-C , 37-H ) :   0.8229 B( 32-H , 34-H ) :  -0.0608 B( 36-H , 37-H ) :  -0.0602 



                     *******************************
                     * LOEWDIN POPULATION ANALYSIS *
                     *******************************

----------------------
LOEWDIN ATOMIC CHARGES
----------------------
   0 C :   -0.390737
   1 C :    0.041783
   2 O :   -0.607031
   3 C :    0.372970
   4 O :   -0.470256
   5 C :   -0.194334
   6 C :   -0.191189
   7 H :    0.217240
   8 C :    0.349762
   9 O :   -0.493063
  10 O :   -0.566296
  11 C :    0.043013
  12 C :   -0.391240
  13 S :    0.230913
  14 P :    0.404582
  15 S :   -0.135815
  16 O :   -0.708865
  17 C :   -0.063202
  18 O :   -0.672852
  19 C :   -0.046311
  20 H :    0.162934
  21 H :    0.163957
  22 H :    0.169036
  23 H :    0.191946
  24 H :    0.191983
  25 H :    0.205263
  26 H :    0.218044
  27 H :    0.192672
  28 H :    0.191948
  29 H :    0.163048
  30 H :    0.163908
  31 H :    0.169187
  32 H :    0.176011
  33 H :    0.186618
  34 H :    0.174003
  35 H :    0.191542
  36 H :    0.179618
  37 H :    0.179211

-------------------------------
LOEWDIN REDUCED ORBITAL CHARGES
-------------------------------
  0 C s       :     2.972839  s :     2.972839
      pz      :     1.156706  p :     3.358056
      px      :     1.143480
      py      :     1.057870
      dz2     :     0.017090  d :     0.059842
      dxz     :     0.006687
      dyz     :     0.009047
      dx2y2   :     0.013505
      dxy     :     0.013513

  1 C s       :     2.869082  s :     2.869082
      pz      :     1.065217  p :     2.971169
      px      :     1.007782
      py      :     0.898170
      dz2     :     0.027797  d :     0.117965
      dxz     :     0.012748
      dyz     :     0.017112
      dx2y2   :     0.030996
      dxy     :     0.029312

  2 O s       :     3.454462  s :     3.454462
      pz      :     1.446008  p :     4.629311
      px      :     1.648968
      py      :     1.534336
      dz2     :     0.132944  d :     0.523258
      dxz     :     0.092624
      dyz     :     0.116278
      dx2y2   :     0.098003
      dxy     :     0.083409

  3 C s       :     2.732465  s :     2.732465
      pz      :     0.903007  p :     2.620038
      px      :     0.862951
      py      :     0.854080
      dz2     :     0.098544  d :     0.274527
      dxz     :     0.061185
      dyz     :     0.052306
      dx2y2   :     0.025031
      dxy     :     0.037461

  4 O s       :     3.541414  s :     3.541414
      pz      :     1.618881  p :     4.712532
      px      :     1.511443
      py      :     1.582208
      dz2     :     0.054135  d :     0.216310
      dxz     :     0.052042
      dyz     :     0.035144
      dx2y2   :     0.028920
      dxy     :     0.046068

  5 C s       :     2.914566  s :     2.914566
      pz      :     1.081711  p :     3.207371
      px      :     1.047997
      py      :     1.077663
      dz2     :     0.015087  d :     0.072398
      dxz     :     0.019274
      dyz     :     0.008188
      dx2y2   :     0.007130
      dxy     :     0.022719

  6 C s       :     2.914088  s :     2.914088
      pz      :     1.040546  p :     3.186889
      px      :     1.064584
      py      :     1.081759
      dz2     :     0.020632  d :     0.090212
      dxz     :     0.021593
      dyz     :     0.012786
      dx2y2   :     0.011523
      dxy     :     0.023678

  7 H s       :     0.734638  s :     0.734638
      pz      :     0.010129  p :     0.048122
      px      :     0.014813
      py      :     0.023180

  8 C s       :     2.729915  s :     2.729915
      pz      :     1.003137  p :     2.640941
      px      :     0.849139
      py      :     0.788665
      dz2     :     0.078851  d :     0.279382
      dxz     :     0.063574
      dyz     :     0.047496
      dx2y2   :     0.041141
      dxy     :     0.048320

  9 O s       :     3.528881  s :     3.528881
      pz      :     1.565989  p :     4.658119
      px      :     1.558271
      py      :     1.533858
      dz2     :     0.086471  d :     0.306064
      dxz     :     0.072026
      dyz     :     0.055752
      dx2y2   :     0.039679
      dxy     :     0.052135

 10 O s       :     3.445149  s :     3.445149
      pz      :     1.574707  p :     4.634003
      px      :     1.496320
      py      :     1.562975
      dz2     :     0.104393  d :     0.487145
      dxz     :     0.108239
      dyz     :     0.100465
      dx2y2   :     0.082738
      dxy     :     0.091310

 11 C s       :     2.871538  s :     2.871538
      pz      :     0.889834  p :     2.968334
      px      :     1.038735
      py      :     1.039765
      dz2     :     0.025488  d :     0.117115
      dxz     :     0.020866
      dyz     :     0.035064
      dx2y2   :     0.022476
      dxy     :     0.013221

 12 C s       :     2.973669  s :     2.973669
      pz      :     1.140532  p :     3.357733
      px      :     1.139545
      py      :     1.077656
      dz2     :     0.009016  d :     0.059838
      dxz     :     0.008285
      dyz     :     0.016746
      dx2y2   :     0.015873
      dxy     :     0.009919

 13 S s       :     5.410083  s :     5.410083
      pz      :     3.437614  p :    10.065877
      px      :     3.253167
      py      :     3.375095
      dz2     :     0.045290  d :     0.293127
      dxz     :     0.066696
      dyz     :     0.048966
      dx2y2   :     0.051653
      dxy     :     0.080521

 14 P s       :     4.655926  s :     4.655926
      pz      :     2.757418  p :     8.374039
      px      :     2.723835
      py      :     2.892786
      dz2     :     0.315704  d :     1.565454
      dxz     :     0.271899
      dyz     :     0.343087
      dx2y2   :     0.312437
      dxy     :     0.322326

 15 S s       :     5.553865  s :     5.553865
      pz      :     3.630746  p :    10.446431
      px      :     3.625188
      py      :     3.190497
      dz2     :     0.022348  d :     0.135520
      dxz     :     0.004770
      dyz     :     0.021182
      dx2y2   :     0.063273
      dxy     :     0.023947

 16 O s       :     3.474142  s :     3.474142
      pz      :     1.529473  p :     4.758494
      px      :     1.520618
      py      :     1.708403
      dz2     :     0.115303  d :     0.476229
      dxz     :     0.121076
      dyz     :     0.067723
      dx2y2   :     0.095185
      dxy     :     0.076942

 17 C s       :     2.917058  s :     2.917058
      pz      :     0.896125  p :     3.040806
      px      :     1.038788
      py      :     1.105892
      dz2     :     0.032561  d :     0.105339
      dxz     :     0.024917
      dyz     :     0.017510
      dx2y2   :     0.020146
      dxy     :     0.010204

 18 O s       :     3.464719  s :     3.464719
      pz      :     1.580757  p :     4.737978
      px      :     1.724110
      py      :     1.433111
      dz2     :     0.097482  d :     0.470155
      dxz     :     0.048343
      dyz     :     0.137044
      dx2y2   :     0.097993
      dxy     :     0.089293

 19 C s       :     2.917204  s :     2.917204
      pz      :     1.124011  p :     3.026469
      px      :     1.103312
      py      :     0.799146
      dz2     :     0.021266  d :     0.102638
      dxz     :     0.006659
      dyz     :     0.019297
      dx2y2   :     0.030460
      dxy     :     0.024957

 20 H s       :     0.793087  s :     0.793087
      pz      :     0.010444  p :     0.043979
      px      :     0.026064
      py      :     0.007471

 21 H s       :     0.791691  s :     0.791691
      pz      :     0.028113  p :     0.044352
      px      :     0.008043
      py      :     0.008196

 22 H s       :     0.786315  s :     0.786315
      pz      :     0.011970  p :     0.044649
      px      :     0.013335
      py      :     0.019345

 23 H s       :     0.765186  s :     0.765186
      pz      :     0.011873  p :     0.042867
      px      :     0.024557
      py      :     0.006438

 24 H s       :     0.767381  s :     0.767381
      pz      :     0.027393  p :     0.040636
      px      :     0.006860
      py      :     0.006382

 25 H s       :     0.749432  s :     0.749432
      pz      :     0.024644  p :     0.045306
      px      :     0.011181
      py      :     0.009481

 26 H s       :     0.736146  s :     0.736146
      pz      :     0.008524  p :     0.045810
      px      :     0.014704
      py      :     0.022582

 27 H s       :     0.764186  s :     0.764186
      pz      :     0.015990  p :     0.043141
      px      :     0.007600
      py      :     0.019551

 28 H s       :     0.767325  s :     0.767325
      pz      :     0.006807  p :     0.040726
      px      :     0.025797
      py      :     0.008122

 29 H s       :     0.792971  s :     0.792971
      pz      :     0.018054  p :     0.043980
      px      :     0.008124
      py      :     0.017802

 30 H s       :     0.791789  s :     0.791789
      pz      :     0.008698  p :     0.044303
      px      :     0.026946
      py      :     0.008659

 31 H s       :     0.786150  s :     0.786150
      pz      :     0.022278  p :     0.044663
      px      :     0.011921
      py      :     0.010464

 32 H s       :     0.781310  s :     0.781310
      pz      :     0.005821  p :     0.042679
      px      :     0.007141
      py      :     0.029717

 33 H s       :     0.772455  s :     0.772455
      pz      :     0.005592  p :     0.040927
      px      :     0.024305
      py      :     0.011030

 34 H s       :     0.783938  s :     0.783938
      pz      :     0.019107  p :     0.042059
      px      :     0.011794
      py      :     0.011158

 35 H s       :     0.767392  s :     0.767392
      pz      :     0.028167  p :     0.041066
      px      :     0.008026
      py      :     0.004872

 36 H s       :     0.778315  s :     0.778315
      pz      :     0.009474  p :     0.042067
      px      :     0.027524
      py      :     0.005069

 37 H s       :     0.778565  s :     0.778565
      pz      :     0.014334  p :     0.042225
      px      :     0.016082
      py      :     0.011809


---------------------------------
LOEWDIN BOND ORDERS (THRESH 0.050000)
---------------------------------
B(  0-C ,  1-C ) :   1.0815 B(  0-C ,  2-O ) :   0.1567 B(  0-C , 20-H ) :   0.9211 
B(  0-C , 21-H ) :   0.9185 B(  0-C , 22-H ) :   0.9137 B(  1-C ,  2-O ) :   1.2910 
B(  1-C ,  3-C ) :   0.0829 B(  1-C ,  4-O ) :   0.0621 B(  1-C , 23-H ) :   0.8156 
B(  1-C , 24-H ) :   0.8261 B(  2-O ,  3-C ) :   1.4500 B(  2-O ,  4-O ) :   0.4564 
B(  2-O ,  5-C ) :   0.1673 B(  2-O ,  6-C ) :   0.0566 B(  2-O ,  8-C ) :   0.0654 
B(  2-O , 13-S ) :   0.0612 B(  2-O , 23-H ) :   0.0923 B(  2-O , 24-H ) :   0.0979 
B(  3-C ,  4-O ) :   2.1557 B(  3-C ,  5-C ) :   0.9119 B(  3-C ,  6-C ) :   0.0632 
B(  4-O ,  5-C ) :   0.1883 B(  5-C ,  6-C ) :   1.0368 B(  5-C ,  8-C ) :   0.0639 
B(  5-C , 13-S ) :   0.1081 B(  5-C , 25-H ) :   0.8469 B(  5-C , 26-H ) :   0.8299 
B(  6-C ,  7-H ) :   0.7971 B(  6-C ,  8-C ) :   0.8524 B(  6-C ,  9-O ) :   0.1779 
B(  6-C , 10-O ) :   0.1650 B(  6-C , 13-S ) :   1.2258 B(  6-C , 14-P ) :   0.0823 
B(  7-H , 13-S ) :   0.0557 B(  8-C ,  9-O ) :   2.0504 B(  8-C , 10-O ) :   1.4988 
B(  8-C , 11-C ) :   0.0857 B(  8-C , 13-S ) :   0.1158 B(  9-O , 10-O ) :   0.4368 
B(  9-O , 11-C ) :   0.0623 B(  9-O , 13-S ) :   0.1188 B(  9-O , 14-P ) :   0.1435 
B(  9-O , 15-S ) :   0.0802 B(  9-O , 18-O ) :   0.1090 B( 10-O , 11-C ) :   1.2832 
B( 10-O , 12-C ) :   0.1579 B( 10-O , 27-H ) :   0.0909 B( 10-O , 28-H ) :   0.0963 
B( 11-C , 12-C ) :   1.0838 B( 11-C , 27-H ) :   0.8158 B( 11-C , 28-H ) :   0.8279 
B( 11-C , 31-H ) :   0.0500 B( 12-C , 29-H ) :   0.9226 B( 12-C , 30-H ) :   0.9170 
B( 12-C , 31-H ) :   0.9137 B( 13-S , 14-P ) :   1.2000 B( 13-S , 15-S ) :   0.1398 
B( 13-S , 16-O ) :   0.1657 B( 13-S , 18-O ) :   0.1243 B( 14-P , 15-S ) :   1.9859 
B( 14-P , 16-O ) :   1.5053 B( 14-P , 17-C ) :   0.0969 B( 14-P , 18-O ) :   1.5588 
B( 14-P , 19-C ) :   0.0997 B( 15-S , 16-O ) :   0.1857 B( 15-S , 18-O ) :   0.1536 
B( 16-O , 17-C ) :   1.3609 B( 16-O , 18-O ) :   0.2438 B( 16-O , 32-H ) :   0.1035 
B( 16-O , 33-H ) :   0.1027 B( 16-O , 34-H ) :   0.1039 B( 17-C , 32-H ) :   0.8579 
B( 17-C , 33-H ) :   0.8575 B( 17-C , 34-H ) :   0.8621 B( 18-O , 19-C ) :   1.3339 
B( 18-O , 35-H ) :   0.1028 B( 18-O , 36-H ) :   0.1022 B( 18-O , 37-H ) :   0.1009 
B( 19-C , 35-H ) :   0.8547 B( 19-C , 36-H ) :   0.8598 B( 19-C , 37-H ) :   0.8619 


------------------------------------------
LOEWDIN REDUCED ORBITAL POPULATIONS PER MO
-------------------------------------------
THRESHOLD FOR PRINTING IS 0.1%%
                      0         1         2         3         4         5   
                 -88.57666 -88.52311 -76.91846 -19.01351 -19.01005 -18.99328
                   2.00000   2.00000   2.00000   2.00000   2.00000   2.00000
                  --------  --------  --------  --------  --------  --------
 2 O  s               0.0       0.0       0.0       0.0      99.9       0.0
10 O  s               0.0       0.0       0.0      99.9       0.0       0.0
13 S  s             100.0       0.0       0.0       0.0       0.0       0.0
14 P  s               0.0       0.0     100.0       0.0       0.0       0.0
15 S  s               0.0     100.0       0.0       0.0       0.0       0.0
18 O  s               0.0       0.0       0.0       0.0       0.0      99.9

                      6         7         8         9        10        11   
                 -18.98641 -18.94906 -18.94877 -10.17471 -10.17286 -10.09664
                   2.00000   2.00000   2.00000   2.00000   2.00000   2.00000
                  --------  --------  --------  --------  --------  --------
 2 O  pz              0.0       0.0       0.0       0.0       0.1       0.0
 2 O  dz2             0.0       0.0       0.0       0.0       0.2       0.0
 3 C  s               0.0       0.0       0.0       0.0      98.9       0.0
 4 O  s               0.0      99.9       0.0       0.0       0.0       0.0
 4 O  dxz             0.0       0.0       0.0       0.0       0.2       0.0
 6 C  s               0.0       0.0       0.0       0.0       0.0      99.6
 8 C  s               0.0       0.0       0.0      98.8       0.0       0.0
 9 O  s               0.0       0.0      99.9       0.0       0.0       0.0
 9 O  pz              0.0       0.0       0.0       0.2       0.0       0.0
[...]
34 H  py              0.2       0.0       0.0       0.0       0.0       0.0

                    492       493       494       495       496       497   
                  18.94502  19.30497  21.96676  21.97937  22.03284  22.03681
                   0.00000   0.00000   0.00000   0.00000   0.00000   0.00000
                  --------  --------  --------  --------  --------  --------
 0 C  s               0.0       0.0       0.1      89.6       1.4       4.6
 1 C  s               0.0       0.0       0.3       0.2       0.1       0.3
 3 C  s               0.0       0.1       0.1       0.0       0.0       0.0
 5 C  s               0.0       0.0       0.0       1.8       0.0       2.6
 6 C  s               0.0       0.8       0.1       0.1       0.1       0.0
 8 C  s               0.0       0.1       0.2       0.0       0.1       0.0
11 C  s               0.0       0.0       0.1       0.4       0.5       1.0
12 C  s               0.0       0.0      98.5       0.0       0.2       0.0
13 S  s               0.8      97.5       0.0       0.0       0.0       0.0
14 P  s               0.2       0.1       0.0       0.0       0.0       0.0
14 P  py              0.2       0.0       0.0       0.0       0.0       0.0
15 S  s              98.2       0.7       0.0       0.0       0.0       0.0
15 S  py              0.2       0.0       0.0       0.0       0.0       0.0
17 C  s               0.0       0.0       0.2       0.2      66.7      31.2
19 C  s               0.0       0.0       0.0       7.4      30.5      59.7

                    498       499       500       501       502       503   
                  22.06803  22.08559  22.16607  22.27402  22.35250  22.53270
                   0.00000   0.00000   0.00000   0.00000   0.00000   0.00000
                  --------  --------  --------  --------  --------  --------
 0 C  s               1.8       0.2       1.6       0.0       0.2       0.2
 1 C  s               5.2      84.7       1.6       6.7       0.5       0.1
 3 C  s               0.1       1.4       0.1      34.9      50.8      11.4
 4 O  s               0.0       0.0       0.0       0.1       0.2       0.0
 5 C  s               3.0       1.8      82.1       4.5       2.7       1.1
 6 C  s               2.5       2.2      11.4      51.4      28.2       3.2
 8 C  s               0.1       0.2       0.2       0.3      15.2      82.6
 9 O  s               0.0       0.0       0.0       0.0       0.0       0.1
 9 O  pz              0.0       0.0       0.0       0.0       0.0       0.1
10 O  s               0.0       0.0       0.0       0.0       0.0       0.2
11 C  s              85.0       8.7       1.2       1.3       1.2       0.1
12 C  s               0.3       0.3       0.0       0.1       0.1       0.1
13 S  s               0.0       0.0       0.1       0.1       0.3       0.0
17 C  s               0.0       0.0       1.1       0.0       0.0       0.1
19 C  s               1.6       0.1       0.4       0.0       0.0       0.0

                    504       505       506       507       508       509   
                  43.68949  43.78846  43.86041  43.88206  43.95731  43.96922
                   0.00000   0.00000   0.00000   0.00000   0.00000   0.00000
                  --------  --------  --------  --------  --------  --------
 2 O  s               0.1       0.1      38.3      27.1       7.7      26.5
 4 O  s              98.2       0.5       0.2       0.2       0.7       0.1
 8 C  s               0.0       0.0       0.0       0.0       0.0       0.1
 9 O  s               0.7       1.2       4.3      36.1      19.8      37.8
10 O  s               0.4       0.4      25.5      11.9      30.3      31.5
16 O  s               0.4      96.3       0.0       1.5       0.5       1.3
18 O  s               0.0       1.5      31.7      23.1      41.0       2.6



                      *****************************
                      * MAYER POPULATION ANALYSIS *
                      *****************************

  NA   - Mulliken gross atomic population
  ZA   - Total nuclear charge
  QA   - Mulliken gross atomic charge
  VA   - Mayer's total valence
  BVA  - Mayer's bonded valence
  FA   - Mayer's free valence

  ATOM       NA         ZA         QA         VA         BVA        FA
  0 C      6.4867     6.0000    -0.4867     3.7825     3.7825     0.0000
  1 C      6.1673     6.0000    -0.1673     3.6379     3.6379     0.0000
  2 O      8.1131     8.0000    -0.1131     1.9777     1.9777     0.0000
  3 C      5.6674     6.0000     0.3326     3.8594     3.8594     0.0000
  4 O      8.4694     8.0000    -0.4694     1.9214     1.9214    -0.0000
  5 C      6.4237     6.0000    -0.4237     3.8815     3.8815    -0.0000
  6 C      5.9666     6.0000     0.0334     3.6006     3.6006    -0.0000
  7 H      0.7284     1.0000     0.2716     0.9091     0.9091    -0.0000
  8 C      5.7223     6.0000     0.2777     3.8854     3.8854    -0.0000
  9 O      8.4575     8.0000    -0.4575     1.9339     1.9339    -0.0000
 10 O      8.1510     8.0000    -0.1510     1.9828     1.9828    -0.0000
 11 C      6.1326     6.0000    -0.1326     3.6131     3.6131    -0.0000
 12 C      6.5026     6.0000    -0.5026     3.8192     3.8192    -0.0000
 13 S     16.2068    16.0000    -0.2068     2.1583     2.1583     0.0000
 14 P     14.1958    15.0000     0.8042     5.1376     5.1376     0.0000
 15 S     16.5164    16.0000    -0.5164     1.9944     1.9944    -0.0000
 16 O      8.3970     8.0000    -0.3970     1.8020     1.8020     0.0000
 17 C      6.3092     6.0000    -0.3092     3.7508     3.7508    -0.0000
 18 O      8.3489     8.0000    -0.3489     1.8973     1.8973    -0.0000
 19 C      6.3067     6.0000    -0.3067     3.7211     3.7211    -0.0000
 20 H      0.8330     1.0000     0.1670     0.9593     0.9593    -0.0000
 21 H      0.8273     1.0000     0.1727     0.9566     0.9566     0.0000
 22 H      0.8265     1.0000     0.1735     0.9572     0.9572     0.0000
 23 H      0.8244     1.0000     0.1756     0.9538     0.9538     0.0000
 24 H      0.8178     1.0000     0.1822     0.9464     0.9464     0.0000
 25 H      0.7731     1.0000     0.2269     0.9375     0.9375    -0.0000
 26 H      0.7669     1.0000     0.2331     0.9363     0.9363    -0.0000
 27 H      0.8222     1.0000     0.1778     0.9541     0.9541    -0.0000
 28 H      0.8208     1.0000     0.1792     0.9456     0.9456    -0.0000
 29 H      0.8298     1.0000     0.1702     0.9572     0.9572    -0.0000
 30 H      0.8293     1.0000     0.1707     0.9570     0.9570    -0.0000
 31 H      0.8265     1.0000     0.1735     0.9574     0.9574    -0.0000
 32 H      0.8251     1.0000     0.1749     0.9539     0.9539    -0.0000
 33 H      0.8237     1.0000     0.1763     0.9500     0.9500    -0.0000
 34 H      0.8283     1.0000     0.1717     0.9507     0.9507    -0.0000
 35 H      0.8186     1.0000     0.1814     0.9487     0.9487    -0.0000
 36 H      0.8192     1.0000     0.1808     0.9473     0.9473    -0.0000
 37 H      0.8180     1.0000     0.1820     0.9476     0.9476     0.0000

  Mayer bond orders larger than 0.100000
B(  0-C ,  1-C ) :   0.9176 B(  0-C , 20-H ) :   0.9695 B(  0-C , 21-H ) :   0.9698 
B(  0-C , 22-H ) :   0.9589 B(  1-C ,  2-O ) :   0.7818 B(  1-C , 23-H ) :   0.9576 
B(  1-C , 24-H ) :   0.9537 B(  2-O ,  3-C ) :   1.1212 B(  2-O ,  8-C ) :   0.1373 
B(  3-C ,  4-O ) :   1.8438 B(  3-C ,  5-C ) :   0.9357 B(  5-C ,  6-C ) :   0.9282 
B(  5-C , 25-H ) :   0.9487 B(  5-C , 26-H ) :   0.9147 B(  6-C ,  7-H ) :   0.8784 
B(  6-C ,  8-C ) :   0.8831 B(  6-C , 13-S ) :   0.8651 B(  8-C ,  9-O ) :   1.7273 
B(  8-C , 10-O ) :   1.1583 B(  9-O , 14-P ) :   0.1068 B( 10-O , 11-C ) :   0.7748 
B( 11-C , 12-C ) :   0.9309 B( 11-C , 27-H ) :   0.9629 B( 11-C , 28-H ) :   0.9502 
B( 12-C , 29-H ) :   0.9700 B( 12-C , 30-H ) :   0.9662 B( 12-C , 31-H ) :   0.9592 
B( 13-S , 14-P ) :   0.9978 B( 14-P , 15-S ) :   1.7684 B( 14-P , 16-O ) :   1.0046 
B( 14-P , 18-O ) :   1.1908 B( 16-O , 17-C ) :   0.8329 B( 17-C , 32-H ) :   0.9555 
B( 17-C , 33-H ) :   0.9590 B( 17-C , 34-H ) :   0.9509 B( 18-O , 19-C ) :   0.7907 
B( 19-C , 35-H ) :   0.9541 B( 19-C , 36-H ) :   0.9486 B( 19-C , 37-H ) :   0.9545 


-------
TIMINGS
-------

Total SCF time: 0 days 0 hours 1 min 42 sec 

Total time                  ....     102.419 sec
Sum of individual times     ....     102.382 sec  (100.0%)

SCF preparation             ....       0.454 sec  (  0.4%)
Fock matrix formation       ....     100.512 sec  ( 98.1%)
  Startup                   ....       0.019 sec  (  0.0% of F)
  Split-RI-J                ....      24.616 sec  ( 24.5% of F)
  XC integration            ....      46.161 sec  ( 45.9% of F)
    Basis function eval.    ....       7.080 sec  ( 15.3% of XC)
    Density eval.           ....      18.526 sec  ( 40.1% of XC)
    XC-Functional eval.     ....       2.993 sec  (  6.5% of XC)
    XC-Potential eval.      ....      16.841 sec  ( 36.5% of XC)
  CPCM terms                ....      29.495 sec  ( 29.3% of F)
Diagonalization             ....       0.000 sec  (  0.0%)
Density matrix formation    ....       0.111 sec  (  0.1%)
Total Energy calculation    ....       0.017 sec  (  0.0%)
Population analysis         ....       0.265 sec  (  0.3%)
Orbital Transformation      ....       0.124 sec  (  0.1%)
Orbital Orthonormalization  ....       0.000 sec  (  0.0%)
DIIS solution               ....       0.795 sec  (  0.8%)
  MO trafo                  ....       0.000 sec  (  0.0 % of DIIS)
  Orb grad                  ....       0.000 sec  (  0.0 % of DIIS)
  Energy W gradient         ....       0.000 sec  (  0.0 % of DIIS)
  DIIS error                ....       0.123 sec  ( 15.5 % of DIIS)
  DIIS work                 ....       0.603 sec  ( 75.9 % of DIIS)
  Form Q                    ....       0.000 sec  (  0.0 % of DIIS)
  Form QpQm                 ....       0.000 sec  (  0.0 % of DIIS)
  Exp/Cayley                ....       0.000 sec  (  0.0 % of DIIS)
  Orb update                ....       0.000 sec  (  0.0 % of DIIS)
  Wake-sleep                ....       0.004 sec  (  0.6 % of DIIS)
SOSCF solution              ....       0.102 sec  (  0.1%)
  MO trafo                  ....       0.079 sec  ( 78.1 % of SOSCF)
  Orb grad                  ....       0.000 sec  (  0.3 % of SOSCF)
  Rot update                ....       0.000 sec  (  0.1 % of SOSCF)
  Step                      ....       0.022 sec  ( 21.4 % of SOSCF)
Finished LeanSCF after 102.5 sec

Maximum memory used throughout the entire LEANSCF-calculation: 114.2 MB


-------------------------------------------------------------------------------
                          DFT DISPERSION CORRECTION                            
                                                                               
                                DFTD4 V3.4.0                                   
-------------------------------------------------------------------------------
The R2SCAN3C composite method is recognized
Using three-body term ABC
Active option DFTDOPT                   ...         5   

-------------------------   ----------------
Dispersion correction           -0.017891116
-------------------------   ----------------

------------------   -----------------
gCP correction             0.037807847
------------------   -----------------

-------------------------   --------------------
FINAL SINGLE POINT ENERGY     -1981.463492392941
-------------------------   --------------------


------------------------------------------------------------------------------
                              ORCA PROPERTY CALCULATIONS
------------------------------------------------------------------------------

GBWName                                 ... sp_solv.gbw
Number of atoms                         ...     38
Number of basis functions               ...    510
Max core memory                         ...   1024 MB

Electric properties:
Dipole moment                           ... YES
Quadrupole moment                       ...  NO
Static polarizability (Dipole/Dipole)   ...  NO
Static polarizability (Dipole/Quad.)    ...  NO
Static polarizability (Quad./Quad.)     ...  NO
Static polarizability (Velocity)        ...  NO

Atomic electric properties:
Dipole moment                           ...  NO
Quadrupole moment                       ...  NO
Static polarizability                   ...  NO

Choice of electric origin               ... Center of mass
Position of electric origin             ...    -0.000003     0.000000     0.000002

General magnetic properties:
Magnetizability                         ...  NO

EPR properties:
g-Tensor (aka g-matrix)                 ...  NO
Zero-Field splitting spin-orbit         ...  NO
Zero-field splitting spin-spin          ...  NO
Hyperfine couplings                     ...  NO (   0 nuclei)
Quadrupole couplings                    ...  NO (   0 nuclei)
Contact density                         ...  NO (   0 nuclei)

NMR properties:
Chemical shifts                         ...  NO (   0 nuclei)
Spin-rotation constants                 ...  NO (   0 nuclei)
Spin-spin couplings                     ...  NO (   0 nuclei,    0 pairs)

Choice of magnetic origin               ... GIAO
Position of magnetic origin             ...     0.000000     0.000000     0.000000

Properties with geometric perturbations:
SCF Hessian                             ...  NO
IR spectrum                             ...  NO
VCD spectrum                            ...  NO
X-ray spectroscopy properties:
SCF XES/XAS/RIXS spectra                ...  NO


-------------
DIPOLE MOMENT
-------------

Method             : SCF
Type of density    : Electron Density
Multiplicity       :   1
Irrep              :   0
Energy             : -1981.4834091231934963 Eh
Relativity type    : 
Basis              : AO
                                X                 Y                 Z
Electronic contribution:    -10.120794248       4.398656000      -2.958212407
Nuclear contribution   :     11.253786792      -5.326546550       2.830555469
                        -----------------------------------------
Total Dipole Moment    :      1.132992544      -0.927890550      -0.127656938
                        -----------------------------------------
Magnitude (a.u.)       :      1.470016759
Magnitude (Debye)      :      3.736485658



--------------------
Rotational spectrum 
--------------------
 
Rotational constants in cm-1:             0.012472             0.007951             0.006394 
Rotational constants in MHz :           373.904443           238.362115           191.674447 

Dipole components along the rotational axes: 
x,y,z [a.u.] :    -1.298055    -0.556069     0.408397 
x,y,z [Debye]:    -3.299395    -1.413416     1.038064 

 

Dipole moment calculation done in   0.0 sec 

Maximum memory used throughout the entire PROP-calculation: 52.1 MB

--------------------------------
SUGGESTED CITATIONS FOR THIS RUN
--------------------------------

Below you find a list of papers that are relevant to this ORCA run
We neither can nor want to force you to cite these papers, but we appreciate if you do
You receive ORCA, which is the product of decades of hard work by many enthusiastic individuals, for free
The only thing we kindly ask in return is that you cite our papers,
We deeply appreciate it, if you show your appreciation for ORCA by not just citing the generic ORCA reference.

Please note that relegating all ORCA citations to the supporting information does *not* help us.
SI sections are not indexed - citations you put there will not count into any citation statistics
But we need these citations in order to attract the funding resources that allow us to do what we are doing

Therefore, if you are a happy ORCA user, please consider citing a few of the papers listed below in the main body of your paper

In addition to the list printed below, the program has created the file sp_solv.bibtex that contains the list in bibtex format
You can import this file easily into all common literature databanks and citation aid programs


List of essential papers. We consider these as the minimum necessary citations

  1. Neese,F.
     Software update: the ORCA program system, version 5.0
     WIRES Comput. Molec. Sci., 2022 12(1)e1606
     doi.org/10.1002/wcms.1606
  2. Grimme,S.; Hansen,A.; Ehlert,S.; Mewes,J.
     r2SCAN-3c: A 'Swiss army knife' composite electronic-structure method
     J. Chem. Phys., 2021 154 064103
     doi.org/10.1063/5.0040021

List of papers to cite with high priority. The work reported in these papers was absolutely
necessary for this run to complete.
Our perspective: the developers of density functionals and basis sets usually get cited in chemistry papers
Good! But without the algorithms to do something with them, the functionals or basis sets would not do anything.
Hence, in our opinion, the algorithm design and method developments papers are equally worthy of getting cited

  1. Neese,F.
     An improvement of the resolution of the identity approximation for the formation of the Coulomb matrix
     J. Comp. Chem., 2003 24(14)1740-1747
     doi.org/10.1002/jcc.10318
  2. Garcia-Rates,M.; Neese,F.
     Effect of the Solute Cavity on the Solvation Energy and its Derivatives within the Framework of the Gaussian Charge Scheme
     J. Comput. Chem., 2020 41 922-939
     doi.org/10.1002/jcc.26139
  3. Neese,F.
     The SHARK Integral Generation and Digestion System
     J. Comp. Chem., 2022  1-16
     doi.org/10.1002/jcc.26942
  4. Lehtola,S.; Steigemann,C.; Oliveira,M.; Marques,M.
     Recent developments in Libxc - A comprehensive library of functionals for density functional theory
     Software X, 2018 7 
     doi.org/10.1016/j.softx.2017.11.002
  5. Caldeweyher,E.; Bannwarth,C.; Grimme,S.
     Extension of the D3 dispersion coefficient model
     J. Chem. Phys., 2017 147 034112
     doi.org/10.1063/1.4993215
  6. Caldeweyher,E.; Ehlert,S.; Hansen,A.; Neugebauer,H.; Spicher,S.; Bannwarth,C.; Grimme,S.
     A generally applicable atomic-charge dependent London dispersion correction
     J. Chem. Phys., 2019 150 154122
     doi.org/10.1063/1.5090222
  7. Caldeweyher,E.; Mewes,J.; Ehlert,S.; Grimme,S.
     Extension and evaluation of the D4 London-dispersion model for periodic systems
     Phys. Chem. Chem. Phys., 2020 22(16)8499-8512
     doi.org/10.1039/D0CP00502A
  8. Wittmann,L.; Gordiy,I.; Friede,M.; Helmich-Paris,B.; Grimme,S.; Hansen,A.; Bursch,M.
     Extension of the D3 and D4 London Dispersion Corrections to the full Actinides Series
     Phys. Chem. Chem. Phys., 2024 26(32)21379-21394
     doi.org/https://doi.org/10.1039/D4CP01514B 

List of suggested additional citations. These are papers that are important in the 'surrounding' of 
of this run, or papers that preceded the highly important papers. If you like your results we are grateful for a citation.

  1. Neese,F.
     The ORCA program system
     WIRES Comput. Molec. Sci., 2012 2(1)73-78
     doi.org/10.1002/wcms.81
  2. Neese,F.
     Software update: the ORCA program system, version 4.0
     WIRES Comput. Molec. Sci., 2018 8(1)1-6
     doi.org/10.1002/wcms.1327
  3. Neese,F.; Wennmohs,F.; Becker,U.; Riplinger,C.
     The ORCA quantum chemistry program package
     J. Chem. Phys., 2020 152 Art. No. L224108
     doi.org/10.1063/5.0004608

List of optional additional citations

  1. Neese,F.
     Approximate second-order SCF convergence for spin unrestricted wavefunctions
     Chem. Phys. Lett., 2000 325(1-3)93-98
     doi.org/10.1016/s0009-2614(00)00662-x

Timings for individual modules:

Sum of individual times          ...      105.703 sec (=   1.762 min)
Startup calculation              ...        2.775 sec (=   0.046 min)   2.6 %
SCF iterations                   ...      102.822 sec (=   1.714 min)  97.3 %
Property calculations            ...        0.106 sec (=   0.002 min)   0.1 %
                             ****ORCA TERMINATED NORMALLY****
TOTAL RUN TIME: 0 days 0 hours 1 minutes 46 seconds 3 msec
