
                                 *****************
                                 * O   R   C   A *
                                 *****************

                                            #,                                       
                                            ###                                      
                                            ####                                     
                                            #####                                    
                                            ######                                   
                                           ########,                                 
                                     ,,################,,,,,                         
                               ,,#################################,,                 
                          ,,##########################################,,             
                       ,#########################################, ''#####,          
                    ,#############################################,,   '####,        
                  ,##################################################,,,,####,       
                ,###########''''           ''''###############################       
              ,#####''   ,,,,##########,,,,          '''####'''          '####       
            ,##' ,,,,###########################,,,                        '##       
           ' ,,###''''                  '''############,,,                           
         ,,##''                                '''############,,,,        ,,,,,,###''
      ,#''                                            '''#######################'''  
     '                                                          ''''####''''         
             ,#######,   #######,   ,#######,      ##                                
            ,#'     '#,  ##    ##  ,#'     '#,    #''#        ,####,   ,####,        
            ##       ##  ##   ,#'  ##            #'  '#       #'       #'  '#        
            ##       ##  #######   ##           ,######,      #####,   #    #        
            '#,     ,#'  ##    ##  '#,     ,#' ,#      #,     #,   #   #,  ,#        
             '#######'   ##     ##  '#######'  #'      '#     '####' # '####'        



                #########################################################
                #                        -***-                          #
                #          Department of theory and spectroscopy        #
                #                                                       #
                #                      Frank Neese                      #
                #                                                       #
                #     Directorship, Architecture, Infrastructure        #
                #                    SHARK, DRIVERS                     #
                #        Core code/Algorithms in most modules           #
                #                                                       #
                #        Max Planck Institute fuer Kohlenforschung      #
                #                Kaiser Wilhelm Platz 1                 #
                #                 D-45470 Muelheim/Ruhr                 #
                #                      Germany                          #
                #                                                       #
                #                  All rights reserved                  #
                #                        -***-                          #
                #########################################################


                         Program Version 6.0.1  -  RELEASE   -


 With contributions from (in alphabetic order):
[Max-Planck-Institut fuer Kohlenforschung]                               
  Daniel Aravena         : Magnetic Suceptibility                        
  Michael Atanasov       : Ab Initio Ligand Field Theory (pilot matlab implementation)
  Alexander A. Auer      : GIAO ZORA, VPT2 properties, NMR spectrum      
  Ute Becker             : All parallelization in ORCA, NUMFREQ, NUMCALC 
  Giovanni Bistoni       : ED, misc. LED, open-shell LED, HFLD           
  Martin Brehm           : Molecular dynamics                            
  Dmytro Bykov           : pre 5.0 version of the SCF Hessian            
  Marcos Casanova-Páez   : Triplet and SCS-CIS(D). UHF-(DLPNO)-IP/EA/STEOM-CCSD. UHF-CVS-IP/STEOM-CCSD   
  Vijay G. Chilkuri      : MRCI spin determinant printing, contributions to CSF-ICE 
  Pauline Colinet        : FMM embedding                                 
  Dipayan Datta          : RHF DLPNO-CCSD density                        
  Achintya Kumar Dutta   : EOM-CC, STEOM-CC                              
  Nicolas Foglia         : Exact transition moments, OPA infrastructure, MCD improvements    
  Dmitry Ganyushin       : Spin-Orbit,Spin-Spin,Magnetic field MRCI      
  Miquel Garcia-Rates    : C-PCM and meta-GGA Hessian, CCSD/C-PCM, Gaussian charge scheme 
  Tiago L. C. Gouveia    : GS-ROHF, GS-ROCIS                             
  Yang Guo               : DLPNO-NEVPT2, F12-NEVPT2, CIM, IAO-localization        
  Andreas Hansen         : Spin unrestricted coupled pair/coupled cluster methods 
  Ingolf Harden          : AUTO-CI MPn and infrastructure                
  Benjamin Helmich-Paris : MC-RPA, TRAH-(SCF,CASSCF), AVAS, COSX integrals, SCF dyn. polar. 
  Lee Huntington         : MR-EOM, pCC                                   
  Robert Izsak           : Overlap fitted RIJCOSX, COSX-SCS-MP3, EOM     
  Riya Kayal             : Wick's Theorem for AUTO-CI, AUTO-CI UHF-CCSDT 
  Emily Kempfer          : AUTO-CI, RHF CISDT and CCSDT                  
  Christian Kollmar      : KDIIS, OOCD, Brueckner-CCSD(T), CCSD density, CASPT2, CASPT2-K, improved NEVPT2 
  Axel Koslowski         : Symmetry handling                             
  Simone Kossmann        : meta-GGA functionals, TD-DFT gradient, OOMP2, (MP2 Hessian; deprecated post 5.0) 
  Lucas Lang             : DCDCAS                                        
  Marvin Lechner         : AUTO-CI (C++ implementation), FIC-MRCC        
  Spencer Leger          : CASSCF response                               
  Dagmar Lenk            : GEPOL surface, SMD, ORCA-2-JSON               
  Dimitrios Liakos       : Extrapolation schemes; Compound Job, initial MDCI parallelization 
  Dimitrios Manganas     : Further ROCIS development; embedding schemes. LFT, Crystal Embedding 
  Dimitrios Pantazis     : SARC Basis sets                               
  Anastasios Papadopoulos: AUTO-CI, single reference methods and gradients 
  Taras Petrenko         : pre 6.0 DFT Hessian and TD-DFT gradient, (ASA, deprecated), ECA, 1-Electron XAS/XES, NRVS 
  Peter Pinski           : DLPNO-MP2, DLPNO-MP2 Gradient                 
  Christoph Reimann      : Effective Core Potentials                     
  Marius Retegan         : Local ZFS, SOC                                
  Christoph Riplinger    : Optimizer, TS searches, QM/MM, DLPNO-CCSD(T), (RO)-DLPNO pert. Triples 
  Michael Roemelt        : Original ROCIS implementation                 
  Masaaki Saitow         : Open-shell DLPNO-CCSD energy and density      
  Barbara Sandhoefer     : DKH picture change effects                    
  Kantharuban Sivalingam : CASSCF convergence/infrastructure, NEVPT2 and variants, FIC-MRCI 
  Bernardo de Souza      : ESD, SOC TD-DFT                               
  Georgi L. Stoychev     : AutoAux, RI-MP2 NMR, DLPNO-MP2 response, X2C  
  Van Anh Tran           : RI-MP2 g-tensors                              
  Willem Van den Heuvel  : Paramagnetic NMR                              
  Zikuan Wang            : NOTCH, Electric field optimization            
  Frank Wennmohs         : Technical directorship and infrastructure     
  Hang Xu                : AUTO-CI-Response properties                   
                                                                         
[FACCTs GmbH]                                                            
  Markus Bursch, Miquel Garcia-Rates, Christoph Riplinger, Bernardo de Souza, Georgi L. Stoychev 
                                                                 
  APM, Basis sets (HGBS, AHGBS, def-TZVP (Ac-Lr), def2-XVPD (La-Lu)), CI-OPT, improved COSX, DLPNO-Multilevel,           
  DOCKER, DRACO, updates on ESD, GOAT, IRC, LR-CPCM, MBIS, meta-GGA TD-DFT gradient, ML-optimized integration grids, 
  MM, NACMEs, nearIR, NEB, NEB-TS, NL-DFT gradient (VV10), 2- and 3-layer-ONIOM, interface openCOSMO-RS, QMMM,   
  Crystal-QMMM, SF, symmetry and pop. for TD-DFT, r2SCAN hybrids, SOLVATOR                                   
                                                                         
[Other institutions]                                                     
  V. Asgeirsson          : NEB                                           
  Christoph Bannwarth    : sTDA-DFT, sTD-DFT, PBEh-3c, B97-3c, D3        
  Sebastian Ehlert       : rSCAN, r2SCAN, r2SCAN-3c, D4, dhf basis sets  
  Marvin Friede          : D4 for Fr, Ra, Ac-Lr                          
  Lars Goerigk           : TD-DFT with DH, B97 family of functionals     
  Stefan Grimme          : VdW corrections, initial TS optimization, DFT functionals, gCP, sTDA/sTD-DF 
  Waldemar Hujo          : DFT-NL                                        
  H. Jonsson             : NEB                                           
  Holger Kruse           : gCP                                           
  Marcel Mueller         : wB97X-3c, vDZP basis set                      
  Hagen Neugebauer       : wr2SCAN                                       
  Tobias Risthaus        : range-separated hybrid DFT                    
  Lukas Wittmann         : regularized MP2, r2SCAN double-hybrids, wr2SCAN        
                                                                         
We gratefully acknowledge several colleagues who have allowed us to      
interface, adapt or use parts of their codes:                            
  Ed Valeev, F. Pavosevic, A. Kumar             : LibInt (2-el integral package), F12 methods 
  Garnet Chan, S. Sharma, J. Yang, R. Olivares  : DMRG                   
  Ulf Ekstrom                                   : XCFun DFT Library      
  Mihaly Kallay                                 : mrcc  (arbitrary order and MRCC methods)
  Frank Weinhold                                : gennbo (NPA and NBO analysis)           
  Simon Mueller                                 : openCOSMO-RS                            
  Christopher J. Cramer and Donald G. Truhlar   : smd solvation model                     
  S Lehtola, MJT Oliveira, MAL Marques          : LibXC Library                           
  Liviu Ungur et al                             : ANISO software                          


 Your calculation uses the libint2 library for the computation of 2-el integrals
 For citations please refer to: http://libint.valeyev.net

 Your ORCA version has been built with support for libXC version: 6.2.2
 For citations please refer to: https://libxc.gitlab.io

 This ORCA versions uses:
   CBLAS   interface :  Fast vector & matrix operations
   LAPACKE interface :  Fast linear algebra routines
   SCALAPACK package :  Parallel linear algebra routines
   Shared memory     :  Shared parallel matrices
   BLAS/LAPACK       :  OpenBLAS 0.3.27  USE64BITINT DYNAMIC_ARCH NO_AFFINITY Zen SINGLE_THREADED
        Core in use  :  Zen
   Copyright (c) 2011-2014, The OpenBLAS Project


Your calculation utilizes the geometrical counterpoise correction gCP
Please cite in your paper:
H.Kruse, S. Grimme J.Chem.Phys., 136, (2012), 154101 
   

Your calculation utilizes the atom-pairwise dispersion correction
based on EEQ partial charges (D4)


================================================================================

----- Orbital basis set information -----
Your calculation utilizes the basis: def2-SV(P)
   F. Weigend and R. Ahlrichs, Phys. Chem. Chem. Phys. 7, 3297 (2005).

----- AuxJ basis set information -----
Your calculation utilizes the auxiliary basis: def2/J
   F. Weigend, Phys. Chem. Chem. Phys. 8, 1057 (2006).

================================================================================
                                        WARNINGS
                       Please study these warnings very carefully!
================================================================================

WARNING: Old DensityContainer found on disk!
         Will remove this file - 
         If you want to keep old densities, please start your calculation with a different basename. 


================================================================================
                                       INPUT FILE
================================================================================
NAME = sp.inp
|  1> ! pbe def2-sv(p) def2/J RI DEFGRID1 loosescf d4 GCP(DFT/SV(P)) printgap
|  2> %output
|  3>     printlevel normal
|  4> end
|  5> * xyz 0 1
|  6> C 4.1993203948 -3.7146803543 -1.067596309
|  7> C 3.1517568588 -2.9387288918 -1.8501138756
|  8> O 2.8473083402 -1.6868488457 -1.2055499846
|  9> C 1.9408243304 -1.6751083117 -0.2514869551
| 10> O 1.3283058044 -2.6452826834 0.1351998304
| 11> C 1.7137485783 -0.2682836984 0.2728748255
| 12> C 0.8979585558 0.5141548803 -0.7623202152
| 13> H 1.502933994 0.6947598797 -1.6541859812
| 14> C 0.4096620158 1.8335580623 -0.1958319807
| 15> O -0.7724907856 2.1043592155 -0.0976197121
| 16> O 1.3845591156 2.6086671008 0.1723484407
| 17> C 1.0478078747 3.8764984238 0.7832177646
| 18> C 2.3416230925 4.5586183361 1.1774691918
| 19> S -0.5614155774 -0.410599554 -1.3586611047
| 20> P -1.927741709 -0.1466270294 0.2457427691
| 21> S -1.3404959863 0.1865198732 2.0958568671
| 22> O -3.1616837818 0.6826908824 -0.3023449631
| 23> C -3.5622464679 1.9768546265 0.1538472239
| 24> O -2.6827777478 -1.5575232312 0.1282951507
| 25> C -2.0696664019 -2.7566151938 0.6075702497
| 26> H 4.454633624 -4.6189384725 -1.609948098
| 27> H 5.0928359179 -3.110802144 -0.936368967
| 28> H 3.8090835673 -3.988590055 -0.0900366674
| 29> H 2.2278545883 -3.516616407 -1.9415814079
| 30> H 3.5207776367 -2.6534053718 -2.8351499972
| 31> H 2.6692269546 0.2339924821 0.4196491174
| 32> H 1.171938762 -0.3335139353 1.2184027153
| 33> H 0.4800650457 4.4649596112 0.056943113
| 34> H 0.4071456168 3.6768379491 1.6473880577
| 35> H 2.9665550083 4.7072106954 0.3023209304
| 36> H 2.1145649067 5.5211288455 1.6232497725
| 37> H 2.8807674187 3.9509826981 1.8974857508
| 38> H -3.1823168334 2.160521351 1.1600957048
| 39> H -4.6500273924 1.9706638701 0.1527392754
| 40> H -3.174902319 2.7322838555 -0.5270461907
| 41> H -1.9538583822 -2.7048827677 1.691463443
| 42> H -1.0891675702 -2.9092431933 0.1518751801
| 43> H -2.7461957425 -3.5612003498 0.3331877715
| 44> *
| 45> 
| 46>                          ****END OF INPUT****
================================================================================

                       ****************************
                       * Single Point Calculation *
                       ****************************

---------------------------------
CARTESIAN COORDINATES (ANGSTROEM)
---------------------------------
  C      4.199320   -3.714680   -1.067596
  C      3.151757   -2.938729   -1.850114
  O      2.847308   -1.686849   -1.205550
  C      1.940824   -1.675108   -0.251487
  O      1.328306   -2.645283    0.135200
  C      1.713749   -0.268284    0.272875
  C      0.897959    0.514155   -0.762320
  H      1.502934    0.694760   -1.654186
  C      0.409662    1.833558   -0.195832
  O     -0.772491    2.104359   -0.097620
  O      1.384559    2.608667    0.172348
  C      1.047808    3.876498    0.783218
  C      2.341623    4.558618    1.177469
  S     -0.561416   -0.410600   -1.358661
  P     -1.927742   -0.146627    0.245743
  S     -1.340496    0.186520    2.095857
  O     -3.161684    0.682691   -0.302345
  C     -3.562246    1.976855    0.153847
  O     -2.682778   -1.557523    0.128295
  C     -2.069666   -2.756615    0.607570
  H      4.454634   -4.618938   -1.609948
  H      5.092836   -3.110802   -0.936369
  H      3.809084   -3.988590   -0.090037
  H      2.227855   -3.516616   -1.941581
  H      3.520778   -2.653405   -2.835150
  H      2.669227    0.233992    0.419649
  H      1.171939   -0.333514    1.218403
  H      0.480065    4.464960    0.056943
  H      0.407146    3.676838    1.647388
  H      2.966555    4.707211    0.302321
  H      2.114565    5.521129    1.623250
  H      2.880767    3.950983    1.897486
  H     -3.182317    2.160521    1.160096
  H     -4.650027    1.970664    0.152739
  H     -3.174902    2.732284   -0.527046
  H     -1.953858   -2.704883    1.691463
  H     -1.089168   -2.909243    0.151875
  H     -2.746196   -3.561200    0.333188

----------------------------
CARTESIAN COORDINATES (A.U.)
----------------------------
  NO LB      ZA    FRAG     MASS         X           Y           Z
   0 C     6.0000    0    12.011    7.935565   -7.019729   -2.017465
   1 C     6.0000    0    12.011    5.955957   -5.553393   -3.496209
   2 O     8.0000    0    15.999    5.380633   -3.187682   -2.278159
   3 C     6.0000    0    12.011    3.667626   -3.165496   -0.475241
   4 O     8.0000    0    15.999    2.510134   -4.998860    0.255491
   5 C     6.0000    0    12.011    3.238515   -0.506983    0.515659
   6 C     6.0000    0    12.011    1.696896    0.971612   -1.440576
   7 H     1.0000    0     1.008    2.840134    1.312906   -3.125958
   8 C     6.0000    0    12.011    0.774149    3.464923   -0.370069
   9 O     8.0000    0    15.999   -1.459796    3.976663   -0.184475
  10 O     8.0000    0    15.999    2.616438    4.929666    0.325691
  11 C     6.0000    0    12.011    1.980070    7.325520    1.480067
  12 C     6.0000    0    12.011    4.425026    8.614540    2.225094
  13 S    16.0000    0    32.060   -1.060922   -0.775921   -2.567497
  14 P    15.0000    0    30.974   -3.642904   -0.277085    0.464387
  15 S    16.0000    0    32.060   -2.533170    0.352471    3.960595
  16 O     8.0000    0    15.999   -5.974716    1.290099   -0.571349
  17 C     6.0000    0    12.011   -6.731670    3.735714    0.290729
  18 O     8.0000    0    15.999   -5.069715   -2.943292    0.242443
  19 C     6.0000    0    12.011   -3.911103   -5.209248    1.148141
  20 H     1.0000    0     1.008    8.418038   -8.728529   -3.042361
  21 H     1.0000    0     1.008    9.624065   -5.878564   -1.769481
  22 H     1.0000    0     1.008    7.198125   -7.537343   -0.170145
  23 H     1.0000    0     1.008    4.210035   -6.645442   -3.669057
  24 H     1.0000    0     1.008    6.653306   -5.014209   -5.357657
  25 H     1.0000    0     1.008    5.044108    0.442182    0.793022
  26 H     1.0000    0     1.008    2.214643   -0.630250    2.302447
  27 H     1.0000    0     1.008    0.907191    8.437551    0.107607
  28 H     1.0000    0     1.008    0.769394    6.948217    3.113112
  29 H     1.0000    0     1.008    5.605977    8.895339    0.571304
  30 H     1.0000    0     1.008    3.995949   10.433421    3.067498
  31 H     1.0000    0     1.008    5.443861    7.466275    3.585728
  32 H     1.0000    0     1.008   -6.013707    4.082794    2.192263
  33 H     1.0000    0     1.008   -8.787278    3.724015    0.288635
  34 H     1.0000    0     1.008   -5.999696    5.163268   -0.995973
  35 H     1.0000    0     1.008   -3.692257   -5.111488    3.196403
  36 H     1.0000    0     1.008   -2.058228   -5.497673    0.287002
  37 H     1.0000    0     1.008   -5.189558   -6.729693    0.629634

--------------------------------
INTERNAL COORDINATES (ANGSTROEM)
--------------------------------
 C      0   0   0     0.000000000000     0.00000000     0.00000000
 C      1   0   0     1.520468275286     0.00000000     0.00000000
 O      2   1   0     1.440609301609   111.02732994     0.00000000
 C      3   2   1     1.316087901479   118.53274371   274.57280504
 O      4   3   2     1.210761713252   124.94713552   359.84589809
 C      4   3   2     1.518444653826   111.19872866   182.17943236
 C      6   4   3     1.532759688450   108.62166262    74.64724545
 H      7   6   4     1.092720454277   109.93421077   291.07760307
 C      7   6   4     1.516630207887   111.29600561   169.15484377
 O      9   7   6     1.216743259745   122.45095896   240.98717483
 O      9   7   6     1.298759099858   112.54492027    60.35976895
 C     11   9   7     1.447051827928   117.89674947   182.57587901
 C     12  11   9     1.514819982842   107.79626832   177.41441559
 S      7   6   4     1.827721554532   112.77115803    47.91628631
 P     14   7   6     2.123826824838   101.78935741    78.27451425
 S     15  14   7     1.969458446670   122.60550143   333.85713745
 O     15  14   7     1.584544540253   107.74233267   115.92259479
 C     17  15  14     1.429482974197   125.56753470   242.59264021
 O     15  14   7     1.604525305256    97.94039780   212.65284990
 C     19  15  14     1.429486508423   120.74585576    76.58165706
 H      1   2   3     1.084902323883   109.28212460   183.69508741
 H      1   2   3     1.086397486275   110.19064478   303.78152022
 H      1   2   3     1.087627766545   110.11435646    64.12408227
 H      2   1   3     1.093579304451   110.82040672   239.28491556
 H      2   1   3     1.089899998369   111.43617181   115.90432882
 H      6   4   3     1.089386516273   110.03136439   315.63346207
 H      6   4   3     1.091712348210   108.53884249   194.91192477
 H     12  11   9     1.093660531661   108.17342537   298.66031437
 H     12  11   9     1.094121898753   108.04763245    56.03328674
 H     13  12  11     1.085589272266   110.09023984    59.09070904
 H     13  12  11     1.084759063836   109.13087350   179.03569273
 H     13  12  11     1.085505190349   110.16848064   298.85987207
 H     18  17  15     1.091153517235   110.43348439   337.67296981
 H     18  17  15     1.087799104946   105.94610369   218.00379831
 H     18  17  15     1.088266810925   109.21056666    98.32070966
 H     20  19  15     1.091289235638   109.80112479    65.33070436
 H     20  19  15     1.091939220678   111.25128566   304.56022259
 H     20  19  15     1.086432218913   105.63201663   184.62310359

---------------------------
INTERNAL COORDINATES (A.U.)
---------------------------
 C      0   0   0     0.000000000000     0.00000000     0.00000000
 C      1   0   0     2.873268635606     0.00000000     0.00000000
 O      2   1   0     2.722357046020   111.02732994     0.00000000
 C      3   2   1     2.487045701963   118.53274371   274.57280504
 O      4   3   2     2.288008051484   124.94713552   359.84589809
 C      4   3   2     2.869444545248   111.19872866   182.17943236
 C      6   4   3     2.896496040286   108.62166262    74.64724545
 H      7   6   4     2.064942399518   109.93421077   291.07760307
 C      7   6   4     2.866015739338   111.29600561   169.15484377
 O      9   7   6     2.299311536213   122.45095896   240.98717483
 O      9   7   6     2.454299012671   112.54492027    60.35976895
 C     11   9   7     2.734531656374   117.89674947   182.57587901
 C     12  11   9     2.862594909762   107.79626832   177.41441559
 S      7   6   4     3.453893187130   112.77115803    47.91628631
 P     14   7   6     4.013451054819   101.78935741    78.27451425
 S     15  14   7     3.721737096344   122.60550143   333.85713745
 O     15  14   7     2.994355228079   107.74233267   115.92259479
 C     17  15  14     2.701331334335   125.56753470   242.59264021
 O     15  14   7     3.032113401881    97.94039780   212.65284990
 C     19  15  14     2.701338013056   120.74585576    76.58165706
 H      1   2   3     2.050168274194   109.28212460   183.69508741
 H      1   2   3     2.052993721640   110.19064478   303.78152022
 H      1   2   3     2.055318614419   110.11435646    64.12408227
 H      2   1   3     2.066565391137   110.82040672   239.28491556
 H      2   1   3     2.059612510278   111.43617181   115.90432882
 H      6   4   3     2.058642169742   110.03136439   315.63346207
 H      6   4   3     2.063037355137   108.53884249   194.91192477
 H     12  11   9     2.066718888319   108.17342537   298.66031437
 H     12  11   9     2.067590745770   108.04763245    56.03328674
 H     13  12  11     2.051466418506   110.09023984    59.09070904
 H     13  12  11     2.049897551938   109.13087350   179.03569273
 H     13  12  11     2.051307526710   110.16848064   298.85987207
 H     18  17  15     2.061981317638   110.43348439   337.67296981
 H     18  17  15     2.055642397072   105.94610369   218.00379831
 H     18  17  15     2.056526233284   109.21056666    98.32070966
 H     20  19  15     2.062237788252   109.80112479    65.33070436
 H     20  19  15     2.063466081968   111.25128566   304.56022259
 H     20  19  15     2.053059356813   105.63201663   184.62310359

---------------------
BASIS SET INFORMATION
---------------------
There are 5 groups of distinct atoms

 Group   1 Type C   : 7s4p1d contracted to 3s2p1d pattern {511/31/1}
 Group   2 Type O   : 7s4p1d contracted to 3s2p1d pattern {511/31/1}
 Group   3 Type H   : 4s contracted to 2s pattern {31}
 Group   4 Type S   : 10s7p1d contracted to 4s3p1d pattern {5311/511/1}
 Group   5 Type P   : 10s7p1d contracted to 4s3p1d pattern {5311/511/1}

Atom   0C    basis set group =>   1
Atom   1C    basis set group =>   1
Atom   2O    basis set group =>   2
Atom   3C    basis set group =>   1
Atom   4O    basis set group =>   2
Atom   5C    basis set group =>   1
Atom   6C    basis set group =>   1
Atom   7H    basis set group =>   3
Atom   8C    basis set group =>   1
Atom   9O    basis set group =>   2
Atom  10O    basis set group =>   2
Atom  11C    basis set group =>   1
Atom  12C    basis set group =>   1
Atom  13S    basis set group =>   4
Atom  14P    basis set group =>   5
Atom  15S    basis set group =>   4
Atom  16O    basis set group =>   2
Atom  17C    basis set group =>   1
Atom  18O    basis set group =>   2
Atom  19C    basis set group =>   1
Atom  20H    basis set group =>   3
Atom  21H    basis set group =>   3
Atom  22H    basis set group =>   3
Atom  23H    basis set group =>   3
Atom  24H    basis set group =>   3
Atom  25H    basis set group =>   3
Atom  26H    basis set group =>   3
Atom  27H    basis set group =>   3
Atom  28H    basis set group =>   3
Atom  29H    basis set group =>   3
Atom  30H    basis set group =>   3
Atom  31H    basis set group =>   3
Atom  32H    basis set group =>   3
Atom  33H    basis set group =>   3
Atom  34H    basis set group =>   3
Atom  35H    basis set group =>   3
Atom  36H    basis set group =>   3
Atom  37H    basis set group =>   3
---------------------------------
AUXILIARY/J BASIS SET INFORMATION
---------------------------------
There are 5 groups of distinct atoms

 Group   1 Type C   : 12s5p4d2f1g contracted to 6s4p3d1f1g pattern {711111/2111/211/2/1}
 Group   2 Type O   : 12s5p4d2f1g contracted to 6s4p3d1f1g pattern {711111/2111/211/2/1}
 Group   3 Type H   : 5s2p1d contracted to 3s1p1d pattern {311/2/1}
 Group   4 Type S   : 14s5p5d2f1g contracted to 8s4p3d1f1g pattern {71111111/2111/311/2/1}
 Group   5 Type P   : 14s5p5d2f1g contracted to 8s4p3d1f1g pattern {71111111/2111/311/2/1}

Atom   0C    basis set group =>   1
Atom   1C    basis set group =>   1
Atom   2O    basis set group =>   2
Atom   3C    basis set group =>   1
Atom   4O    basis set group =>   2
Atom   5C    basis set group =>   1
Atom   6C    basis set group =>   1
Atom   7H    basis set group =>   3
Atom   8C    basis set group =>   1
Atom   9O    basis set group =>   2
Atom  10O    basis set group =>   2
Atom  11C    basis set group =>   1
Atom  12C    basis set group =>   1
Atom  13S    basis set group =>   4
Atom  14P    basis set group =>   5
Atom  15S    basis set group =>   4
Atom  16O    basis set group =>   2
Atom  17C    basis set group =>   1
Atom  18O    basis set group =>   2
Atom  19C    basis set group =>   1
Atom  20H    basis set group =>   3
Atom  21H    basis set group =>   3
Atom  22H    basis set group =>   3
Atom  23H    basis set group =>   3
Atom  24H    basis set group =>   3
Atom  25H    basis set group =>   3
Atom  26H    basis set group =>   3
Atom  27H    basis set group =>   3
Atom  28H    basis set group =>   3
Atom  29H    basis set group =>   3
Atom  30H    basis set group =>   3
Atom  31H    basis set group =>   3
Atom  32H    basis set group =>   3
Atom  33H    basis set group =>   3
Atom  34H    basis set group =>   3
Atom  35H    basis set group =>   3
Atom  36H    basis set group =>   3
Atom  37H    basis set group =>   3

Checking for AutoStart:
The File: sp.gbw exists
Trying to determine its content:
     ... Fine, the file contains calculation information
     ... Fine, the calculation information was read
     ... Fine, the file contains a basis set
     ... Fine, the basis set was read
     ... Fine, the file contains a geometry
     ... Fine, the geometry was read
     ... Fine, the file contains a set of orbitals
     ... Fine, the orbitals can be read
     => possible old guess file was deleted
     => GBW file was renamed to GES file
     => GES file is set as startup file
     => Guess is set to MORead
     ... now leaving AutoStart

------------------------------------------------------------------------------
                             ORCA STARTUP CALCULATIONS
                           -- RI-GTO INTEGRALS CHOSEN --
------------------------------------------------------------------------------
------------------------------------------------------------------------------
                   ___                                                        
                  /   \      - P O W E R E D   B Y -                         
                 /     \                                                     
                 |  |  |   _    _      __       _____    __    __             
                 |  |  |  | |  | |    /  \     |  _  \  |  |  /  |          
                  \  \/   | |  | |   /    \    | | | |  |  | /  /          
                 / \  \   | |__| |  /  /\  \   | |_| |  |  |/  /          
                |  |  |   |  __  | /  /__\  \  |    /   |      \           
                |  |  |   | |  | | |   __   |  |    \   |  |\   \          
                \     /   | |  | | |  |  |  |  | |\  \  |  | \   \       
                 \___/    |_|  |_| |__|  |__|  |_| \__\ |__|  \__/        
                                                                              
                      - O R C A' S   B I G   F R I E N D -                    
                                      &                                       
                       - I N T E G R A L  F E E D E R -                       
                                                                              
 v1 FN, 2020, v2 2021, v3 2022-2024                                           
------------------------------------------------------------------------------


----------------------
SHARK INTEGRAL PACKAGE
----------------------

Number of atoms                             ...     38
Number of basis functions                   ...    316
Number of shells                            ...    158
Maximum angular momentum                    ...      2
Integral batch strategy                     ... SHARK/LIBINT Hybrid
RI-J (if used) integral strategy            ... SPLIT-RIJ (Revised 2003 algorithm where possible)
Printlevel                                  ...      1
Contraction scheme used                     ... SEGMENTED contraction
Prescreening option                         ... SCHWARTZ
   Thresh                                   ... 1.000e-09
   Tcut                                     ... 1.000e-10
   Tpresel                                  ... 1.000e-10 
Coulomb Range Separation                    ... NOT USED
Exchange Range Separation                   ... NOT USED
Multipole approximations                    ... NOT USED
Finite Nucleus Model                        ... NOT USED
CABS basis                                  ... NOT available
Auxiliary Coulomb fitting basis             ... AVAILABLE
   # of basis functions in Aux-J            ...   1146
   # of shells in Aux-J                     ...    386
   Maximum angular momentum in Aux-J        ...      4
Auxiliary J/K fitting basis                 ... NOT available
Auxiliary Correlation fitting basis         ... NOT available
Auxiliary 'external' fitting basis          ... NOT available

Checking pre-screening integrals            ... done (  0.0 sec) Dimension = 158
Check shell pair data                       ... done (  0.0 sec)
Shell pair information
Shell pair cut-off parameter TPreSel        ...   1.0e-10
Total number of shell pairs                 ...     12561
Shell pairs after pre-screening             ...      8979
Total number of primitive shell pairs       ...     52337
Primitive shell pairs kept                  ...     22123
          la=0 lb=0:   3347 shell pairs
          la=1 lb=0:   3049 shell pairs
          la=1 lb=1:    724 shell pairs
          la=2 lb=0:   1188 shell pairs
          la=2 lb=1:    561 shell pairs
          la=2 lb=2:    110 shell pairs

Calculating one electron integrals          ... done (  0.1 sec)
Calculating RI/J V-Matrix + Cholesky decomp.... done (  0.1 sec)
Calculating Nuclear repulsion               ... done (  0.0 sec) ENN=   2159.666931299649 Eh

Diagonalization of the overlap matrix:
Smallest eigenvalue                        ... 1.062e-03
Time for diagonalization                   ...    0.009 sec
Threshold for overlap eigenvalues          ... 1.000e-07
Number of eigenvalues below threshold      ... 0
Time for construction of square roots      ...    0.008 sec
Total time needed                          ...    0.018 sec

-------------------
DFT GRID GENERATION
-------------------

General Integration Accuracy     IntAcc      ... 4.159
Radial Grid Type                 RadialGrid  ... OptM3 with GC (2021)
Angular Grid (max. ang.)         AngularGrid ... 3 (Lebedev-194)
Angular grid pruning method      GridPruning ... 4 (adaptive)
Weight generation scheme         WeightScheme... mBecke (2022)
Basis function cutoff            BFCut       ... 1.0000e-10
Integration weight cutoff        WCut        ... 1.0000e-14
Partially contracted basis set               ... off
Rotationally invariant grid construction     ... off
Angular grids for H and He will be reduced by one unit

Total number of grid points                  ...    90943
Total number of batches                      ...     1439
Average number of points per batch           ...       63
Average number of grid points per atom       ...     2393
Initializing property integral containers    ... done (  0.0 sec)

SHARK setup successfully completed in   1.2 seconds

Maximum memory used throughout the entire STARTUP-calculation: 48.9 MB
-------------------------------------------------------------------------------
                                 ORCA GUESS
                   Start orbitals & Density for SCF / CASSCF
-------------------------------------------------------------------------------

------------
SCF SETTINGS
------------
Hamiltonian:
 Density Functional     Method          .... DFT(GTOs)
 Exchange Functional    Exchange        .... PBE
   PBE kappa parameter   XKappa         ....  0.804000
   PBE mue parameter    XMuePBE         ....  0.219520
 Correlation Functional Correlation     .... PBE
   PBE beta parameter  CBetaPBE         ....  0.066725
 LDA part of GGA corr.  LDAOpt          .... PW91-LDA
 Gradients option       PostSCFGGA      .... off
   NL short-range parameter             ....  6.400000
 RI-approximation to the Coulomb term is turned on
   Number of AuxJ basis functions       .... 1146


General Settings:
 Integral files         IntName         .... sp
 Hartree-Fock type      HFTyp           .... RHF
 Total Charge           Charge          ....    0
 Multiplicity           Mult            ....    1
 Number of Electrons    NEL             ....  174
 Basis Dimension        Dim             ....  316
 Nuclear Repulsion      ENuc            ....   2159.6669312996 Eh

Convergence Acceleration:
 AO-DIIS                CNVDIIS         .... on
   Start iteration      DIISMaxIt       ....    12
   Startup error        DIISStart       ....  0.200000
   # of expansion vecs  DIISMaxEq       ....     5
   Bias factor          DIISBfac        ....   1.050
   Max. coefficient     DIISMaxC        ....  10.000
 MO-DIIS                CNVKDIIS        .... off
 Trust-Rad. Augm. Hess. CNVTRAH         .... auto
   Auto Start mean grad. ratio tolernc. ....  1.125000
   Auto Start start iteration           ....     1
   Auto Start num. interpolation iter.  ....    10
   Max. Number of Micro iterations      ....    24
   Max. Number of Macro iterations      .... Maxiter - #DIIS iter
   Number of Davidson start vectors     ....     2
   Converg. threshold    (grad. norm)   ....   1.000e-04
   Grad. Scal. Fac. for Micro threshold ....   0.100
   Minimum threshold for Micro iter.    ....   1.000e-02
   NR start threshold (gradient norm)   ....   1.000e-04
   Initial trust radius                 ....   0.400
   Minimum AH scaling param. (alpha)    ....   1.000
   Maximum AH scaling param. (alpha)    .... 1000.000
   Quad. conv. algorithm                .... NR
   White noise on init. David. guess    .... on
   Maximum white noise                  ....   0.010
   Pseudo random numbers                .... off
   Inactive MOs                         .... canonical
   Orbital update algorithm             .... Taylor
   Preconditioner                       .... Diag
   Full preconditioner red. dimension   ....   250
 SOSCF                  CNVSOSCF        .... on
   Start iteration      SOSCFMaxIt      ....   150
   Startup grad/error   SOSCFStart      ....  0.003300
   Hessian update       SOSCFHessUp     .... L-BFGS
 Level Shifting         CNVShift        .... on
   Level shift para.    LevelShift      ....    0.2500
   Turn off err/grad.   ShiftErr        ....    0.0010
 Zerner damping         CNVZerner       .... off
 Static damping         CNVDamp         .... on
   Fraction old density DampFac         ....    0.7000
   Max. Damping (<1)    DampMax         ....    0.9800
   Min. Damping (>=0)   DampMin         ....    0.0000
   Turn off err/grad.   DampErr         ....    0.1000

SCF Procedure:
 Maximum # iterations   MaxIter         ....   125
 SCF integral mode      SCFMode         .... Direct
   Integral package                     .... SHARK and LIBINT hybrid scheme
 Reset frequency        DirectResetFreq ....    20
 Integral Threshold     Thresh          ....  1.000e-09 Eh
 Primitive CutOff       TCut            ....  1.000e-10 Eh

Convergence Tolerance:
 Convergence Check Mode ConvCheckMode   .... Total+1el-Energy
 Convergence forced     ConvForced      .... 0
 Energy Change          TolE            ....  1.000e-05 Eh
 1-El. energy change                    ....  1.000e-02 Eh
 Orbital Gradient       TolG            ....  1.000e-04
 Orbital Rotation angle TolX            ....  1.000e-04
 DIIS Error             TolErr          ....  5.000e-04

---------------------
INITIAL GUESS: MOREAD
---------------------
Guess MOs are being read from file: sp.ges
Input Geometry matches current geometry (good)
Input basis set matches current basis set (good)
Occupation numbers will be reassigned to an Aufbau configuration
MOs were renormalized
MOs were reorthogonalized (Cholesky)
                      ------------------
                      INITIAL GUESS DONE (   0.0 sec)
                      ------------------
             **** ENERGY FILE WAS UPDATED (sp.en.tmp) ****
Finished Guess after   0.1 sec
Maximum memory used throughout the entire GUESS-calculation: 24.5 MB

-------------------------------------------------------------------------------------------
                                      ORCA LEAN-SCF
                              memory conserving SCF solver
-------------------------------------------------------------------------------------------

----------------------------------------D-I-I-S--------------------------------------------
Iteration    Energy (Eh)           Delta-E    RMSDP     MaxDP     DIISErr   Damp  Time(sec)
-------------------------------------------------------------------------------------------
               ***  Starting incremental Fock matrix formation  ***
                              *** Initializing SOSCF ***
---------------------------------------S-O-S-C-F--------------------------------------
Iteration    Energy (Eh)           Delta-E    RMSDP     MaxDP     MaxGrad    Time(sec)
--------------------------------------------------------------------------------------
    1    -1979.1450754625552690     0.00e+00  9.82e-06  4.58e-04  4.52e-05     1.8
               *** Restarting incremental Fock matrix formation ***
    2    -1979.1450755367964121    -7.42e-08  1.48e-05  6.66e-04  6.80e-05     1.8
    3    -1979.1450736869614957     1.85e-06  1.05e-05  5.67e-04  2.48e-04     1.3
                 **** Energy Check signals convergence ****

               *****************************************************
               *                     SUCCESS                       *
               *           SCF CONVERGED AFTER   3 CYCLES          *
               *****************************************************

             **** ENERGY FILE WAS UPDATED (sp.en.tmp) ****

----------------
TOTAL SCF ENERGY
----------------

Total Energy       :      -1979.14507368696150 Eh          -53855.27540 eV

Components:
Nuclear Repulsion  :       2159.66693129964870 Eh           58767.52488 eV
Electronic Energy  :      -4138.81200498661019 Eh         -112622.80029 eV
One Electron Energy:      -7023.65860068583333 Eh         -191123.46705 eV
Two Electron Energy:       2884.84659569922314 Eh           78500.66677 eV

Virial components:
Potential Energy   :      -3949.32851073973598 Eh         -107466.69228 eV
Kinetic Energy     :       1970.18343705277425 Eh           53611.41687 eV
Virial Ratio       :          2.00454863058213

DFT components:
N(Alpha)           :       87.000389845157 electrons
N(Beta)            :       87.000389845157 electrons
N(Total)           :      174.000779690315 electrons
E(X)               :     -180.022273893770 Eh       
E(C)               :       -6.127051055268 Eh       
E(XC)              :     -186.149324949038 Eh       

---------------
SCF CONVERGENCE
---------------

  Last Energy change         ...   -1.8498e-06  Tolerance :   1.0000e-05
  Last MAX-Density change    ...    5.6654e-04  Tolerance :   1.0000e-03
  Last RMS-Density change    ...    1.0463e-05  Tolerance :   1.0000e-04
  Last DIIS Error            ...    1.6654e-04  Tolerance :   5.0000e-04
  Last Orbital Gradient      ...    2.4816e-04  Tolerance :   1.0000e-04
  Last Orbital Rotation      ...    2.8370e-04  Tolerance :   1.0000e-04


----------------
ORBITAL ENERGIES
----------------

  NO   OCC          E(Eh)            E(eV) 
   0   2.0000     -88.032166     -2395.4770 
   1   2.0000     -87.970874     -2393.8092 
   2   2.0000     -76.415850     -2079.3810 
   3   2.0000     -18.827936      -512.3342 
   4   2.0000     -18.807908      -511.7892 
   5   2.0000     -18.775589      -510.9097 
   6   2.0000     -18.765942      -510.6472 
   7   2.0000     -18.760605      -510.5020 
   8   2.0000     -18.740409      -509.9525 
   9   2.0000     -10.031399      -272.9682 
  10   2.0000     -10.012267      -272.4476 
  11   2.0000      -9.963625      -271.1240 
  12   2.0000      -9.955341      -270.8986 
  13   2.0000      -9.952007      -270.8079 
  14   2.0000      -9.929648      -270.1995 
  15   2.0000      -9.917016      -269.8557 
  16   2.0000      -9.907314      -269.5917 
  17   2.0000      -9.900553      -269.4077 
  18   2.0000      -9.890326      -269.1295 
  19   2.0000      -7.677112      -208.9048 
  20   2.0000      -7.615987      -207.2416 
  21   2.0000      -6.411536      -174.4668 
  22   2.0000      -5.705289      -155.2488 
  23   2.0000      -5.701732      -155.1520 
  24   2.0000      -5.693635      -154.9317 
  25   2.0000      -5.645065      -153.6100 
  26   2.0000      -5.636941      -153.3890 
  27   2.0000      -5.635606      -153.3526 
  28   2.0000      -4.633880      -126.0943 
  29   2.0000      -4.633743      -126.0906 
  30   2.0000      -4.632176      -126.0479 
  31   2.0000      -1.037789       -28.2397 
  32   2.0000      -1.015102       -27.6223 
  33   2.0000      -0.967179       -26.3183 
  34   2.0000      -0.939719       -25.5711 
  35   2.0000      -0.920672       -25.0527 
  36   2.0000      -0.917762       -24.9736 
  37   2.0000      -0.768626       -20.9154 
  38   2.0000      -0.723409       -19.6850 
  39   2.0000      -0.710736       -19.3401 
  40   2.0000      -0.683841       -18.6083 
  41   2.0000      -0.651616       -17.7314 
  42   2.0000      -0.627874       -17.0853 
  43   2.0000      -0.619127       -16.8473 
  44   2.0000      -0.602195       -16.3866 
  45   2.0000      -0.596980       -16.2447 
  46   2.0000      -0.566932       -15.4270 
  47   2.0000      -0.525928       -14.3112 
  48   2.0000      -0.507134       -13.7998 
  49   2.0000      -0.496698       -13.5159 
  50   2.0000      -0.484420       -13.1817 
  51   2.0000      -0.465942       -12.6789 
  52   2.0000      -0.457551       -12.4506 
  53   2.0000      -0.451931       -12.2977 
  54   2.0000      -0.444059       -12.0835 
  55   2.0000      -0.436690       -11.8829 
  56   2.0000      -0.424113       -11.5407 
  57   2.0000      -0.410501       -11.1703 
  58   2.0000      -0.407931       -11.1004 
  59   2.0000      -0.404584       -11.0093 
  60   2.0000      -0.394273       -10.7287 
  61   2.0000      -0.391549       -10.6546 
  62   2.0000      -0.384127       -10.4526 
  63   2.0000      -0.379989       -10.3400 
  64   2.0000      -0.377132       -10.2623 
  65   2.0000      -0.372432       -10.1344 
  66   2.0000      -0.371132       -10.0990 
  67   2.0000      -0.360009        -9.7964 
  68   2.0000      -0.350386        -9.5345 
  69   2.0000      -0.341142        -9.2829 
  70   2.0000      -0.337902        -9.1948 
  71   2.0000      -0.331590        -9.0230 
  72   2.0000      -0.327634        -8.9154 
  73   2.0000      -0.320466        -8.7203 
  74   2.0000      -0.303729        -8.2649 
  75   2.0000      -0.298860        -8.1324 
  76   2.0000      -0.289640        -7.8815 
  77   2.0000      -0.284786        -7.7494 
  78   2.0000      -0.273085        -7.4310 
  79   2.0000      -0.265095        -7.2136 
  80   2.0000      -0.258790        -7.0420 
  81   2.0000      -0.243973        -6.6388 
  82   2.0000      -0.239785        -6.5249 
  83   2.0000      -0.223173        -6.0729 
  84   2.0000      -0.211940        -5.7672 
  85   2.0000      -0.191808        -5.2194 
  86   2.0000      -0.183587        -4.9957 
  87   0.0000      -0.049282        -1.3410 
  88   0.0000      -0.035579        -0.9681 
  89   0.0000      -0.019960        -0.5431 
  90   0.0000       0.007865         0.2140 
  91   0.0000       0.030458         0.8288 
  92   0.0000       0.034954         0.9511 
  93   0.0000       0.043532         1.1846 
  94   0.0000       0.054552         1.4844 
  95   0.0000       0.061991         1.6869 
  96   0.0000       0.063963         1.7405 
  97   0.0000       0.070915         1.9297 
*Only the first 10 virtual orbitals were printed.

                    ********************************
                    * MULLIKEN POPULATION ANALYSIS *
                    ********************************

-----------------------
MULLIKEN ATOMIC CHARGES
-----------------------
   0 C :   -0.306716
   1 C :   -0.010705
   2 O :   -0.234460
   3 C :    0.126771
   4 O :   -0.186739
   5 C :   -0.049488
   6 C :   -0.345054
   7 H :    0.150468
   8 C :    0.232491
   9 O :   -0.193140
  10 O :   -0.218462
  11 C :   -0.033395
  12 C :   -0.274403
  13 S :   -0.081808
  14 P :    0.626893
  15 S :   -0.354359
  16 O :   -0.367966
  17 C :   -0.084183
  18 O :   -0.374945
  19 C :   -0.121823
  20 H :    0.114931
  21 H :    0.113665
  22 H :    0.130029
  23 H :    0.111425
  24 H :    0.102649
  25 H :    0.108694
  26 H :    0.120261
  27 H :    0.111149
  28 H :    0.124044
  29 H :    0.117922
  30 H :    0.117598
  31 H :    0.122441
  32 H :    0.114143
  33 H :    0.117991
  34 H :    0.113743
  35 H :    0.112215
  36 H :    0.135812
  37 H :    0.112311
Sum of atomic charges:    0.0000000

--------------------------------
MULLIKEN REDUCED ORBITAL CHARGES
--------------------------------
  0 C s       :     3.102757  s :     3.102757
      pz      :     1.077257  p :     3.176083
      px      :     1.050096
      py      :     1.048730
      dz2     :     0.006092  d :     0.027876
      dxz     :     0.004492
      dyz     :     0.006099
      dx2y2   :     0.004630
      dxy     :     0.006563

  1 C s       :     3.074182  s :     3.074182
      pz      :     1.013956  p :     2.877935
      px      :     1.057417
      py      :     0.806562
      dz2     :     0.012128  d :     0.058588
      dxz     :     0.006600
      dyz     :     0.013353
      dx2y2   :     0.012104
      dxy     :     0.014403

  2 O s       :     3.727150  s :     3.727150
      pz      :     1.438857  p :     4.490934
      px      :     1.543304
      py      :     1.508772
      dz2     :     0.003312  d :     0.016375
      dxz     :     0.003724
      dyz     :     0.002897
      dx2y2   :     0.004065
      dxy     :     0.002376

  3 C s       :     3.038259  s :     3.038259
      pz      :     0.863709  p :     2.701794
      px      :     0.848209
      py      :     0.989876
      dz2     :     0.024617  d :     0.133175
      dxz     :     0.024465
      dyz     :     0.024946
      dx2y2   :     0.036669
      dxy     :     0.022479

  4 O s       :     3.754403  s :     3.754403
      pz      :     1.528995  p :     4.414918
      px      :     1.439503
      py      :     1.446420
      dz2     :     0.002293  d :     0.017418
      dxz     :     0.001720
      dyz     :     0.004100
      dx2y2   :     0.004223
      dxy     :     0.005081

  5 C s       :     2.999645  s :     2.999645
      pz      :     1.054835  p :     3.017882
      px      :     0.976937
      py      :     0.986110
      dz2     :     0.007455  d :     0.031961
      dxz     :     0.006235
      dyz     :     0.005298
      dx2y2   :     0.006365
      dxy     :     0.006608

  6 C s       :     3.178164  s :     3.178164
      pz      :     1.095440  p :     3.124419
      px      :     1.011193
      py      :     1.017786
      dz2     :     0.007599  d :     0.042471
      dxz     :     0.010884
      dyz     :     0.006755
      dx2y2   :     0.008718
      dxy     :     0.008514

  7 H s       :     0.849532  s :     0.849532

  8 C s       :     3.009405  s :     3.009405
      pz      :     0.852885  p :     2.625226
      px      :     0.870037
      py      :     0.902304
      dz2     :     0.010065  d :     0.132878
      dxz     :     0.033178
      dyz     :     0.009336
      dx2y2   :     0.033444
      dxy     :     0.046856

  9 O s       :     3.761914  s :     3.761914
      pz      :     1.463797  p :     4.413937
      px      :     1.300959
      py      :     1.649181
      dz2     :     0.001934  d :     0.017289
      dxz     :     0.004987
      dyz     :     0.000468
      dx2y2   :     0.005391
      dxy     :     0.004509

 10 O s       :     3.731096  s :     3.731096
      pz      :     1.600015  p :     4.470352
      px      :     1.555586
      py      :     1.314751
      dz2     :     0.002278  d :     0.017014
      dxz     :     0.003263
      dyz     :     0.002367
      dx2y2   :     0.003761
      dxy     :     0.005345

 11 C s       :     3.092252  s :     3.092252
      pz      :     1.031126  p :     2.883022
      px      :     1.055465
      py      :     0.796431
      dz2     :     0.006797  d :     0.058121
      dxz     :     0.012328
      dyz     :     0.014527
      dx2y2   :     0.013054
      dxy     :     0.011415

 12 C s       :     3.083016  s :     3.083016
      pz      :     1.082134  p :     3.163672
      px      :     1.021331
      py      :     1.060207
      dz2     :     0.002985  d :     0.027715
      dxz     :     0.009177
      dyz     :     0.005410
      dx2y2   :     0.004944
      dxy     :     0.005199

 13 S s       :     5.872587  s :     5.872587
      pz      :     3.410986  p :    10.138222
      px      :     3.091903
      py      :     3.635334
      dz2     :     0.012175  d :     0.070999
      dxz     :     0.024369
      dyz     :     0.008165
      dx2y2   :     0.009445
      dxy     :     0.016847

 14 P s       :     5.242246  s :     5.242246
      pz      :     2.879142  p :     8.552026
      px      :     2.856874
      py      :     2.816010
      dz2     :     0.109328  d :     0.578835
      dxz     :     0.129859
      dyz     :     0.104782
      dx2y2   :     0.108615
      dxy     :     0.126251

 15 S s       :     5.917968  s :     5.917968
      pz      :     3.052282  p :    10.394649
      px      :     3.636677
      py      :     3.705691
      dz2     :     0.018730  d :     0.041742
      dxz     :     0.011505
      dyz     :     0.008877
      dx2y2   :     0.001327
      dxy     :     0.001302

 16 O s       :     3.744428  s :     3.744428
      pz      :     1.708596  p :     4.610653
      px      :     1.522292
      py      :     1.379766
      dz2     :     0.001881  d :     0.012885
      dxz     :     0.002305
      dyz     :     0.002977
      dx2y2   :     0.003368
      dxy     :     0.002354

 17 C s       :     3.118347  s :     3.118347
      pz      :     1.078144  p :     2.913136
      px      :     1.053737
      py      :     0.781255
      dz2     :     0.009599  d :     0.052700
      dxz     :     0.003763
      dyz     :     0.013655
      dx2y2   :     0.016537
      dxy     :     0.009146

 18 O s       :     3.761104  s :     3.761104
      pz      :     1.745544  p :     4.600552
      px      :     1.630990
      py      :     1.224018
      dz2     :     0.001915  d :     0.013289
      dxz     :     0.001935
      dyz     :     0.002336
      dx2y2   :     0.002180
      dxy     :     0.004923

 19 C s       :     3.126362  s :     3.126362
      pz      :     1.075749  p :     2.943094
      px      :     1.054365
      py      :     0.812979
      dz2     :     0.012582  d :     0.052368
      dxz     :     0.005743
      dyz     :     0.009031
      dx2y2   :     0.010665
      dxy     :     0.014346

 20 H s       :     0.885069  s :     0.885069

 21 H s       :     0.886335  s :     0.886335

 22 H s       :     0.869971  s :     0.869971

 23 H s       :     0.888575  s :     0.888575

 24 H s       :     0.897351  s :     0.897351

 25 H s       :     0.891306  s :     0.891306

 26 H s       :     0.879739  s :     0.879739

 27 H s       :     0.888851  s :     0.888851

 28 H s       :     0.875956  s :     0.875956

 29 H s       :     0.882078  s :     0.882078

 30 H s       :     0.882402  s :     0.882402

 31 H s       :     0.877559  s :     0.877559

 32 H s       :     0.885857  s :     0.885857

 33 H s       :     0.882009  s :     0.882009

 34 H s       :     0.886257  s :     0.886257

 35 H s       :     0.887785  s :     0.887785

 36 H s       :     0.864188  s :     0.864188

 37 H s       :     0.887689  s :     0.887689


------------------------
MULLIKEN OVERLAP CHARGES
------------------------
B(  0-C ,  1-C ) :   0.9422 B(  0-C ,  2-O ) :  -0.0744 B(  0-C , 20-H ) :   0.7159 
B(  0-C , 21-H ) :   0.7388 B(  0-C , 22-H ) :   0.7448 B(  0-C , 23-H ) :  -0.0601 
B(  0-C , 24-H ) :  -0.0560 B(  1-C ,  2-O ) :   0.5223 B(  1-C ,  3-C ) :  -0.0576 
B(  1-C , 23-H ) :   0.7105 B(  1-C , 24-H ) :   0.7341 B(  2-O ,  3-C ) :   0.7071 
B(  2-O ,  4-O ) :  -0.1655 B(  2-O ,  5-C ) :  -0.2779 B(  2-O , 23-H ) :  -0.0665 
B(  2-O , 24-H ) :  -0.0555 B(  3-C ,  4-O ) :   1.2844 B(  3-C ,  5-C ) :   0.6477 
B(  3-C ,  6-C ) :  -0.1106 B(  4-O ,  5-C ) :  -0.1708 B(  4-O , 36-H ) :   0.0590 
B(  5-C ,  6-C ) :   0.5418 B(  5-C ,  8-C ) :  -0.0557 B(  5-C , 13-S ) :  -0.1611 
B(  5-C , 25-H ) :   0.5436 B(  5-C , 26-H ) :   0.6077 B(  6-C ,  7-H ) :   0.6007 
B(  6-C ,  8-C ) :   0.2943 B(  6-C ,  9-O ) :  -0.2259 B(  6-C , 10-O ) :  -0.2572 
B(  6-C , 13-S ) :   0.5022 B(  7-H , 13-S ) :  -0.0601 B(  8-C ,  9-O ) :   1.2607 
B(  8-C , 10-O ) :   0.7940 B(  8-C , 11-C ) :  -0.0823 B(  8-C , 13-S ) :  -0.1004 
B(  9-O , 10-O ) :  -0.1458 B(  9-O , 14-P ) :   0.0602 B( 10-O , 11-C ) :   0.5304 
B( 10-O , 12-C ) :  -0.1032 B( 10-O , 27-H ) :  -0.0593 B( 10-O , 28-H ) :  -0.0604 
B( 11-C , 12-C ) :   0.8539 B( 11-C , 27-H ) :   0.7399 B( 11-C , 28-H ) :   0.7347 
B( 12-C , 27-H ) :  -0.0533 B( 12-C , 29-H ) :   0.7401 B( 12-C , 30-H ) :   0.7213 
B( 12-C , 31-H ) :   0.7437 B( 13-S , 14-P ) :   0.4949 B( 13-S , 15-S ) :  -0.0760 
B( 13-S , 16-O ) :  -0.0586 B( 13-S , 18-O ) :  -0.0771 B( 14-P , 15-S ) :   0.8819 
B( 14-P , 16-O ) :   0.6942 B( 14-P , 17-C ) :  -0.0988 B( 14-P , 18-O ) :   0.6601 
B( 14-P , 19-C ) :  -0.0955 B( 15-S , 16-O ) :  -0.0585 B( 15-S , 18-O ) :  -0.0718 
B( 15-S , 26-H ) :   0.0764 B( 15-S , 32-H ) :   0.0759 B( 15-S , 35-H ) :   0.0525 
B( 16-O , 17-C ) :   0.5964 B( 16-O , 18-O ) :  -0.0870 B( 16-O , 32-H ) :  -0.0624 
B( 16-O , 33-H ) :  -0.0583 B( 16-O , 34-H ) :  -0.0625 B( 17-C , 32-H ) :   0.7287 
B( 17-C , 33-H ) :   0.7544 B( 17-C , 34-H ) :   0.7615 B( 18-O , 19-C ) :   0.5820 
B( 18-O , 35-H ) :  -0.0703 B( 18-O , 36-H ) :  -0.0547 B( 18-O , 37-H ) :  -0.0561 
B( 19-C , 35-H ) :   0.7414 B( 19-C , 36-H ) :   0.7155 B( 19-C , 37-H ) :   0.7383 
B( 21-H , 22-H ) :  -0.0520 B( 23-H , 24-H ) :  -0.0608 B( 27-H , 28-H ) :  -0.0717 
B( 29-H , 31-H ) :  -0.0510 B( 32-H , 34-H ) :  -0.0536 B( 33-H , 34-H ) :  -0.0629 
B( 35-H , 36-H ) :  -0.0550 B( 35-H , 37-H ) :  -0.0504 


                     *******************************
                     * LOEWDIN POPULATION ANALYSIS *
                     *******************************

----------------------
LOEWDIN ATOMIC CHARGES
----------------------
   0 C :   -0.356208
   1 C :   -0.110687
   2 O :   -0.061132
   3 C :    0.024694
   4 O :   -0.155747
   5 C :   -0.254414
   6 C :   -0.260967
   7 H :    0.148763
   8 C :    0.024170
   9 O :   -0.152644
  10 O :   -0.037575
  11 C :   -0.102415
  12 C :   -0.350093
  13 S :    0.110787
  14 P :    0.591050
  15 S :   -0.336936
  16 O :   -0.238800
  17 C :   -0.207409
  18 O :   -0.258959
  19 C :   -0.227295
  20 H :    0.131705
  21 H :    0.124706
  22 H :    0.131848
  23 H :    0.121729
  24 H :    0.117936
  25 H :    0.138604
  26 H :    0.134039
  27 H :    0.119825
  28 H :    0.126097
  29 H :    0.128220
  30 H :    0.134548
  31 H :    0.130240
  32 H :    0.108119
  33 H :    0.116832
  34 H :    0.111814
  35 H :    0.108958
  36 H :    0.110304
  37 H :    0.116293

-------------------------------
LOEWDIN REDUCED ORBITAL CHARGES
-------------------------------
  0 C s       :     2.951533  s :     2.951533
      pz      :     1.125651  p :     3.336021
      px      :     1.101296
      py      :     1.109074
      dz2     :     0.014280  d :     0.068655
      dxz     :     0.011934
      dyz     :     0.014853
      dx2y2   :     0.010185
      dxy     :     0.017403

  1 C s       :     2.925673  s :     2.925673
      pz      :     1.050825  p :     3.054610
      px      :     1.108219
      py      :     0.895566
      dz2     :     0.026879  d :     0.130404
      dxz     :     0.015076
      dyz     :     0.029762
      dx2y2   :     0.024883
      dxy     :     0.033804

  2 O s       :     3.444859  s :     3.444859
      pz      :     1.484662  p :     4.582849
      px      :     1.564024
      py      :     1.534163
      dz2     :     0.005857  d :     0.033424
      dxz     :     0.009363
      dyz     :     0.006238
      dx2y2   :     0.007557
      dxy     :     0.004410

  3 C s       :     2.846494  s :     2.846494
      pz      :     0.890298  p :     2.825416
      px      :     0.891209
      py      :     1.043909
      dz2     :     0.053867  d :     0.303396
      dxz     :     0.059375
      dyz     :     0.055211
      dx2y2   :     0.083281
      dxy     :     0.051662

  4 O s       :     3.547263  s :     3.547263
      pz      :     1.544109  p :     4.577329
      px      :     1.484529
      py      :     1.548691
      dz2     :     0.003971  d :     0.031156
      dxz     :     0.003103
      dyz     :     0.006861
      dx2y2   :     0.006949
      dxy     :     0.010272

  5 C s       :     2.926988  s :     2.926988
      pz      :     1.103511  p :     3.244438
      px      :     1.096280
      py      :     1.044647
      dz2     :     0.017932  d :     0.082988
      dxz     :     0.016653
      dyz     :     0.014597
      dx2y2   :     0.017374
      dxy     :     0.016432

  6 C s       :     2.948126  s :     2.948126
      pz      :     1.105512  p :     3.211056
      px      :     1.055387
      py      :     1.050157
      dz2     :     0.016072  d :     0.101785
      dxz     :     0.026542
      dyz     :     0.017752
      dx2y2   :     0.019365
      dxy     :     0.022054

  7 H s       :     0.851237  s :     0.851237

  8 C s       :     2.840263  s :     2.840263
      pz      :     0.860690  p :     2.830461
      px      :     1.001248
      py      :     0.968523
      dz2     :     0.023430  d :     0.305106
      dxz     :     0.068870
      dyz     :     0.019468
      dx2y2   :     0.084120
      dxy     :     0.109218

  9 O s       :     3.549256  s :     3.549256
      pz      :     1.466176  p :     4.572127
      px      :     1.443402
      py      :     1.662549
      dz2     :     0.004287  d :     0.031261
      dxz     :     0.006765
      dyz     :     0.000644
      dx2y2   :     0.011590
      dxy     :     0.007976

 10 O s       :     3.437521  s :     3.437521
      pz      :     1.599643  p :     4.565712
      px      :     1.607738
      py      :     1.358331
      dz2     :     0.004216  d :     0.034342
      dxz     :     0.005108
      dyz     :     0.005645
      dx2y2   :     0.007862
      dxy     :     0.011510

 11 C s       :     2.928271  s :     2.928271
      pz      :     1.077614  p :     3.045509
      px      :     1.102866
      py      :     0.865030
      dz2     :     0.014386  d :     0.128635
      dxz     :     0.028439
      dyz     :     0.031149
      dx2y2   :     0.027658
      dxy     :     0.027003

 12 C s       :     2.947700  s :     2.947700
      pz      :     1.130864  p :     3.333536
      px      :     1.086633
      py      :     1.116039
      dz2     :     0.007361  d :     0.068857
      dxz     :     0.021894
      dyz     :     0.013222
      dx2y2   :     0.012732
      dxy     :     0.013647

 13 S s       :     5.633670  s :     5.633670
      pz      :     3.433773  p :    10.165321
      px      :     3.108759
      py      :     3.622790
      dz2     :     0.014865  d :     0.090222
      dxz     :     0.031142
      dyz     :     0.008723
      dx2y2   :     0.012583
      dxy     :     0.022909

 14 P s       :     5.077383  s :     5.077383
      pz      :     2.920617  p :     8.532702
      px      :     2.842911
      py      :     2.769174
      dz2     :     0.154690  d :     0.798864
      dxz     :     0.184436
      dyz     :     0.134619
      dx2y2   :     0.144214
      dxy     :     0.180905

 15 S s       :     5.767529  s :     5.767529
      pz      :     3.165142  p :    10.513332
      px      :     3.644291
      py      :     3.703899
      dz2     :     0.028281  d :     0.056074
      dxz     :     0.014526
      dyz     :     0.010396
      dx2y2   :     0.001428
      dxy     :     0.001443

 16 O s       :     3.484608  s :     3.484608
      pz      :     1.727288  p :     4.730799
      px      :     1.571753
      py      :     1.431758
      dz2     :     0.002692  d :     0.023393
      dxz     :     0.003840
      dyz     :     0.005430
      dx2y2   :     0.006457
      dxy     :     0.004973

 17 C s       :     2.969542  s :     2.969542
      pz      :     1.133077  p :     3.121745
      px      :     1.118058
      py      :     0.870610
      dz2     :     0.021939  d :     0.116122
      dxz     :     0.008137
      dyz     :     0.030307
      dx2y2   :     0.037273
      dxy     :     0.018465

 18 O s       :     3.505517  s :     3.505517
      pz      :     1.752603  p :     4.729310
      px      :     1.665960
      py      :     1.310747
      dz2     :     0.003233  d :     0.024132
      dxz     :     0.002309
      dyz     :     0.004491
      dx2y2   :     0.004062
      dxy     :     0.010037

 19 C s       :     2.971208  s :     2.971208
      pz      :     1.127985  p :     3.140337
      px      :     1.111476
      py      :     0.900876
      dz2     :     0.029882  d :     0.115750
      dxz     :     0.012458
      dyz     :     0.018394
      dx2y2   :     0.022821
      dxy     :     0.032195

 20 H s       :     0.868295  s :     0.868295

 21 H s       :     0.875294  s :     0.875294

 22 H s       :     0.868152  s :     0.868152

 23 H s       :     0.878271  s :     0.878271

 24 H s       :     0.882064  s :     0.882064

 25 H s       :     0.861396  s :     0.861396

 26 H s       :     0.865961  s :     0.865961

 27 H s       :     0.880175  s :     0.880175

 28 H s       :     0.873903  s :     0.873903

 29 H s       :     0.871780  s :     0.871780

 30 H s       :     0.865452  s :     0.865452

 31 H s       :     0.869760  s :     0.869760

 32 H s       :     0.891881  s :     0.891881

 33 H s       :     0.883168  s :     0.883168

 34 H s       :     0.888186  s :     0.888186

 35 H s       :     0.891042  s :     0.891042

 36 H s       :     0.889696  s :     0.889696

 37 H s       :     0.883707  s :     0.883707


---------------------------------
LOEWDIN BOND ORDERS (THRESH 0.050000)
---------------------------------
B(  0-C ,  1-C ) :   1.1509 B(  0-C ,  2-O ) :   0.0528 B(  0-C , 20-H ) :   0.9293 
B(  0-C , 21-H ) :   0.9383 B(  0-C , 22-H ) :   0.9346 B(  1-C ,  2-O ) :   1.0651 
B(  1-C ,  3-C ) :   0.0759 B(  1-C , 23-H ) :   0.9077 B(  1-C , 24-H ) :   0.9205 
B(  2-O ,  3-C ) :   1.4195 B(  2-O ,  4-O ) :   0.2053 B(  2-O ,  5-C ) :   0.0714 
B(  3-C ,  4-O ) :   2.1938 B(  3-C ,  5-C ) :   1.0396 B(  3-C ,  6-C ) :   0.0664 
B(  4-O ,  5-C ) :   0.0920 B(  5-C ,  6-C ) :   1.0478 B(  5-C ,  8-C ) :   0.0628 
B(  5-C , 13-S ) :   0.0646 B(  5-C , 25-H ) :   0.8815 B(  5-C , 26-H ) :   0.8731 
B(  6-C ,  7-H ) :   0.8665 B(  6-C ,  8-C ) :   1.0211 B(  6-C ,  9-O ) :   0.0933 
B(  6-C , 10-O ) :   0.0689 B(  6-C , 13-S ) :   1.1177 B(  8-C ,  9-O ) :   2.1159 
B(  8-C , 10-O ) :   1.4703 B(  8-C , 11-C ) :   0.0785 B(  8-C , 13-S ) :   0.0716 
B(  9-O , 10-O ) :   0.1969 B(  9-O , 14-P ) :   0.1017 B( 10-O , 11-C ) :   1.0380 
B( 10-O , 12-C ) :   0.0546 B( 11-C , 12-C ) :   1.1596 B( 11-C , 27-H ) :   0.9137 
B( 11-C , 28-H ) :   0.9113 B( 12-C , 29-H ) :   0.9366 B( 12-C , 30-H ) :   0.9283 
B( 12-C , 31-H ) :   0.9364 B( 13-S , 14-P ) :   1.0358 B( 13-S , 15-S ) :   0.1235 
B( 13-S , 16-O ) :   0.0554 B( 13-S , 18-O ) :   0.0685 B( 14-P , 15-S ) :   1.6616 
B( 14-P , 16-O ) :   1.2894 B( 14-P , 17-C ) :   0.0643 B( 14-P , 18-O ) :   1.2377 
B( 14-P , 19-C ) :   0.0670 B( 15-S , 16-O ) :   0.0855 B( 15-S , 18-O ) :   0.0844 
B( 15-S , 26-H ) :   0.0545 B( 16-O , 17-C ) :   1.1259 B( 16-O , 18-O ) :   0.0505 
B( 17-C , 32-H ) :   0.9380 B( 17-C , 33-H ) :   0.9492 B( 17-C , 34-H ) :   0.9499 
B( 18-O , 19-C ) :   1.1358 B( 19-C , 35-H ) :   0.9429 B( 19-C , 36-H ) :   0.9354 
B( 19-C , 37-H ) :   0.9499 

------------------------------------------
LOEWDIN REDUCED ORBITAL POPULATIONS PER MO
-------------------------------------------
THRESHOLD FOR PRINTING IS 0.1%%
                      0         1         2         3         4         5   
                 -88.03217 -87.97087 -76.41585 -18.82794 -18.80791 -18.77559
                   2.00000   2.00000   2.00000   2.00000   2.00000   2.00000
                  --------  --------  --------  --------  --------  --------
 2 O  s               0.0       0.0       0.0       0.0      99.9       0.0
10 O  s               0.0       0.0       0.0      99.9       0.0       0.0
13 S  s             100.0       0.0       0.0       0.0       0.0       0.0
14 P  s               0.0       0.0     100.0       0.0       0.0       0.0
15 S  s               0.0     100.0       0.0       0.0       0.0       0.0
16 O  s               0.0       0.0       0.0       0.0       0.0      99.9

                      6         7         8         9        10        11   
                 -18.76594 -18.76060 -18.74041 -10.03140 -10.01227  -9.96362
                   2.00000   2.00000   2.00000   2.00000   2.00000   2.00000
                  --------  --------  --------  --------  --------  --------
 3 C  s               0.0       0.0       0.0       0.0      99.3       0.0
 4 O  s               0.0       0.0      99.9       0.0       0.0       0.0
 4 O  py              0.0       0.0       0.0       0.0       0.2       0.0
 8 C  s               0.0       0.0       0.0      99.3       0.0       0.0
 9 O  s               0.0      99.9       0.0       0.0       0.0       0.0
 9 O  px              0.0       0.0       0.0       0.3       0.0       0.0
10 O  px              0.0       0.0       0.0       0.1       0.0       0.0
11 C  s               0.0       0.0       0.0       0.0       0.0      99.7
18 O  s              99.9       0.0       0.0       0.0       0.0       0.0

                     12        13        14        15        16        17   
                  -9.95534  -9.95201  -9.92965  -9.91702  -9.90731  -9.90055
                   2.00000   2.00000   2.00000   2.00000   2.00000   2.00000
                  --------  --------  --------  --------  --------  --------
 1 C  s               0.0      99.7       0.0       0.0       0.0       0.0
 5 C  s               0.0       0.0       0.0       0.0      99.6       0.0
 6 C  s              99.6       0.0       0.0       0.0       0.0       0.0
12 C  s               0.0       0.0       0.0       0.0       0.0      99.7
17 C  s               0.0       0.0      99.7       0.0       0.0       0.0
19 C  s               0.0       0.0       0.0      99.7       0.0       0.0

                     18        19        20        21        22        23   
                  -9.89033  -7.67711  -7.61599  -6.41154  -5.70529  -5.70173
                   2.00000   2.00000   2.00000   2.00000   2.00000   2.00000
                  --------  --------  --------  --------  --------  --------
 0 C  s              99.7       0.0       0.0       0.0       0.0       0.0
13 S  s               0.0      99.8       0.0       0.0       0.0       0.0
13 S  pz              0.0       0.0       0.0       0.0       5.5      76.7
13 S  px              0.0       0.0       0.0       0.0      87.2       0.7
13 S  py              0.0       0.0       0.0       0.0       7.3      22.6
14 P  s               0.0       0.0       0.0      99.4       0.0       0.0
15 S  s               0.0       0.0      99.9       0.0       0.0       0.0
16 O  px              0.0       0.0       0.0       0.1       0.0       0.0
18 O  py              0.0       0.0       0.0       0.2       0.0       0.0

                     24        25        26        27        28        29   
                  -5.69364  -5.64506  -5.63694  -5.63561  -4.63388  -4.63374
                   2.00000   2.00000   2.00000   2.00000   2.00000   2.00000
                  --------  --------  --------  --------  --------  --------
13 S  pz             17.8       0.0       0.0       0.0       0.0       0.0
13 S  px             12.1       0.0       0.0       0.0       0.0       0.0
13 S  py             70.1       0.0       0.0       0.0       0.0       0.0
14 P  pz              0.0       0.0       0.0       0.0       0.7      10.7
14 P  px              0.0       0.0       0.0       0.0      67.0      26.5
14 P  py              0.0       0.0       0.0       0.0      32.2      62.6
15 S  pz              0.0      95.0       1.9       3.1       0.0       0.0
15 S  px              0.0       3.9      81.0      15.1       0.0       0.0
15 S  py              0.0       1.1      17.1      81.8       0.0       0.0

                     30        31        32        33        34        35   
                  -4.63218  -1.03779  -1.01510  -0.96718  -0.93972  -0.92067
                   2.00000   2.00000   2.00000   2.00000   2.00000   2.00000
                  --------  --------  --------  --------  --------  --------
 0 C  s               0.0       0.0       0.3       0.0       0.0       0.0
 0 C  px              0.0       0.0       0.3       0.0       0.0       0.0
 0 C  py              0.0       0.0       0.3       0.0       0.0       0.0
 1 C  s               0.0       0.0       4.6       0.0       0.0       0.0
 1 C  pz              0.0       0.0       1.6       0.0       0.0       0.0
 1 C  px              0.0       0.0       0.4       0.0       0.0       0.0
 1 C  py              0.0       0.0       3.6       0.0       0.0       0.0
 1 C  dyz             0.0       0.0       0.2       0.0       0.0       0.0
 1 C  dx2y2           0.0       0.0       0.1       0.0       0.0       0.0
 2 O  s               0.0       0.0      42.4       0.0       0.0       0.1
 2 O  pz              0.0       0.0       0.9       0.0       0.0       0.0
 2 O  px              0.0       0.0       1.3       0.0       0.0       0.0
 2 O  py              0.0       0.0       1.0       0.0       0.0       0.0
 3 C  s               0.0       0.0      18.5       0.0       0.0       0.0
 3 C  pz              0.0       0.0       2.5       0.0       0.0       0.1
 3 C  px              0.0       0.0       1.4       0.0       0.0       0.1
 3 C  py              0.0       0.0       1.5       0.0       0.0       0.1
 3 C  dxz             0.0       0.0       1.0       0.0       0.0       0.0
 3 C  dxy             0.0       0.0       0.1       0.0       0.0       0.0
 4 O  s               0.0       0.0      10.2       0.0       0.0       0.4
 4 O  pz              0.0       0.0       0.4       0.0       0.0       0.0
 4 O  px              0.0       0.0       0.9       0.0       0.0       0.0
 4 O  py              0.0       0.0       1.3       0.0       0.0       0.0
 5 C  s               0.0       0.1       1.0       0.0       0.0       0.0
 5 C  pz              0.0       0.0       0.4       0.0       0.0       0.0
 5 C  py              0.0       0.1       1.4       0.0       0.0       0.0
 6 C  s               0.0       1.1       0.1       0.0       0.3       0.0
 6 C  pz              0.0       0.3       0.0       0.0       0.0       0.0
 6 C  px              0.0       0.1       0.0       0.1       0.5       0.0
 6 C  py              0.0       1.4       0.1       0.0       0.1       0.0
 7 H  s               0.0       0.2       0.0       0.0       0.0       0.0
 8 C  s               0.0      19.0       0.0       0.0       4.8       0.1
 8 C  pz              0.0       0.9       0.0       0.0       0.1       0.0
 8 C  px              0.0       0.5       0.0       0.5      23.9       0.3
 8 C  py              0.0       4.0       0.0       0.0       0.3       0.0
 8 C  dz2             0.0       0.4       0.0       0.0       0.2       0.0
 8 C  dxz             0.0       0.1       0.0       0.0       0.1       0.0
 8 C  dyz             0.0       0.1       0.0       0.0       0.0       0.0
 8 C  dx2y2           0.0       0.3       0.0       0.0       0.7       0.0
 8 C  dxy             0.0       0.3       0.0       0.0       0.8       0.0
 9 O  s               0.0      10.3       0.0       0.7      41.1       0.5
 9 O  px              0.0       2.6       0.0       0.0       3.8       0.1
 9 O  py              0.0       0.0       0.0       0.0       0.4       0.0
10 O  s               0.0      42.0       0.0       0.4      13.6       0.1
10 O  px              0.0       3.4       0.0       0.0       0.2       0.0
10 O  py              0.0       0.1       0.0       0.0       0.2       0.0
11 C  s               0.0       4.2       0.0       0.1       1.8       0.0
11 C  pz              0.0       1.0       0.0       0.0       0.2       0.0
11 C  px              0.0       0.1       0.0       0.0       0.3       0.0
11 C  py              0.0       4.3       0.0       0.0       0.9       0.0
11 C  dyz             0.0       0.2       0.0       0.0       0.1       0.0
11 C  dx2y2           0.0       0.2       0.0       0.0       0.1       0.0
12 C  s               0.0       0.2       0.0       0.0       0.2       0.0
12 C  px              0.0       0.2       0.0       0.0       0.1       0.0
12 C  py              0.0       0.2       0.0       0.0       0.1       0.0
13 S  s               0.0       0.1       0.0       0.3       0.1       0.0
13 S  pz              0.0       0.0       0.0       0.2       0.0       0.0
13 S  px              0.0       0.0       0.0       0.2       0.0       0.0
14 P  s               0.0       0.1       0.0      14.0       0.1       0.2
14 P  pz             88.5       0.0       0.0       0.7       0.0       0.2
14 P  px              6.4       0.0       0.0       4.4       0.4       0.3
14 P  py              5.1       0.1       0.0       0.1       0.6       9.0
14 P  dz2             0.0       0.0       0.0       0.5       0.0       0.0
14 P  dxz             0.0       0.0       0.0       0.3       0.0       0.1
14 P  dyz             0.0       0.0       0.0       0.1       0.0       0.2
14 P  dx2y2           0.0       0.0       0.0       0.0       0.0       0.7
14 P  dxy             0.0       0.0       0.0       0.0       0.0       2.2
15 S  s               0.0       0.0       0.0       0.3       0.0       0.0
15 S  pz              0.0       0.0       0.0       0.3       0.0       0.0
16 O  s               0.0       0.0       0.0      34.4       0.2      25.0
16 O  pz              0.0       0.0       0.0       0.8       0.0       0.4
16 O  px              0.0       0.0       0.0       0.9       0.0       0.1
16 O  py              0.0       0.0       0.0       0.0       0.0       0.8
17 C  s               0.0       0.0       0.0       4.0       0.0       4.0
17 C  pz              0.0       0.0       0.0       0.3       0.0       0.3
17 C  px              0.0       0.0       0.0       0.5       0.0       0.3
17 C  py              0.0       0.0       0.0       3.6       0.0       2.8
17 C  dx2y2           0.0       0.0       0.0       0.1       0.0       0.1
18 O  s               0.0       0.0       0.0      22.0       1.8      34.9
18 O  pz              0.0       0.0       0.0       0.1       0.0       0.3
18 O  px              0.0       0.0       0.0       0.8       0.1       1.3
18 O  py              0.0       0.0       0.0       0.5       0.0       0.2
19 C  s               0.0       0.0       0.0       2.5       0.2       5.4
19 C  pz              0.0       0.0       0.0       0.3       0.0       0.5
19 C  px              0.0       0.0       0.0       0.4       0.0       0.7
19 C  py              0.0       0.0       0.0       2.2       0.2       3.6
19 C  dyz             0.0       0.0       0.0       0.1       0.0       0.1
19 C  dx2y2           0.0       0.0       0.0       0.1       0.0       0.1
19 C  dxy             0.0       0.0       0.0       0.1       0.0       0.2
23 H  s               0.0       0.0       0.7       0.0       0.0       0.0
24 H  s               0.0       0.0       0.5       0.0       0.0       0.0
[...]
19 C  dxy             0.4       0.0       0.1       3.0       0.0       0.0

                    312       313       314       315   
                   3.48873   3.50832   3.57196   3.57930
                   0.00000   0.00000   0.00000   0.00000
                  --------  --------  --------  --------
 1 C  s               0.3       0.0       0.0       0.0
 1 C  pz              0.2       0.0       0.0       0.0
 1 C  py              0.2       0.0       0.0       0.1
 1 C  dz2             0.0       0.0       0.0       0.2
 1 C  dyz             0.5       0.1       0.0       0.0
 1 C  dx2y2           0.0       0.0       0.0       0.4
 1 C  dxy             0.4       0.0       0.0       0.0
 2 O  s               0.7       0.0       0.1       0.5
 2 O  pz              1.6       0.2       0.1       0.1
 2 O  px              1.2       0.1       0.0       0.1
 2 O  py              0.6       0.1       0.0       0.2
 2 O  dz2             4.6       0.5       0.1       0.7
 2 O  dxz            16.4       1.4       0.5       4.0
 2 O  dyz             0.1       0.0       0.0       4.8
 2 O  dx2y2          10.6       1.3       0.2       0.2
 2 O  dxy             0.1       0.0       0.0       3.7
 3 C  s               0.1       0.1       0.0       7.0
 3 C  pz              1.4       0.2       0.0       0.2
 3 C  px              1.8       0.3       0.1       0.6
 3 C  py              0.6       0.2       0.0       3.0
 3 C  dz2             2.7       0.4       0.1       0.0
 3 C  dxz             5.6       0.5       0.1       3.2
 3 C  dyz             0.2       0.0       0.0       4.2
 3 C  dx2y2           7.9       1.2       0.1       0.3
 3 C  dxy             0.0       0.0       0.0       5.3
 4 O  s               0.8       0.3       0.0       4.4
 4 O  pz              0.5       0.1       0.0       0.1
 4 O  px              0.7       0.1       0.0       0.6
 4 O  py              0.1       0.0       0.0       2.8
 4 O  dz2             0.1       0.0       0.0       9.6
 4 O  dxz             6.7       1.4       0.0       0.6
 4 O  dyz             6.8       1.6       0.1       5.4
 4 O  dx2y2           3.9       0.2       0.1      14.7
 4 O  dxy             6.6       2.0       0.1      21.0
 5 C  pz              0.1       0.0       0.0       0.1
 5 C  py              0.1       0.0       0.0       0.1
 5 C  dz2             0.0       0.0       0.0       0.1
 5 C  dyz             0.6       0.2       0.0       0.0
 5 C  dx2y2           0.1       0.1       0.0       0.3
 5 C  dxy             0.4       0.1       0.0       0.0
 6 C  py              0.0       0.2       0.1       0.0
 6 C  dyz             0.0       0.4       0.0       0.0
 6 C  dx2y2           0.1       0.8       0.1       0.0
 6 C  dxy             0.0       0.1       0.5       0.0
 8 C  s               0.3       0.0       6.8       0.0
 8 C  px              0.4       4.7       2.5       0.0
 8 C  py              0.1       0.2       0.6       0.0
 8 C  dz2             0.1       0.0       2.1       0.0
 8 C  dxz             0.4       2.2       0.3       0.0
 8 C  dyz             0.0       0.0       0.2       0.0
 8 C  dx2y2           0.2       0.1      11.2       0.0
 8 C  dxy             2.0      11.8       0.7       0.1
 9 O  s               0.0       1.5       3.7       0.0
 9 O  pz              0.0       0.0       0.1       0.0
 9 O  px              0.1       1.6       2.7       0.0
 9 O  py              0.1       0.2       0.6       0.0
 9 O  dz2             0.0       3.2       8.9       0.0
 9 O  dxz             0.3       0.4       3.1       0.0
 9 O  dyz             0.1       0.3       0.3       0.0
 9 O  dx2y2           1.1      19.6      15.6       0.1
 9 O  dxy             1.1       1.5      19.5       0.0
10 O  s               0.2       0.9       0.6       0.0
10 O  pz              0.1       0.5       0.1       0.0
10 O  px              0.2       0.8       0.2       0.0
10 O  py              0.4       2.3       0.4       0.0
10 O  dz2             0.3       1.3       0.3       0.0
10 O  dxz             1.0       4.9       1.0       0.0
10 O  dyz             0.2       0.2       3.7       0.0
10 O  dx2y2           0.1       1.8       5.6       0.0
10 O  dxy             4.8      22.5       5.2       0.1
11 C  s               0.0       0.2       0.0       0.0
11 C  py              0.0       0.3       0.0       0.0
11 C  dxz             0.0       0.0       0.2       0.0
11 C  dyz             0.0       0.3       0.0       0.0
11 C  dx2y2           0.2       0.9       0.0       0.0
11 C  dxy             0.0       0.0       0.6       0.0


                      *****************************
                      * MAYER POPULATION ANALYSIS *
                      *****************************

  NA   - Mulliken gross atomic population
  ZA   - Total nuclear charge
  QA   - Mulliken gross atomic charge
  VA   - Mayer's total valence
  BVA  - Mayer's bonded valence
  FA   - Mayer's free valence

  ATOM       NA         ZA         QA         VA         BVA        FA
  0 C      6.3067     6.0000    -0.3067     4.0140     4.0140    -0.0000
  1 C      6.0107     6.0000    -0.0107     4.0460     4.0460     0.0000
  2 O      8.2345     8.0000    -0.2345     2.2605     2.2605    -0.0000
  3 C      5.8732     6.0000     0.1268     4.3809     4.3809     0.0000
  4 O      8.1867     8.0000    -0.1867     2.2992     2.2992     0.0000
  5 C      6.0495     6.0000    -0.0495     3.8093     3.8093    -0.0000
  6 C      6.3451     6.0000    -0.3451     3.9494     3.9494    -0.0000
  7 H      0.8495     1.0000     0.1505     0.9508     0.9508    -0.0000
  8 C      5.7675     6.0000     0.2325     4.2665     4.2665     0.0000
  9 O      8.1931     8.0000    -0.1931     2.2962     2.2962     0.0000
 10 O      8.2185     8.0000    -0.2185     2.2991     2.2991    -0.0000
 11 C      6.0334     6.0000    -0.0334     3.9985     3.9985     0.0000
 12 C      6.2744     6.0000    -0.2744     3.9991     3.9991    -0.0000
 13 S     16.0818    16.0000    -0.0818     2.2551     2.2551     0.0000
 14 P     14.3731    15.0000     0.6269     4.9527     4.9527     0.0000
 15 S     16.3544    16.0000    -0.3544     2.0156     2.0156    -0.0000
 16 O      8.3680     8.0000    -0.3680     2.1966     2.1966    -0.0000
 17 C      6.0842     6.0000    -0.0842     3.8207     3.8207    -0.0000
 18 O      8.3749     8.0000    -0.3749     2.1649     2.1649     0.0000
 19 C      6.1218     6.0000    -0.1218     3.7966     3.7966    -0.0000
 20 H      0.8851     1.0000     0.1149     0.9546     0.9546    -0.0000
 21 H      0.8863     1.0000     0.1137     0.9567     0.9567    -0.0000
 22 H      0.8700     1.0000     0.1300     0.9679     0.9679     0.0000
 23 H      0.8886     1.0000     0.1114     0.9768     0.9768     0.0000
 24 H      0.8974     1.0000     0.1026     0.9503     0.9503     0.0000
 25 H      0.8913     1.0000     0.1087     0.9684     0.9684    -0.0000
 26 H      0.8797     1.0000     0.1203     1.0306     1.0306    -0.0000
 27 H      0.8889     1.0000     0.1111     0.9575     0.9575     0.0000
 28 H      0.8760     1.0000     0.1240     0.9656     0.9656    -0.0000
 29 H      0.8821     1.0000     0.1179     0.9577     0.9577     0.0000
 30 H      0.8824     1.0000     0.1176     0.9551     0.9551     0.0000
 31 H      0.8776     1.0000     0.1224     0.9572     0.9572     0.0000
 32 H      0.8859     1.0000     0.1141     1.0021     1.0021     0.0000
 33 H      0.8820     1.0000     0.1180     0.9503     0.9503    -0.0000
 34 H      0.8863     1.0000     0.1137     0.9649     0.9649    -0.0000
 35 H      0.8878     1.0000     0.1122     0.9846     0.9846    -0.0000
 36 H      0.8642     1.0000     0.1358     1.0063     1.0063    -0.0000
 37 H      0.8877     1.0000     0.1123     0.9544     0.9544    -0.0000

  Mayer bond orders larger than 0.100000
B(  0-C ,  1-C ) :   1.1742 B(  0-C , 20-H ) :   0.9440 B(  0-C , 21-H ) :   0.9485 
B(  0-C , 22-H ) :   0.9458 B(  1-C ,  2-O ) :   0.9131 B(  1-C , 23-H ) :   0.9143 
B(  1-C , 24-H ) :   0.9369 B(  2-O ,  3-C ) :   1.2206 B(  3-C ,  4-O ) :   2.0103 
B(  3-C ,  5-C ) :   1.0239 B(  5-C ,  6-C ) :   1.0419 B(  5-C , 25-H ) :   0.8771 
B(  5-C , 26-H ) :   0.8694 B(  6-C ,  7-H ) :   0.8637 B(  6-C ,  8-C ) :   0.9232 
B(  6-C , 13-S ) :   1.0412 B(  8-C ,  9-O ) :   1.9422 B(  8-C , 10-O ) :   1.2829 
B(  9-O , 14-P ) :   0.1054 B( 10-O , 11-C ) :   0.8861 B( 11-C , 12-C ) :   1.1551 
B( 11-C , 27-H ) :   0.9321 B( 11-C , 28-H ) :   0.9280 B( 12-C , 29-H ) :   0.9493 
B( 12-C , 30-H ) :   0.9419 B( 12-C , 31-H ) :   0.9494 B( 13-S , 14-P ) :   0.9258 
B( 13-S , 15-S ) :   0.1183 B( 14-P , 15-S ) :   1.5456 B( 14-P , 16-O ) :   1.1400 
B( 14-P , 18-O ) :   1.0956 B( 16-O , 17-C ) :   0.9297 B( 17-C , 32-H ) :   0.9344 
B( 17-C , 33-H ) :   0.9549 B( 17-C , 34-H ) :   0.9537 B( 18-O , 19-C ) :   0.9342 
B( 19-C , 35-H ) :   0.9431 B( 19-C , 36-H ) :   0.9236 B( 19-C , 37-H ) :   0.9571 


-------
TIMINGS
-------

Total SCF time: 0 days 0 hours 0 min 14 sec 

Total time                  ....      14.480 sec
Sum of individual times     ....      14.445 sec  ( 99.8%)

SCF preparation             ....       2.525 sec  ( 17.4%)
Fock matrix formation       ....       4.831 sec  ( 33.4%)
  Startup                   ....       0.009 sec  (  0.2% of F)
  Split-RI-J                ....       3.010 sec  ( 62.3% of F)
  XC integration            ....       1.773 sec  ( 36.7% of F)
    Basis function eval.    ....       0.722 sec  ( 40.7% of XC)
    Density eval.           ....       0.436 sec  ( 24.6% of XC)
    XC-Functional eval.     ....       0.099 sec  (  5.6% of XC)
    XC-Potential eval.      ....       0.429 sec  ( 24.2% of XC)
Diagonalization             ....       0.000 sec  (  0.0%)
Density matrix formation    ....       0.014 sec  (  0.1%)
Total Energy calculation    ....       0.001 sec  (  0.0%)
Population analysis         ....       6.979 sec  ( 48.2%)
Orbital Transformation      ....       0.020 sec  (  0.1%)
Orbital Orthonormalization  ....       0.000 sec  (  0.0%)
DIIS solution               ....       0.026 sec  (  0.2%)
  MO trafo                  ....       0.000 sec  (  0.0 % of DIIS)
  Orb grad                  ....       0.000 sec  (  0.0 % of DIIS)
  Energy W gradient         ....       0.000 sec  (  0.0 % of DIIS)
  DIIS error                ....       0.004 sec  ( 15.4 % of DIIS)
  DIIS work                 ....       0.022 sec  ( 83.4 % of DIIS)
  Form Q                    ....       0.000 sec  (  0.0 % of DIIS)
  Form QpQm                 ....       0.000 sec  (  0.0 % of DIIS)
  Exp/Cayley                ....       0.000 sec  (  0.0 % of DIIS)
  Orb update                ....       0.000 sec  (  0.0 % of DIIS)
  Wake-sleep                ....       0.000 sec  (  1.1 % of DIIS)
SOSCF solution              ....       0.049 sec  (  0.3%)
  MO trafo                  ....       0.031 sec  ( 63.7 % of SOSCF)
  Orb grad                  ....       0.000 sec  (  0.7 % of SOSCF)
  Rot update                ....       0.002 sec  (  4.0 % of SOSCF)
  Step                      ....       0.015 sec  ( 31.0 % of SOSCF)
Finished LeanSCF after  21.5 sec

Maximum memory used throughout the entire LEANSCF-calculation: 33.2 MB


-------------------------------------------------------------------------------
                          DFT DISPERSION CORRECTION                            
                                                                               
                                DFTD4 V3.4.0                                   
-------------------------------------------------------------------------------
The PBE functional is recognized
Active option DFTDOPT                   ...         5   

-------------------------   ----------------
Dispersion correction           -0.051829786
-------------------------   ----------------

------------------   -----------------
gCP correction             0.182452515
------------------   -----------------

-------------------------   --------------------
FINAL SINGLE POINT ENERGY     -1979.014450957017
-------------------------   --------------------


------------------------------------------------------------------------------
                              ORCA PROPERTY CALCULATIONS
------------------------------------------------------------------------------

GBWName                                 ... sp.gbw
Number of atoms                         ...     38
Number of basis functions               ...    316
Max core memory                         ...   1024 MB

Electric properties:
Dipole moment                           ... YES
Quadrupole moment                       ...  NO
Static polarizability (Dipole/Dipole)   ...  NO
Static polarizability (Dipole/Quad.)    ...  NO
Static polarizability (Quad./Quad.)     ...  NO
Static polarizability (Velocity)        ...  NO

Atomic electric properties:
Dipole moment                           ...  NO
Quadrupole moment                       ...  NO
Static polarizability                   ...  NO

Choice of electric origin               ... Center of mass
Position of electric origin             ...     0.000009     0.000002     0.000004

General magnetic properties:
Magnetizability                         ...  NO

EPR properties:
g-Tensor (aka g-matrix)                 ...  NO
Zero-Field splitting spin-orbit         ...  NO
Zero-field splitting spin-spin          ...  NO
Hyperfine couplings                     ...  NO (   0 nuclei)
Quadrupole couplings                    ...  NO (   0 nuclei)
Contact density                         ...  NO (   0 nuclei)

NMR properties:
Chemical shifts                         ...  NO (   0 nuclei)
Spin-rotation constants                 ...  NO (   0 nuclei)
Spin-spin couplings                     ...  NO (   0 nuclei,    0 pairs)

Choice of magnetic origin               ... GIAO
Position of magnetic origin             ...     0.000000     0.000000     0.000000

Properties with geometric perturbations:
SCF Hessian                             ...  NO
IR spectrum                             ...  NO
VCD spectrum                            ...  NO
X-ray spectroscopy properties:
SCF XES/XAS/RIXS spectra                ...  NO


-------------
DIPOLE MOMENT
-------------

Method             : SCF
Type of density    : Electron Density
Multiplicity       :   1
Irrep              :   0
Energy             : -1979.1450736869614957 Eh
Relativity type    : 
Basis              : AO
                                X                 Y                 Z
Electronic contribution:    -15.601607744      -1.590307951      -1.446990157
Nuclear contribution   :     17.243479903       2.678396522       0.736678588
                        -----------------------------------------
Total Dipole Moment    :      1.641872159       1.088088571      -0.710311570
                        -----------------------------------------
Magnitude (a.u.)       :      2.093853732
Magnitude (Debye)      :      5.322153228



--------------------
Rotational spectrum 
--------------------
 
Rotational constants in cm-1:             0.011086             0.007876             0.005357 
Rotational constants in MHz :           332.340897           236.116397           160.611119 

Dipole components along the rotational axes: 
x,y,z [a.u.] :    -0.543580     1.917027    -0.643235 
x,y,z [Debye]:    -1.381671     4.872696    -1.634973 

 

Dipole moment calculation done in   1.7 sec 

Maximum memory used throughout the entire PROP-calculation: 23.0 MB

--------------------------------
SUGGESTED CITATIONS FOR THIS RUN
--------------------------------

Below you find a list of papers that are relevant to this ORCA run
We neither can nor want to force you to cite these papers, but we appreciate if you do
You receive ORCA, which is the product of decades of hard work by many enthusiastic individuals, for free
The only thing we kindly ask in return is that you cite our papers,
We deeply appreciate it, if you show your appreciation for ORCA by not just citing the generic ORCA reference.

Please note that relegating all ORCA citations to the supporting information does *not* help us.
SI sections are not indexed - citations you put there will not count into any citation statistics
But we need these citations in order to attract the funding resources that allow us to do what we are doing

Therefore, if you are a happy ORCA user, please consider citing a few of the papers listed below in the main body of your paper

In addition to the list printed below, the program has created the file sp.bibtex that contains the list in bibtex format
You can import this file easily into all common literature databanks and citation aid programs


List of essential papers. We consider these as the minimum necessary citations

  1. Neese,F.
     Software update: the ORCA program system, version 5.0
     WIRES Comput. Molec. Sci., 2022 12(1)e1606
     doi.org/10.1002/wcms.1606

List of papers to cite with high priority. The work reported in these papers was absolutely
necessary for this run to complete.
Our perspective: the developers of density functionals and basis sets usually get cited in chemistry papers
Good! But without the algorithms to do something with them, the functionals or basis sets would not do anything.
Hence, in our opinion, the algorithm design and method developments papers are equally worthy of getting cited

  1. Neese,F.
     An improvement of the resolution of the identity approximation for the formation of the Coulomb matrix
     J. Comp. Chem., 2003 24(14)1740-1747
     doi.org/10.1002/jcc.10318
  2. Neese,F.
     The SHARK Integral Generation and Digestion System
     J. Comp. Chem., 2022  1-16
     doi.org/10.1002/jcc.26942
  3. Caldeweyher,E.; Bannwarth,C.; Grimme,S.
     Extension of the D3 dispersion coefficient model
     J. Chem. Phys., 2017 147 034112
     doi.org/10.1063/1.4993215
  4. Caldeweyher,E.; Ehlert,S.; Hansen,A.; Neugebauer,H.; Spicher,S.; Bannwarth,C.; Grimme,S.
     A generally applicable atomic-charge dependent London dispersion correction
     J. Chem. Phys., 2019 150 154122
     doi.org/10.1063/1.5090222
  5. Caldeweyher,E.; Mewes,J.; Ehlert,S.; Grimme,S.
     Extension and evaluation of the D4 London-dispersion model for periodic systems
     Phys. Chem. Chem. Phys., 2020 22(16)8499-8512
     doi.org/10.1039/D0CP00502A
  6. Wittmann,L.; Gordiy,I.; Friede,M.; Helmich-Paris,B.; Grimme,S.; Hansen,A.; Bursch,M.
     Extension of the D3 and D4 London Dispersion Corrections to the full Actinides Series
     Phys. Chem. Chem. Phys., 2024 26(32)21379-21394
     doi.org/https://doi.org/10.1039/D4CP01514B 

List of suggested additional citations. These are papers that are important in the 'surrounding' of 
of this run, or papers that preceded the highly important papers. If you like your results we are grateful for a citation.

  1. Neese,F.
     The ORCA program system
     WIRES Comput. Molec. Sci., 2012 2(1)73-78
     doi.org/10.1002/wcms.81
  2. Neese,F.
     Software update: the ORCA program system, version 4.0
     WIRES Comput. Molec. Sci., 2018 8(1)1-6
     doi.org/10.1002/wcms.1327
  3. Neese,F.; Wennmohs,F.; Becker,U.; Riplinger,C.
     The ORCA quantum chemistry program package
     J. Chem. Phys., 2020 152 Art. No. L224108
     doi.org/10.1063/5.0004608

List of optional additional citations

  1. Neese,F.
     Approximate second-order SCF convergence for spin unrestricted wavefunctions
     Chem. Phys. Lett., 2000 325(1-3)93-98
     doi.org/10.1016/s0009-2614(00)00662-x

Timings for individual modules:

Sum of individual times          ...       24.711 sec (=   0.412 min)
Startup calculation              ...        1.223 sec (=   0.020 min)   4.9 %
SCF iterations                   ...       21.687 sec (=   0.361 min)  87.8 %
Property calculations            ...        1.801 sec (=   0.030 min)   7.3 %
                             ****ORCA TERMINATED NORMALLY****
TOTAL RUN TIME: 0 days 0 hours 0 minutes 36 seconds 926 msec
