
                                 *****************
                                 * O   R   C   A *
                                 *****************

                                            #,                                       
                                            ###                                      
                                            ####                                     
                                            #####                                    
                                            ######                                   
                                           ########,                                 
                                     ,,################,,,,,                         
                               ,,#################################,,                 
                          ,,##########################################,,             
                       ,#########################################, ''#####,          
                    ,#############################################,,   '####,        
                  ,##################################################,,,,####,       
                ,###########''''           ''''###############################       
              ,#####''   ,,,,##########,,,,          '''####'''          '####       
            ,##' ,,,,###########################,,,                        '##       
           ' ,,###''''                  '''############,,,                           
         ,,##''                                '''############,,,,        ,,,,,,###''
      ,#''                                            '''#######################'''  
     '                                                          ''''####''''         
             ,#######,   #######,   ,#######,      ##                                
            ,#'     '#,  ##    ##  ,#'     '#,    #''#        ,####,   ,####,        
            ##       ##  ##   ,#'  ##            #'  '#       #'       #'  '#        
            ##       ##  #######   ##           ,######,      #####,   #    #        
            '#,     ,#'  ##    ##  '#,     ,#' ,#      #,     #,   #   #,  ,#        
             '#######'   ##     ##  '#######'  #'      '#     '####' # '####'        



                #########################################################
                #                        -***-                          #
                #          Department of theory and spectroscopy        #
                #                                                       #
                #                      Frank Neese                      #
                #                                                       #
                #     Directorship, Architecture, Infrastructure        #
                #                    SHARK, DRIVERS                     #
                #        Core code/Algorithms in most modules           #
                #                                                       #
                #        Max Planck Institute fuer Kohlenforschung      #
                #                Kaiser Wilhelm Platz 1                 #
                #                 D-45470 Muelheim/Ruhr                 #
                #                      Germany                          #
                #                                                       #
                #                  All rights reserved                  #
                #                        -***-                          #
                #########################################################


                         Program Version 6.0.0  -   RELEASE  -


 With contributions from (in alphabetic order):
   Daniel Aravena         : Magnetic Suceptibility
   Michael Atanasov       : Ab Initio Ligand Field Theory (pilot matlab implementation)
   Alexander A. Auer      : GIAO ZORA, VPT2 properties, NMR spectrum
   Ute Becker             : All parallelization in ORCA, NUMFREQ, NUMCALC
   Giovanni Bistoni       : ED, misc. LED, open-shell LED, HFLD
   Martin Brehm           : Molecular dynamics
   Dmytro Bykov           : pre 5.0 version of the SCF Hessian
   Marcos Casanova-Páez   : Triplet and SCS-CIS(D). UHF-(DLPNO)-IP/EA/STEOM-CCSD. UHF-CVS-IP/STEOM-CCSD
   Vijay G. Chilkuri      : MRCI spin determinant printing, contributions to CSF-ICE
   Pauline Colinet        : FMM embedding
   Dipayan Datta          : RHF DLPNO-CCSD density
   Achintya Kumar Dutta   : EOM-CC, STEOM-CC
   Nicolas Foglia         : Exact transition moments, OPA infrastructure, MCD improvements
   Dmitry Ganyushin       : Spin-Orbit,Spin-Spin,Magnetic field MRCI
   Miquel Garcia          : C-PCM and meta-GGA Hessian, CCSD/C-PCM, Gaussian charge scheme
   Tiago L. C. Gouveia    : GS-ROHF, GS-ROCIS
   Yang Guo               : DLPNO-NEVPT2, F12-NEVPT2, CIM, IAO-localization
   Andreas Hansen         : Spin unrestricted coupled pair/coupled cluster methods
   Ingolf Harden          : AUTO-CI MPn and infrastructure 
   Benjamin Helmich-Paris : MC-RPA, TRAH-(SCF,CASSCF), AVAS, COSX integrals, SCF dyn. polar.
   Lee Huntington         : MR-EOM, pCC
   Robert Izsak           : Overlap fitted RIJCOSX, COSX-SCS-MP3, EOM
   Riya Kayal             : Wick's Theorem for AUTO-CI, AUTO-CI UHF-CCSDT
   Emily Kempfer          : AUTO-CI, RHF CISDT and CCSDT
   Christian Kollmar      : KDIIS, OOCD, Brueckner-CCSD(T), CCSD density, CASPT2, CASPT2-K, improved NEVPT2
   Axel Koslowski         : Symmetry handling
   Simone Kossmann        : Meta GGA functionals, TD-DFT gradient, OOMP2, (MP2 Hessian; deprecated post 5.0)
   Lucas Lang             : DCDCAS
   Marvin Lechner         : AUTO-CI (C++ implementation), FIC-MRCC
   Spencer Leger          : CASSCF response
   Dagmar Lenk            : GEPOL surface, SMD, ORCA-2-JSON
   Dimitrios Liakos       : Extrapolation schemes; Compound Job, initial MDCI parallelization
   Dimitrios Manganas     : Further ROCIS development; embedding schemes. LFT, Crystal Embedding
   Dimitrios Pantazis     : SARC Basis sets
   Anastasios Papadopoulos: AUTO-CI, single reference methods and gradients
   Taras Petrenko         : pre 6.0 DFT Hessian and TD-DFT gradient, (ASA, deprecated), ECA, 1-Electron XAS/XES, NRVS
   Peter Pinski           : DLPNO-MP2, DLPNO-MP2 Gradient
   Christoph Reimann      : Effective Core Potentials
   Marius Retegan         : Local ZFS, SOC
   Christoph Riplinger    : Optimizer, TS searches, QM/MM, DLPNO-CCSD(T), (RO)-DLPNO pert. Triples
   Michael Roemelt        : Original ROCIS implementation
   Masaaki Saitow         : Open-shell DLPNO-CCSD energy and density
   Barbara Sandhoefer     : DKH picture change effects
   Kantharuban Sivalingam : CASSCF convergence/infrastructure, NEVPT2 and variants, FIC-MRCI
   Bernardo de Souza      : ESD, SOC TD-DFT
   Georgi Stoychev        : AutoAux, RI-MP2 NMR, DLPNO-MP2 response, X2C
   Van Anh Tran           : RI-MP2 g-tensors
   Willem Van den Heuvel  : Paramagnetic NMR
   Zikuan Wang            : NOTCH, Electric field optimization 
   Frank Wennmohs         : Technical directorship and infrastructure
   Hang Xu                : AUTO-CI-Response properties 


 We gratefully acknowledge several colleagues who have allowed us to
 interface, adapt or use parts of their codes:
   Stefan Grimme, W. Hujo, H. Kruse, P. Pracht,  : VdW corrections, initial TS optimization,
                  C. Bannwarth, S. Ehlert,         DFT functionals, gCP, sTDA/sTD-DF
                  L. Wittmann, M. Mueller
   Ed Valeev, F. Pavosevic, A. Kumar             : LibInt (2-el integral package), F12 methods
   Garnet Chan, S. Sharma, J. Yang, R. Olivares  : DMRG
   Ulf Ekstrom                                   : XCFun DFT Library
   Mihaly Kallay                                 : mrcc  (arbitrary order and MRCC methods)
   Frank Weinhold                                : gennbo (NPA and NBO analysis)
   Simon Mueller                                 : openCOSMO-RS
   Christopher J. Cramer and Donald G. Truhlar   : smd solvation model
   Lars Goerigk                                  : TD-DFT with DH, B97 family of functionals
   V. Asgeirsson, H. Jonsson                     : NEB implementation
   FAccTs GmbH                                   : IRC, NEB, NEB-TS, DLPNO-Multilevel, CI-OPT
                                                   MM, QMMM, 2- and 3-layer-ONIOM, Crystal-QMMM,
                                                   LR-CPCM, SF, NACMEs, symmetry and pop. for TD-DFT,
                                                   nearIR, NL-DFT gradient (VV10), updates on ESD,
                                                   ML-optimized integration grids, MBIS, APM,
                                                   GOAT, DOCKER, SOLVATOR, interface openCOSMO-RS
   S Lehtola, MJT Oliveira, MAL Marques          : LibXC Library
   Liviu Ungur et al                             : ANISO software


 Your calculation uses the libint2 library for the computation of 2-el integrals
 For citations please refer to: http://libint.valeyev.net

 Your ORCA version has been built with support for libXC version: 6.2.2
 For citations please refer to: https://libxc.gitlab.io

 This ORCA versions uses:
   CBLAS   interface :  Fast vector & matrix operations
   LAPACKE interface :  Fast linear algebra routines
   SCALAPACK package :  Parallel linear algebra routines
   Shared memory     :  Shared parallel matrices
   BLAS/LAPACK       :  OpenBLAS 0.3.27  USE64BITINT DYNAMIC_ARCH NO_AFFINITY SapphireRapids SINGLE_THREADED
        Core in use  :  SapphireRapids
   Copyright (c) 2011-2014, The OpenBLAS Project


Your calculation utilizes the geometrical counterpoise correction gCP
Please cite in your paper:
H.Kruse, S. Grimme J.Chem.Phys., 136, (2012), 154101 
   

Your calculation utilizes the atom-pairwise dispersion correction
based on EEQ partial charges (D4)


================================================================================

----- Orbital basis set information -----
Your calculation utilizes the basis: def2-SV(P)
   F. Weigend and R. Ahlrichs, Phys. Chem. Chem. Phys. 7, 3297 (2005).

----- AuxJ basis set information -----
Your calculation utilizes the auxiliary basis: def2/J
   F. Weigend, Phys. Chem. Chem. Phys. 8, 1057 (2006).

================================================================================
                                        WARNINGS
                       Please study these warnings very carefully!
================================================================================


================================================================================
                                       INPUT FILE
================================================================================
NAME = sp.inp
|  1> ! pbe def2-sv(p) def2/J RI DEFGRID1 loosescf d4 GCP(DFT/SV(P)) printgap
|  2> %output
|  3>     printlevel normal
|  4> end
|  5> * xyz 0 1
|  6> C 4.4192050828 -0.2690894026 -1.9989461908
|  7> C 4.3866576006 0.8266416051 -0.9527405596
|  8> O 3.6005711083 0.4644705463 0.1939362848
|  9> P 2.0245825004 0.2723082299 0.1335078996
| 10> S 1.0960018958 1.581844532 -0.9957239758
| 11> O 1.6037673535 0.4141721821 1.6467205001
| 12> C 1.8009135225 -0.5731080999 2.6936693074
| 13> C 3.2411253042 -1.015697378 2.8251001101
| 14> S 1.7699496126 -1.7749782099 -0.3799105417
| 15> C 0.0232438103 -1.7134095421 -0.8339261363
| 16> S -1.0287993493 -1.1575746669 0.5445155767
| 17> P -2.1804920277 0.3650647453 -0.4037078386
| 18> S -2.0684153412 0.4066782073 -2.3573828818
| 19> O -1.8148848541 1.7410167836 0.275102725
| 20> C -2.2801369367 2.1973988658 1.5676377445
| 21> C -1.744293053 1.3497299312 2.7018524217
| 22> O -3.6473204547 0.1215392489 0.1700020778
| 23> C -4.5940447883 -0.7582044749 -0.4615761479
| 24> C -4.1518267019 -2.2069067168 -0.4364377831
| 25> H 5.1326060555 -0.0040272168 -2.7726954488
| 26> H 4.708141231 -1.2153505866 -1.5488999588
| 27> H 3.4355934741 -0.3798246955 -2.4531199927
| 28> H 3.9769250985 1.7494092033 -1.3760148345
| 29> H 5.3775433359 1.0167938628 -0.5378531049
| 30> H 1.4574494506 -0.0547844764 3.5902150483
| 31> H 1.1428023441 -1.4214472752 2.4842943625
| 32> H 3.889942179 -0.1538836765 2.9569487374
| 33> H 3.3297578089 -1.6690479285 3.68756397
| 34> H 3.5536032265 -1.5587510585 1.9357036914
| 35> H -0.2520903553 -2.730976306 -1.0998282424
| 36> H -0.1277859515 -1.0302775305 -1.6747911848
| 37> H -1.9021724161 3.2201223921 1.6164364662
| 38> H -3.3719205171 2.2015924836 1.5573757185
| 39> H -2.1493211823 0.340537782 2.6442109649
| 40> H -0.6593725998 1.2985617473 2.643846205
| 41> H -2.0337728714 1.7971266513 3.6474655426
| 42> H -5.5085578799 -0.6057495631 0.113490925
| 43> H -4.7400479272 -0.4210863539 -1.4923571296
| 44> H -3.2870173105 -2.3399827844 -1.0847983859
| 45> H -3.8888917609 -2.5084013248 0.5742272584
| 46> H -4.9611975793 -2.8311140828 -0.8011235601
| 47> *
| 48> 
| 49>                          ****END OF INPUT****
================================================================================

                       ****************************
                       * Single Point Calculation *
                       ****************************

---------------------------------
CARTESIAN COORDINATES (ANGSTROEM)
---------------------------------
  C      4.419205   -0.269089   -1.998946
  C      4.386658    0.826642   -0.952741
  O      3.600571    0.464471    0.193936
  P      2.024583    0.272308    0.133508
  S      1.096002    1.581845   -0.995724
  O      1.603767    0.414172    1.646721
  C      1.800914   -0.573108    2.693669
  C      3.241125   -1.015697    2.825100
  S      1.769950   -1.774978   -0.379911
  C      0.023244   -1.713410   -0.833926
  S     -1.028799   -1.157575    0.544516
  P     -2.180492    0.365065   -0.403708
  S     -2.068415    0.406678   -2.357383
  O     -1.814885    1.741017    0.275103
  C     -2.280137    2.197399    1.567638
  C     -1.744293    1.349730    2.701852
  O     -3.647320    0.121539    0.170002
  C     -4.594045   -0.758204   -0.461576
  C     -4.151827   -2.206907   -0.436438
  H      5.132606   -0.004027   -2.772695
  H      4.708141   -1.215351   -1.548900
  H      3.435593   -0.379825   -2.453120
  H      3.976925    1.749409   -1.376015
  H      5.377543    1.016794   -0.537853
  H      1.457449   -0.054784    3.590215
  H      1.142802   -1.421447    2.484294
  H      3.889942   -0.153884    2.956949
  H      3.329758   -1.669048    3.687564
  H      3.553603   -1.558751    1.935704
  H     -0.252090   -2.730976   -1.099828
  H     -0.127786   -1.030278   -1.674791
  H     -1.902172    3.220122    1.616436
  H     -3.371921    2.201592    1.557376
  H     -2.149321    0.340538    2.644211
  H     -0.659373    1.298562    2.643846
  H     -2.033773    1.797127    3.647466
  H     -5.508558   -0.605750    0.113491
  H     -4.740048   -0.421086   -1.492357
  H     -3.287017   -2.339983   -1.084798
  H     -3.888892   -2.508401    0.574227
  H     -4.961198   -2.831114   -0.801124

----------------------------
CARTESIAN COORDINATES (A.U.)
----------------------------
  NO LB      ZA    FRAG     MASS         X           Y           Z
   0 C     6.0000    0    12.011    8.351087   -0.508505   -3.777461
   1 C     6.0000    0    12.011    8.289582    1.562126   -1.800419
   2 O     8.0000    0    15.999    6.804093    0.877722    0.366486
   3 P    15.0000    0    30.974    3.825906    0.514588    0.252293
   4 S    16.0000    0    32.060    2.071143    2.989253   -1.881646
   5 O     8.0000    0    15.999    3.030681    0.782672    3.111851
   6 C     6.0000    0    12.011    3.403233   -1.083017    5.090297
   7 C     6.0000    0    12.011    6.124839   -1.919390    5.338666
   8 S    16.0000    0    32.060    3.344720   -3.354223   -0.717927
   9 C     6.0000    0    12.011    0.043924   -3.237875   -1.575892
  10 S    16.0000    0    32.060   -1.944149   -2.187499    1.028985
  11 P    15.0000    0    30.974   -4.120533    0.689872   -0.762897
  12 S    16.0000    0    32.060   -3.908739    0.768510   -4.454808
  13 O     8.0000    0    15.999   -3.429635    3.290045    0.519869
  14 C     6.0000    0    12.011   -4.308834    4.152482    2.962406
  15 C     6.0000    0    12.011   -3.296236    2.550620    5.105761
  16 O     8.0000    0    15.999   -6.892437    0.229676    0.321257
  17 C     6.0000    0    12.011   -8.681486   -1.432799   -0.872253
  18 C     6.0000    0    12.011   -7.845815   -4.170449   -0.824748
  19 H     1.0000    0     1.008    9.699220   -0.007610   -5.239635
  20 H     1.0000    0     1.008    8.897098   -2.296680   -2.926997
  21 H     1.0000    0     1.008    6.492331   -0.717765   -4.635725
  22 H     1.0000    0     1.008    7.515299    3.305904   -2.600291
  23 H     1.0000    0     1.008   10.162084    1.921462   -1.016395
  24 H     1.0000    0     1.008    2.754180   -0.103528    6.784523
  25 H     1.0000    0     1.008    2.159583   -2.686146    4.694636
  26 H     1.0000    0     1.008    7.350925   -0.290798    5.587823
  27 H     1.0000    0     1.008    6.292330   -3.154043    6.968486
  28 H     1.0000    0     1.008    6.715337   -2.945613    3.657950
  29 H     1.0000    0     1.008   -0.476382   -5.160797   -2.078374
  30 H     1.0000    0     1.008   -0.241480   -1.946942   -3.164897
  31 H     1.0000    0     1.008   -3.594585    6.085149    3.054622
  32 H     1.0000    0     1.008   -6.372006    4.160407    2.943014
  33 H     1.0000    0     1.008   -4.061628    0.643523    4.996835
  34 H     1.0000    0     1.008   -1.246034    2.453926    4.996145
  35 H     1.0000    0     1.008   -3.843274    3.396077    6.892711
  36 H     1.0000    0     1.008  -10.409666   -1.144701    0.214467
  37 H     1.0000    0     1.008   -8.957392   -0.795738   -2.820146
  38 H     1.0000    0     1.008   -6.211563   -4.421927   -2.049972
  39 H     1.0000    0     1.008   -7.348940   -4.740192    1.085132
  40 H     1.0000    0     1.008   -9.375305   -5.350030   -1.513904

--------------------------------
INTERNAL COORDINATES (ANGSTROEM)
--------------------------------
 C      0   0   0     0.000000000000     0.00000000     0.00000000
 C      1   0   0     1.515332307643     0.00000000     0.00000000
 O      2   1   0     1.436651535583   112.36615539     0.00000000
 P      3   2   1     1.588810258594   122.88012858   292.64275194
 S      4   3   2     1.962730723807   114.23464864   320.55553609
 O      4   3   2     1.577029848515   102.55122074   199.81291337
 C      6   4   3     1.452477460164   126.46059414   285.43849196
 C      7   6   4     1.512405137896   113.00455415    54.55815422
 S      4   3   2     2.125986399299   104.14993386    88.79188612
 C      9   4   3     1.805796782803    98.26413933   194.32080292
 S     10   9   4     1.820947218974   112.26699216   300.29769768
 P     11  10   9     2.131655331049   101.15410238   130.15468524
 S     12  11  10     1.957329568136   115.35647703    12.66641166
 O     12  11  10     1.577243290791   107.84578067   244.71598146
 C     14  12  11     1.447546504245   125.79104626   283.29526718
 C     15  14  12     1.513972993273   112.25064438    65.99427803
 O     12  11  10     1.593748214063   103.17830360   138.32219406
 C     17  12  11     1.438446049935   122.76141950   270.65288622
 C     18  17  12     1.514901633444   112.67212124    65.22583705
 H      1   2   3     1.085304945371   109.25276475   187.88510676
 H      1   2   3     1.086938791754   110.44778043   308.33293673
 H      1   2   3     1.089049100911   110.00203875    68.59659816
 H      2   1   3     1.094779372914   110.52325979   238.71867496
 H      2   1   3     1.090937221657   111.65979841   116.07882773
 H      7   6   4     1.091064256994   103.10034773   175.12829237
 H      7   6   4     1.093904724844   107.90944684   291.11007968
 H      8   7   6     1.086770561636   110.30359670    54.10473040
 H      8   7   6     1.085618060075   108.83847534   174.13117262
 H      8   7   6     1.087922672540   110.39838823   293.73057161
 H     10   9   4     1.087177516218   105.93516097   181.50763488
 H     10   9   4     1.093861674990   110.37210038    61.03612549
 H     15  14  12     1.091421964833   102.94720515   186.17245657
 H     15  14  12     1.091839860986   108.31309093   302.71932502
 H     16  15  14     1.088962403884   110.33974172   293.89481313
 H     16  15  14     1.087674259138   109.84169087    54.01220369
 H     16  15  14     1.085424601175   109.11659215   173.91182904
 H     18  17  12     1.090999006953   103.57941751   186.08622608
 H     18  17  12     1.094291997736   108.23931126   302.80658350
 H     19  18  17     1.089025249700   109.80313306   291.42344917
 H     19  18  17     1.086957960531   110.56663795    51.88628932
 H     19  18  17     1.085224294281   109.07255140   172.31230512

---------------------------
INTERNAL COORDINATES (A.U.)
---------------------------
 C      0   0   0     0.000000000000     0.00000000     0.00000000
 C      1   0   0     2.863563063329     0.00000000     0.00000000
 O      2   1   0     2.714877952129   112.36615539     0.00000000
 P      3   2   1     3.002416267507   122.88012858   292.64275194
 S      4   3   2     3.709023542629   114.23464864   320.55553609
 O      4   3   2     2.980154518712   102.55122074   199.81291337
 C      6   4   3     2.744784615403   126.46059414   285.43849196
 C      7   6   4     2.858031514159   113.00455415    54.55815422
 S      4   3   2     4.017532059117   104.14993386    88.79188612
 C      9   4   3     3.412461373015    98.26413933   194.32080292
 S     10   9   4     3.441091548186   112.26699216   300.29769768
 P     11  10   9     4.028244787595   101.15410238   130.15468524
 S     12  11  10     3.698816837603   115.35647703    12.66641166
 O     12  11  10     2.980557866159   107.84578067   244.71598146
 C     14  12  11     2.735466459137   125.79104626   283.29526718
 C     15  14  12     2.860994331439   112.25064438    65.99427803
 O     12  11  10     3.011747651004   103.17830360   138.32219406
 C     17  12  11     2.718269092798   122.76141950   270.65288622
 C     18  17  12     2.862749207038   112.67212124    65.22583705
 H      1   2   3     2.050929118541   109.25276475   187.88510676
 H      1   2   3     2.054016640750   110.44778043   308.33293673
 H      1   2   3     2.058004547115   110.00203875    68.59659816
 H      2   1   3     2.068833191873   110.52325979   238.71867496
 H      2   1   3     2.061572578233   111.65979841   116.07882773
 H      7   6   4     2.061812640229   103.10034773   175.12829237
 H      7   6   4     2.067180346557   107.90944684   291.11007968
 H      8   7   6     2.053698731900   110.30359670    54.10473040
 H      8   7   6     2.051520819581   108.83847534   174.13117262
 H      8   7   6     2.055875905984   110.39838823   293.73057161
 H     10   9   4     2.054467764608   105.93516097   181.50763488
 H     10   9   4     2.067098994123   110.37210038    61.03612549
 H     15  14  12     2.062488610080   102.94720515   186.17245657
 H     15  14  12     2.063278319363   108.31309093   302.71932502
 H     16  15  14     2.057840713478   110.33974172   293.89481313
 H     16  15  14     2.055406472686   109.84169087    54.01220369
 H     16  15  14     2.051155235241   109.11659215   173.91182904
 H     18  17  12     2.061689335522   103.57941751   186.08622608
 H     18  17  12     2.067912186263   108.23931126   302.80658350
 H     19  18  17     2.057959474859   109.80313306   291.42344917
 H     19  18  17     2.054052864489   110.56663795    51.88628932
 H     19  18  17     2.050776710069   109.07255140   172.31230512

---------------------
BASIS SET INFORMATION
---------------------
There are 5 groups of distinct atoms

 Group   1 Type C   : 7s4p1d contracted to 3s2p1d pattern {511/31/1}
 Group   2 Type O   : 7s4p1d contracted to 3s2p1d pattern {511/31/1}
 Group   3 Type P   : 10s7p1d contracted to 4s3p1d pattern {5311/511/1}
 Group   4 Type S   : 10s7p1d contracted to 4s3p1d pattern {5311/511/1}
 Group   5 Type H   : 4s contracted to 2s pattern {31}

Atom   0C    basis set group =>   1
Atom   1C    basis set group =>   1
Atom   2O    basis set group =>   2
Atom   3P    basis set group =>   3
Atom   4S    basis set group =>   4
Atom   5O    basis set group =>   2
Atom   6C    basis set group =>   1
Atom   7C    basis set group =>   1
Atom   8S    basis set group =>   4
Atom   9C    basis set group =>   1
Atom  10S    basis set group =>   4
Atom  11P    basis set group =>   3
Atom  12S    basis set group =>   4
Atom  13O    basis set group =>   2
Atom  14C    basis set group =>   1
Atom  15C    basis set group =>   1
Atom  16O    basis set group =>   2
Atom  17C    basis set group =>   1
Atom  18C    basis set group =>   1
Atom  19H    basis set group =>   5
Atom  20H    basis set group =>   5
Atom  21H    basis set group =>   5
Atom  22H    basis set group =>   5
Atom  23H    basis set group =>   5
Atom  24H    basis set group =>   5
Atom  25H    basis set group =>   5
Atom  26H    basis set group =>   5
Atom  27H    basis set group =>   5
Atom  28H    basis set group =>   5
Atom  29H    basis set group =>   5
Atom  30H    basis set group =>   5
Atom  31H    basis set group =>   5
Atom  32H    basis set group =>   5
Atom  33H    basis set group =>   5
Atom  34H    basis set group =>   5
Atom  35H    basis set group =>   5
Atom  36H    basis set group =>   5
Atom  37H    basis set group =>   5
Atom  38H    basis set group =>   5
Atom  39H    basis set group =>   5
Atom  40H    basis set group =>   5
---------------------------------
AUXILIARY/J BASIS SET INFORMATION
---------------------------------
There are 5 groups of distinct atoms

 Group   1 Type C   : 12s5p4d2f1g contracted to 6s4p3d1f1g pattern {711111/2111/211/2/1}
 Group   2 Type O   : 12s5p4d2f1g contracted to 6s4p3d1f1g pattern {711111/2111/211/2/1}
 Group   3 Type P   : 14s5p5d2f1g contracted to 8s4p3d1f1g pattern {71111111/2111/311/2/1}
 Group   4 Type S   : 14s5p5d2f1g contracted to 8s4p3d1f1g pattern {71111111/2111/311/2/1}
 Group   5 Type H   : 5s2p1d contracted to 3s1p1d pattern {311/2/1}

Atom   0C    basis set group =>   1
Atom   1C    basis set group =>   1
Atom   2O    basis set group =>   2
Atom   3P    basis set group =>   3
Atom   4S    basis set group =>   4
Atom   5O    basis set group =>   2
Atom   6C    basis set group =>   1
Atom   7C    basis set group =>   1
Atom   8S    basis set group =>   4
Atom   9C    basis set group =>   1
Atom  10S    basis set group =>   4
Atom  11P    basis set group =>   3
Atom  12S    basis set group =>   4
Atom  13O    basis set group =>   2
Atom  14C    basis set group =>   1
Atom  15C    basis set group =>   1
Atom  16O    basis set group =>   2
Atom  17C    basis set group =>   1
Atom  18C    basis set group =>   1
Atom  19H    basis set group =>   5
Atom  20H    basis set group =>   5
Atom  21H    basis set group =>   5
Atom  22H    basis set group =>   5
Atom  23H    basis set group =>   5
Atom  24H    basis set group =>   5
Atom  25H    basis set group =>   5
Atom  26H    basis set group =>   5
Atom  27H    basis set group =>   5
Atom  28H    basis set group =>   5
Atom  29H    basis set group =>   5
Atom  30H    basis set group =>   5
Atom  31H    basis set group =>   5
Atom  32H    basis set group =>   5
Atom  33H    basis set group =>   5
Atom  34H    basis set group =>   5
Atom  35H    basis set group =>   5
Atom  36H    basis set group =>   5
Atom  37H    basis set group =>   5
Atom  38H    basis set group =>   5
Atom  39H    basis set group =>   5
Atom  40H    basis set group =>   5
------------------------------------------------------------------------------
                             ORCA STARTUP CALCULATIONS
                           -- RI-GTO INTEGRALS CHOSEN --
------------------------------------------------------------------------------
------------------------------------------------------------------------------
                   ___                                                        
                  /   \      - P O W E R E D   B Y -                         
                 /     \                                                     
                 |  |  |   _    _      __       _____    __    __             
                 |  |  |  | |  | |    /  \     |  _  \  |  |  /  |          
                  \  \/   | |  | |   /    \    | | | |  |  | /  /          
                 / \  \   | |__| |  /  /\  \   | |_| |  |  |/  /          
                |  |  |   |  __  | /  /__\  \  |    /   |      \           
                |  |  |   | |  | | |   __   |  |    \   |  |\   \          
                \     /   | |  | | |  |  |  |  | |\  \  |  | \   \       
                 \___/    |_|  |_| |__|  |__|  |_| \__\ |__|  \__/        
                                                                              
                      - O R C A' S   B I G   F R I E N D -                    
                                      &                                       
                       - I N T E G R A L  F E E D E R -                       
                                                                              
 v1 FN, 2020, v2 2021, v3 2022-2024                                           
------------------------------------------------------------------------------


----------------------
SHARK INTEGRAL PACKAGE
----------------------

Number of atoms                             ...     41
Number of basis functions                   ...    334
Number of shells                            ...    170
Maximum angular momentum                    ...      2
Integral batch strategy                     ... SHARK/LIBINT Hybrid
RI-J (if used) integral strategy            ... SPLIT-RIJ (Revised 2003 algorithm where possible)
Printlevel                                  ...      1
Contraction scheme used                     ... SEGMENTED contraction
Prescreening option                         ... SCHWARTZ
   Thresh                                   ... 1.000e-09
   Tcut                                     ... 1.000e-10
   Tpresel                                  ... 1.000e-10 
Coulomb Range Separation                    ... NOT USED
Exchange Range Separation                   ... NOT USED
Multipole approximations                    ... NOT USED
Finite Nucleus Model                        ... NOT USED
CABS basis                                  ... NOT available
Auxiliary Coulomb fitting basis             ... AVAILABLE
   # of basis functions in Aux-J            ...   1185
   # of shells in Aux-J                     ...    407
   Maximum angular momentum in Aux-J        ...      4
Auxiliary J/K fitting basis                 ... NOT available
Auxiliary Correlation fitting basis         ... NOT available
Auxiliary 'external' fitting basis          ... NOT available

Checking pre-screening integrals            ... done (  0.0 sec) Dimension = 170
Check shell pair data                       ... done (  0.0 sec)
Shell pair information
Shell pair cut-off parameter TPreSel        ...   1.0e-10
Total number of shell pairs                 ...     14535
Shell pairs after pre-screening             ...     10501
Total number of primitive shell pairs       ...     62501
Primitive shell pairs kept                  ...     26113
          la=0 lb=0:   4063 shell pairs
          la=1 lb=0:   3566 shell pairs
          la=1 lb=1:    827 shell pairs
          la=2 lb=0:   1326 shell pairs
          la=2 lb=1:    606 shell pairs
          la=2 lb=2:    113 shell pairs

Calculating one electron integrals          ... done (  0.1 sec)
Calculating RI/J V-Matrix + Cholesky decomp.... done (  0.5 sec)
Calculating Nuclear repulsion               ... done (  0.0 sec) ENN=   2824.660366188221 Eh

Diagonalization of the overlap matrix:
Smallest eigenvalue                        ... 3.151e-03
Time for diagonalization                   ...    0.010 sec
Threshold for overlap eigenvalues          ... 1.000e-07
Number of eigenvalues below threshold      ... 0
Time for construction of square roots      ...    0.027 sec
Total time needed                          ...    0.059 sec

-------------------
DFT GRID GENERATION
-------------------

General Integration Accuracy     IntAcc      ... 4.159
Radial Grid Type                 RadialGrid  ... OptM3 with GC (2021)
Angular Grid (max. ang.)         AngularGrid ... 3 (Lebedev-194)
Angular grid pruning method      GridPruning ... 4 (adaptive)
Weight generation scheme         WeightScheme... mBecke (2022)
Basis function cutoff            BFCut       ... 1.0000e-10
Integration weight cutoff        WCut        ... 1.0000e-14
Partially contracted basis set               ... off
Rotationally invariant grid construction     ... off
Angular grids for H and He will be reduced by one unit

Total number of grid points                  ...    97272
Total number of batches                      ...     1540
Average number of points per batch           ...       63
Average number of grid points per atom       ...     2372
Initializing property integral containers    ... done (  0.0 sec)

SHARK setup successfully completed in   2.3 seconds

Maximum memory used throughout the entire STARTUP-calculation: 52.2 MB
-------------------------------------------------------------------------------
                                 ORCA GUESS
                   Start orbitals & Density for SCF / CASSCF
-------------------------------------------------------------------------------

------------
SCF SETTINGS
------------
Hamiltonian:
 Density Functional     Method          .... DFT(GTOs)
 Exchange Functional    Exchange        .... PBE
   PBE kappa parameter   XKappa         ....  0.804000
   PBE mue parameter    XMuePBE         ....  0.219520
 Correlation Functional Correlation     .... PBE
   PBE beta parameter  CBetaPBE         ....  0.066725
 LDA part of GGA corr.  LDAOpt          .... PW91-LDA
 Gradients option       PostSCFGGA      .... off
   NL short-range parameter             ....  6.400000
 RI-approximation to the Coulomb term is turned on
   Number of AuxJ basis functions       .... 1185


General Settings:
 Integral files         IntName         .... sp
 Hartree-Fock type      HFTyp           .... RHF
 Total Charge           Charge          ....    0
 Multiplicity           Mult            ....    1
 Number of Electrons    NEL             ....  202
 Basis Dimension        Dim             ....  334
 Nuclear Repulsion      ENuc            ....   2824.6603661882 Eh

Convergence Acceleration:
 AO-DIIS                CNVDIIS         .... on
   Start iteration      DIISMaxIt       ....    12
   Startup error        DIISStart       ....  0.200000
   # of expansion vecs  DIISMaxEq       ....     5
   Bias factor          DIISBfac        ....   1.050
   Max. coefficient     DIISMaxC        ....  10.000
 MO-DIIS                CNVKDIIS        .... off
 Trust-Rad. Augm. Hess. CNVTRAH         .... auto
   Auto Start mean grad. ratio tolernc. ....  1.125000
   Auto Start start iteration           ....    50
   Auto Start num. interpolation iter.  ....    10
   Max. Number of Micro iterations      ....    24
   Max. Number of Macro iterations      .... Maxiter - #DIIS iter
   Number of Davidson start vectors     ....     2
   Converg. threshold    (grad. norm)   ....   1.000e-04
   Grad. Scal. Fac. for Micro threshold ....   0.100
   Minimum threshold for Micro iter.    ....   1.000e-02
   NR start threshold (gradient norm)   ....   1.000e-04
   Initial trust radius                 ....   0.400
   Minimum AH scaling param. (alpha)    ....   1.000
   Maximum AH scaling param. (alpha)    .... 1000.000
   Quad. conv. algorithm                .... NR
   White noise on init. David. guess    .... on
   Maximum white noise                  ....   0.010
   Pseudo random numbers                .... off
   Inactive MOs                         .... canonical
   Orbital update algorithm             .... Taylor
   Preconditioner                       .... Diag
   Full preconditioner red. dimension   ....   250
 SOSCF                  CNVSOSCF        .... on
   Start iteration      SOSCFMaxIt      ....   150
   Startup grad/error   SOSCFStart      ....  0.003300
   Hessian update       SOSCFHessUp     .... L-BFGS
 Level Shifting         CNVShift        .... on
   Level shift para.    LevelShift      ....    0.2500
   Turn off err/grad.   ShiftErr        ....    0.0010
 Zerner damping         CNVZerner       .... off
 Static damping         CNVDamp         .... on
   Fraction old density DampFac         ....    0.7000
   Max. Damping (<1)    DampMax         ....    0.9800
   Min. Damping (>=0)   DampMin         ....    0.0000
   Turn off err/grad.   DampErr         ....    0.1000

SCF Procedure:
 Maximum # iterations   MaxIter         ....   125
 SCF integral mode      SCFMode         .... Direct
   Integral package                     .... SHARK and LIBINT hybrid scheme
 Reset frequency        DirectResetFreq ....    20
 Integral Threshold     Thresh          ....  1.000e-09 Eh
 Primitive CutOff       TCut            ....  1.000e-10 Eh

Convergence Tolerance:
 Convergence Check Mode ConvCheckMode   .... Total+1el-Energy
 Convergence forced     ConvForced      .... 0
 Energy Change          TolE            ....  1.000e-05 Eh
 1-El. energy change                    ....  1.000e-02 Eh
 Orbital Gradient       TolG            ....  1.000e-04
 Orbital Rotation angle TolX            ....  1.000e-04
 DIIS Error             TolErr          ....  5.000e-04

------------------------------
INITIAL GUESS: MODEL POTENTIAL
------------------------------
Loading Hartree-Fock densities                     ... done
Calculating cut-offs                               ... done
Initializing the effective Hamiltonian             ... done
Setting up the integral package (SHARK)            ... done
Starting the Coulomb interaction                   ... done (   0.6 sec)
Making the grid                                    ... done (   0.6 sec)
Mapping shells                                     ... done
Starting the XC term evaluation                    ... done (   0.3 sec)
  promolecular density results
     # of electrons  =    201.981699788
     EX              =   -229.997278169
     EC              =     -7.293496342
     EX+EC           =   -237.290774511
Transforming the Hamiltonian                       ... done (   0.0 sec)
Diagonalizing the Hamiltonian                      ... done (   0.0 sec)
Back transforming the eigenvectors                 ... done (   0.1 sec)
Now organizing SCF variables                       ... done
                      ------------------
                      INITIAL GUESS DONE (   2.2 sec)
                      ------------------
             **** ENERGY FILE WAS UPDATED (sp.en.tmp) ****
Finished Guess after   2.5 sec
Maximum memory used throughout the entire GUESS-calculation: 39.6 MB

-------------------------------------------------------------------------------------------
                                      ORCA LEAN-SCF
                              memory conserving SCF solver
-------------------------------------------------------------------------------------------

----------------------------------------D-I-I-S--------------------------------------------
Iteration    Energy (Eh)           Delta-E    RMSDP     MaxDP     DIISErr   Damp  Time(sec)
-------------------------------------------------------------------------------------------
               ***  Starting incremental Fock matrix formation  ***
    1    -2929.1772181175974765     0.00e+00  2.74e-03  1.40e-01  1.87e-01  0.700   2.2
    2    -2929.4055136020888312    -2.28e-01  1.79e-03  7.18e-02  7.53e-02  0.700   2.1
                               ***Turning on AO-DIIS***
    3    -2929.4775502169050014    -7.20e-02  6.92e-04  1.94e-02  2.22e-02  0.700   2.0
    4    -2929.5229340607420454    -4.54e-02  1.06e-03  3.86e-02  1.09e-02  0.000   1.9
    5    -2929.6290110772451953    -1.06e-01  3.23e-04  1.34e-02  8.16e-03  0.000   2.5
                              *** Initializing SOSCF ***
---------------------------------------S-O-S-C-F--------------------------------------
Iteration    Energy (Eh)           Delta-E    RMSDP     MaxDP     MaxGrad    Time(sec)
--------------------------------------------------------------------------------------
    6    -2929.6301305477636561    -1.12e-03  1.16e-04  3.74e-03  1.88e-03     1.9
               *** Restarting incremental Fock matrix formation ***
    7    -2929.6302746276014659    -1.44e-04  7.85e-05  2.24e-03  2.61e-04     2.1
    8    -2929.6302779110137635    -3.28e-06  3.42e-05  1.09e-03  2.50e-04     1.8
                 **** Energy Check signals convergence ****

               *****************************************************
               *                     SUCCESS                       *
               *           SCF CONVERGED AFTER   8 CYCLES          *
               *****************************************************

             **** ENERGY FILE WAS UPDATED (sp.en.tmp) ****

----------------
TOTAL SCF ENERGY
----------------

Total Energy       :      -2929.63027791101376 Eh          -79719.29271 eV

Components:
Nuclear Repulsion  :       2824.66036618822091 Eh           76862.91620 eV
Electronic Energy  :      -5754.29064409923467 Eh         -156582.20891 eV
One Electron Energy:      -9668.60079376752583 Eh         -263096.00314 eV
Two Electron Energy:       3914.31014966829116 Eh          106513.79423 eV

Virial components:
Potential Energy   :      -5848.87116420288112 Eh         -159155.87571 eV
Kinetic Energy     :       2919.24088629186735 Eh           79436.58299 eV
Virial Ratio       :          2.00355893604667

DFT components:
N(Alpha)           :      101.000472651688 electrons
N(Beta)            :      101.000472651688 electrons
N(Total)           :      202.000945303377 electrons
E(X)               :     -231.804338964049 Eh       
E(C)               :       -7.300297841356 Eh       
E(XC)              :     -239.104636805405 Eh       

---------------
SCF CONVERGENCE
---------------

  Last Energy change         ...    3.2834e-06  Tolerance :   1.0000e-05
  Last MAX-Density change    ...    1.0869e-03  Tolerance :   1.0000e-03
  Last RMS-Density change    ...    3.4207e-05  Tolerance :   1.0000e-04
  Last DIIS Error            ...    1.8811e-03  Tolerance :   5.0000e-04
  Last Orbital Gradient      ...    2.5026e-04  Tolerance :   1.0000e-04
  Last Orbital Rotation      ...    4.3369e-04  Tolerance :   1.0000e-04


----------------
ORBITAL ENERGIES
----------------

  NO   OCC          E(Eh)            E(eV) 
   0   2.0000     -88.044486     -2395.8123 
   1   2.0000     -88.039764     -2395.6838 
   2   2.0000     -87.980088     -2394.0599 
   3   2.0000     -87.975390     -2393.9321 
   4   2.0000     -76.422472     -2079.5612 
   5   2.0000     -76.422122     -2079.5517 
   6   2.0000     -18.789457      -511.2871 
   7   2.0000     -18.789216      -511.2805 
   8   2.0000     -18.788613      -511.2641 
   9   2.0000     -18.782027      -511.0849 
  10   2.0000      -9.955346      -270.8987 
  11   2.0000      -9.952300      -270.8159 
  12   2.0000      -9.951260      -270.7876 
  13   2.0000      -9.950289      -270.7611 
  14   2.0000      -9.949768      -270.7469 
  15   2.0000      -9.887707      -269.0582 
  16   2.0000      -9.883866      -268.9537 
  17   2.0000      -9.883052      -268.9315 
  18   2.0000      -9.881593      -268.8918 
  19   2.0000      -7.689263      -209.2355 
  20   2.0000      -7.683870      -209.0887 
  21   2.0000      -7.625261      -207.4939 
  22   2.0000      -7.620216      -207.3566 
  23   2.0000      -6.419490      -174.6832 
  24   2.0000      -6.419215      -174.6757 
  25   2.0000      -5.717115      -155.5706 
  26   2.0000      -5.713611      -155.4753 
  27   2.0000      -5.711783      -155.4255 
  28   2.0000      -5.708463      -155.3352 
  29   2.0000      -5.706471      -155.2810 
  30   2.0000      -5.700832      -155.1275 
  31   2.0000      -5.654307      -153.8615 
  32   2.0000      -5.649288      -153.7249 
  33   2.0000      -5.645730      -153.6281 
  34   2.0000      -5.645403      -153.6192 
  35   2.0000      -5.640694      -153.4911 
  36   2.0000      -5.640399      -153.4831 
  37   2.0000      -4.642470      -126.3280 
  38   2.0000      -4.641981      -126.3147 
  39   2.0000      -4.641163      -126.2925 
  40   2.0000      -4.640925      -126.2860 
  41   2.0000      -4.639984      -126.2604 
  42   2.0000      -4.639365      -126.2435 
  43   2.0000      -0.983854       -26.7720 
  44   2.0000      -0.982774       -26.7426 
  45   2.0000      -0.942588       -25.6491 
  46   2.0000      -0.937292       -25.5050 
  47   2.0000      -0.760631       -20.6978 
  48   2.0000      -0.716418       -19.4947 
  49   2.0000      -0.708733       -19.2856 
  50   2.0000      -0.688866       -18.7450 
  51   2.0000      -0.687550       -18.7092 
  52   2.0000      -0.677014       -18.4225 
  53   2.0000      -0.647514       -17.6197 
  54   2.0000      -0.629677       -17.1344 
  55   2.0000      -0.596743       -16.2382 
  56   2.0000      -0.590448       -16.0669 
  57   2.0000      -0.576285       -15.6815 
  58   2.0000      -0.574330       -15.6283 
  59   2.0000      -0.558885       -15.2080 
  60   2.0000      -0.493005       -13.4154 
  61   2.0000      -0.489756       -13.3269 
  62   2.0000      -0.469600       -12.7785 
  63   2.0000      -0.465434       -12.6651 
  64   2.0000      -0.448283       -12.1984 
  65   2.0000      -0.446347       -12.1457 
  66   2.0000      -0.443394       -12.0654 
  67   2.0000      -0.439074       -11.9478 
  68   2.0000      -0.430252       -11.7078 
  69   2.0000      -0.421892       -11.4803 
  70   2.0000      -0.410147       -11.1607 
  71   2.0000      -0.398265       -10.8373 
  72   2.0000      -0.395467       -10.7612 
  73   2.0000      -0.386141       -10.5074 
  74   2.0000      -0.377562       -10.2740 
  75   2.0000      -0.366806        -9.9813 
  76   2.0000      -0.362064        -9.8523 
  77   2.0000      -0.359025        -9.7696 
  78   2.0000      -0.354739        -9.6529 
  79   2.0000      -0.350080        -9.5262 
  80   2.0000      -0.347386        -9.4528 
  81   2.0000      -0.345132        -9.3915 
  82   2.0000      -0.339953        -9.2506 
  83   2.0000      -0.334333        -9.0977 
  84   2.0000      -0.333027        -9.0621 
  85   2.0000      -0.315055        -8.5731 
  86   2.0000      -0.306329        -8.3356 
  87   2.0000      -0.294189        -8.0053 
  88   2.0000      -0.292309        -7.9541 
  89   2.0000      -0.289038        -7.8651 
  90   2.0000      -0.287882        -7.8337 
  91   2.0000      -0.274165        -7.4604 
  92   2.0000      -0.266745        -7.2585 
  93   2.0000      -0.258809        -7.0426 
  94   2.0000      -0.254319        -6.9204 
  95   2.0000      -0.232795        -6.3347 
  96   2.0000      -0.218874        -5.9559 
  97   2.0000      -0.209315        -5.6957 
  98   2.0000      -0.195148        -5.3102 
  99   2.0000      -0.189046        -5.1442 
 100   2.0000      -0.182220        -4.9584 
 101   0.0000      -0.042767        -1.1638 
 102   0.0000      -0.034918        -0.9502 
 103   0.0000      -0.006826        -0.1857 
 104   0.0000       0.009296         0.2530 
 105   0.0000       0.015351         0.4177 
 106   0.0000       0.030716         0.8358 
 107   0.0000       0.037498         1.0204 
 108   0.0000       0.039630         1.0784 
 109   0.0000       0.045082         1.2267 
 110   0.0000       0.046160         1.2561 
 111   0.0000       0.049399         1.3442 
*Only the first 10 virtual orbitals were printed.

                    ********************************
                    * MULLIKEN POPULATION ANALYSIS *
                    ********************************

-----------------------
MULLIKEN ATOMIC CHARGES
-----------------------
   0 C :   -0.319309
   1 C :    0.000800
   2 O :   -0.374215
   3 P :    0.586593
   4 S :   -0.285505
   5 O :   -0.356128
   6 C :   -0.007877
   7 C :   -0.297430
   8 S :   -0.120276
   9 C :   -0.329577
  10 S :   -0.137132
  11 P :    0.633320
  12 S :   -0.298084
  13 O :   -0.348720
  14 C :    0.009972
  15 C :   -0.352495
  16 O :   -0.390372
  17 C :    0.003514
  18 C :   -0.311882
  19 H :    0.113419
  20 H :    0.113819
  21 H :    0.131961
  22 H :    0.113457
  23 H :    0.102562
  24 H :    0.107412
  25 H :    0.109607
  26 H :    0.122311
  27 H :    0.112055
  28 H :    0.119447
  29 H :    0.177560
  30 H :    0.207833
  31 H :    0.111964
  32 H :    0.106831
  33 H :    0.119186
  34 H :    0.154574
  35 H :    0.110362
  36 H :    0.101549
  37 H :    0.112144
  38 H :    0.119182
  39 H :    0.116133
  40 H :    0.111430
Sum of atomic charges:   -0.0000000

--------------------------------
MULLIKEN REDUCED ORBITAL CHARGES
--------------------------------
  0 C s       :     3.108077  s :     3.108077
      pz      :     1.047515  p :     3.183184
      px      :     1.095307
      py      :     1.040363
      dz2     :     0.002839  d :     0.028047
      dxz     :     0.007972
      dyz     :     0.006622
      dx2y2   :     0.007397
      dxy     :     0.003218

  1 C s       :     3.073193  s :     3.073193
      pz      :     0.841473  p :     2.865435
      px      :     0.961002
      py      :     1.062960
      dz2     :     0.012903  d :     0.060572
      dxz     :     0.016447
      dyz     :     0.013323
      dx2y2   :     0.010623
      dxy     :     0.007276

  2 O s       :     3.754217  s :     3.754217
      pz      :     1.539889  p :     4.607081
      px      :     1.326766
      py      :     1.740425
      dz2     :     0.003457  d :     0.012917
      dxz     :     0.002817
      dyz     :     0.001705
      dx2y2   :     0.002883
      dxy     :     0.002055

  3 P s       :     5.212785  s :     5.212785
      pz      :     2.856975  p :     8.610641
      px      :     2.820005
      py      :     2.933661
      dz2     :     0.152383  d :     0.589981
      dxz     :     0.111818
      dyz     :     0.093510
      dx2y2   :     0.142226
      dxy     :     0.090044

  4 S s       :     5.922471  s :     5.922471
      pz      :     3.472315  p :    10.319185
      px      :     3.531816
      py      :     3.315053
      dz2     :     0.005848  d :     0.043849
      dxz     :     0.008417
      dyz     :     0.012060
      dx2y2   :     0.007661
      dxy     :     0.009863

  5 O s       :     3.755988  s :     3.755988
      pz      :     1.256647  p :     4.587345
      px      :     1.744341
      py      :     1.586356
      dz2     :     0.003382  d :     0.012795
      dxz     :     0.002470
      dyz     :     0.003506
      dx2y2   :     0.001809
      dxy     :     0.001629

  6 C s       :     3.085327  s :     3.085327
      pz      :     0.878404  p :     2.863040
      px      :     1.063618
      py      :     0.921018
      dz2     :     0.011298  d :     0.059511
      dxz     :     0.009481
      dyz     :     0.016612
      dx2y2   :     0.008611
      dxy     :     0.013510

  7 C s       :     3.093156  s :     3.093156
      pz      :     1.076693  p :     3.176140
      px      :     1.021193
      py      :     1.078254
      dz2     :     0.005172  d :     0.028134
      dxz     :     0.003391
      dyz     :     0.007560
      dx2y2   :     0.004283
      dxy     :     0.007727

  8 S s       :     5.879922  s :     5.879922
      pz      :     3.749406  p :    10.164322
      px      :     3.133988
      py      :     3.280928
      dz2     :     0.009960  d :     0.076032
      dxz     :     0.010803
      dyz     :     0.008509
      dx2y2   :     0.033000
      dxy     :     0.013760

  9 C s       :     3.203788  s :     3.203788
      pz      :     1.042930  p :     3.086178
      px      :     0.891254
      py      :     1.151994
      dz2     :     0.006230  d :     0.039611
      dxz     :     0.009417
      dyz     :     0.007705
      dx2y2   :     0.011731
      dxy     :     0.004527

 10 S s       :     5.879202  s :     5.879202
      pz      :     3.319528  p :    10.184020
      px      :     3.410746
      py      :     3.453746
      dz2     :     0.013865  d :     0.073910
      dxz     :     0.021683
      dyz     :     0.016070
      dx2y2   :     0.009558
      dxy     :     0.012734

 11 P s       :     5.194517  s :     5.194517
      pz      :     2.906073  p :     8.585869
      px      :     2.824890
      py      :     2.854907
      dz2     :     0.106977  d :     0.586293
      dxz     :     0.118195
      dyz     :     0.125947
      dx2y2   :     0.124659
      dxy     :     0.110514

 12 S s       :     5.916870  s :     5.916870
      pz      :     2.998868  p :    10.337964
      px      :     3.660048
      py      :     3.679047
      dz2     :     0.023660  d :     0.043250
      dxz     :     0.009354
      dyz     :     0.008889
      dx2y2   :     0.000558
      dxy     :     0.000789

 13 O s       :     3.753094  s :     3.753094
      pz      :     1.411065  p :     4.582468
      px      :     1.723704
      py      :     1.447699
      dz2     :     0.003068  d :     0.013157
      dxz     :     0.002451
      dyz     :     0.002454
      dx2y2   :     0.002895
      dxy     :     0.002289

 14 C s       :     3.071118  s :     3.071118
      pz      :     0.767614  p :     2.858771
      px      :     1.038231
      py      :     1.052926
      dz2     :     0.020476  d :     0.060139
      dxz     :     0.011019
      dyz     :     0.011368
      dx2y2   :     0.012408
      dxy     :     0.004867

 15 C s       :     3.121240  s :     3.121240
      pz      :     1.033382  p :     3.203189
      px      :     1.110819
      py      :     1.058988
      dz2     :     0.006938  d :     0.028067
      dxz     :     0.003291
      dyz     :     0.005439
      dx2y2   :     0.008660
      dxy     :     0.003738

 16 O s       :     3.757081  s :     3.757081
      pz      :     1.665255  p :     4.620535
      px      :     1.313277
      py      :     1.642003
      dz2     :     0.001940  d :     0.012755
      dxz     :     0.003522
      dyz     :     0.002183
      dx2y2   :     0.002919
      dxy     :     0.002192

 17 C s       :     3.073402  s :     3.073402
      pz      :     1.024876  p :     2.862569
      px      :     0.915832
      py      :     0.921861
      dz2     :     0.010865  d :     0.060515
      dxz     :     0.011695
      dyz     :     0.010895
      dx2y2   :     0.013341
      dxy     :     0.013719

 18 C s       :     3.101743  s :     3.101743
      pz      :     1.086094  p :     3.181995
      px      :     1.078136
      py      :     1.017765
      dz2     :     0.005635  d :     0.028144
      dxz     :     0.006483
      dyz     :     0.004809
      dx2y2   :     0.005056
      dxy     :     0.006160

 19 H s       :     0.886581  s :     0.886581

 20 H s       :     0.886181  s :     0.886181

 21 H s       :     0.868039  s :     0.868039

 22 H s       :     0.886543  s :     0.886543

 23 H s       :     0.897438  s :     0.897438

 24 H s       :     0.892588  s :     0.892588

 25 H s       :     0.890393  s :     0.890393

 26 H s       :     0.877689  s :     0.877689

 27 H s       :     0.887945  s :     0.887945

 28 H s       :     0.880553  s :     0.880553

 29 H s       :     0.822440  s :     0.822440

 30 H s       :     0.792167  s :     0.792167

 31 H s       :     0.888036  s :     0.888036

 32 H s       :     0.893169  s :     0.893169

 33 H s       :     0.880814  s :     0.880814

 34 H s       :     0.845426  s :     0.845426

 35 H s       :     0.889638  s :     0.889638

 36 H s       :     0.898451  s :     0.898451

 37 H s       :     0.887856  s :     0.887856

 38 H s       :     0.880818  s :     0.880818

 39 H s       :     0.883867  s :     0.883867

 40 H s       :     0.888570  s :     0.888570


------------------------
MULLIKEN OVERLAP CHARGES
------------------------
B(  0-C ,  1-C ) :   0.9288 B(  0-C ,  2-O ) :  -0.0897 B(  0-C , 19-H ) :   0.6898 
B(  0-C , 20-H ) :   0.7287 B(  0-C , 21-H ) :   0.7215 B(  0-C , 22-H ) :  -0.0652 
B(  0-C , 23-H ) :  -0.0516 B(  1-C ,  2-O ) :   0.5616 B(  1-C ,  3-P ) :  -0.0838 
B(  1-C , 22-H ) :   0.7180 B(  1-C , 23-H ) :   0.7254 B(  2-O ,  3-P ) :   0.6086 
B(  2-O ,  4-S ) :  -0.0689 B(  2-O ,  5-O ) :  -0.0567 B(  2-O ,  8-S ) :  -0.0692 
B(  2-O , 22-H ) :  -0.0685 B(  2-O , 23-H ) :  -0.0597 B(  3-P ,  4-S ) :   0.9441 
B(  3-P ,  5-O ) :   0.6111 B(  3-P ,  6-C ) :  -0.0806 B(  3-P ,  8-S ) :   0.5002 
B(  3-P ,  9-C ) :  -0.0632 B(  4-S ,  5-O ) :  -0.0644 B(  4-S ,  8-S ) :  -0.0903 
B(  4-S , 22-H ) :   0.0624 B(  5-O ,  6-C ) :   0.5456 B(  5-O ,  7-C ) :  -0.0879 
B(  5-O ,  8-S ) :  -0.0710 B(  5-O , 24-H ) :  -0.0666 B(  5-O , 25-H ) :  -0.0682 
B(  6-C ,  7-C ) :   0.9424 B(  6-C , 24-H ) :   0.7175 B(  6-C , 25-H ) :   0.7069 
B(  7-C , 25-H ) :  -0.0752 B(  7-C , 26-H ) :   0.7348 B(  7-C , 27-H ) :   0.6970 
B(  7-C , 28-H ) :   0.7431 B(  8-S ,  9-C ) :   0.4620 B(  8-S , 10-S ) :  -0.1575 
B(  8-S , 29-H ) :  -0.0727 B(  9-C , 10-S ) :   0.4862 B(  9-C , 11-P ) :  -0.0622 
B(  9-C , 12-S ) :  -0.0504 B(  9-C , 29-H ) :   0.7140 B(  9-C , 30-H ) :   0.6171 
B( 10-S , 11-P ) :   0.5112 B( 10-S , 12-S ) :  -0.0860 B( 10-S , 13-O ) :  -0.0660 
B( 10-S , 16-O ) :  -0.0734 B( 10-S , 29-H ) :  -0.0611 B( 10-S , 30-H ) :  -0.0626 
B( 11-P , 12-S ) :   0.9290 B( 11-P , 13-O ) :   0.6570 B( 11-P , 14-C ) :  -0.0662 
B( 11-P , 16-O ) :   0.6028 B( 11-P , 17-C ) :  -0.0893 B( 12-S , 13-O ) :  -0.0578 
B( 12-S , 16-O ) :  -0.0679 B( 12-S , 30-H ) :   0.1125 B( 12-S , 37-H ) :   0.0592 
B( 13-O , 14-C ) :   0.5548 B( 13-O , 15-C ) :  -0.0993 B( 13-O , 16-O ) :  -0.0677 
B( 13-O , 31-H ) :  -0.0567 B( 13-O , 32-H ) :  -0.0580 B( 14-C , 15-C ) :   0.9116 
B( 14-C , 31-H ) :   0.7302 B( 14-C , 32-H ) :   0.7346 B( 15-C , 32-H ) :  -0.0689 
B( 15-C , 33-H ) :   0.7230 B( 15-C , 34-H ) :   0.7118 B( 15-C , 35-H ) :   0.6756 
B( 16-O , 17-C ) :   0.5734 B( 16-O , 18-C ) :  -0.0919 B( 16-O , 36-H ) :  -0.0605 
B( 16-O , 37-H ) :  -0.0688 B( 17-C , 18-C ) :   0.9245 B( 17-C , 36-H ) :   0.7265 
B( 17-C , 37-H ) :   0.7251 B( 18-C , 36-H ) :  -0.0538 B( 18-C , 37-H ) :  -0.0673 
B( 18-C , 38-H ) :   0.7176 B( 18-C , 39-H ) :   0.7277 B( 18-C , 40-H ) :   0.6883 
B( 20-H , 21-H ) :  -0.0538 B( 22-H , 23-H ) :  -0.0648 B( 24-H , 25-H ) :  -0.0699 
B( 26-H , 28-H ) :  -0.0565 B( 31-H , 32-H ) :  -0.0715 B( 33-H , 34-H ) :  -0.0564 
B( 36-H , 37-H ) :  -0.0652 B( 38-H , 39-H ) :  -0.0546 


                     *******************************
                     * LOEWDIN POPULATION ANALYSIS *
                     *******************************

----------------------
LOEWDIN ATOMIC CHARGES
----------------------
   0 C :   -0.371218
   1 C :   -0.118235
   2 O :   -0.244157
   3 P :    0.562503
   4 S :   -0.293520
   5 O :   -0.234603
   6 C :   -0.116451
   7 C :   -0.366064
   8 S :    0.073782
   9 C :   -0.479712
  10 S :    0.071417
  11 P :    0.579021
  12 S :   -0.294084
  13 O :   -0.227515
  14 C :   -0.106275
  15 C :   -0.374015
  16 O :   -0.252370
  17 C :   -0.116479
  18 C :   -0.371050
  19 H :    0.131241
  20 H :    0.121664
  21 H :    0.123170
  22 H :    0.112847
  23 H :    0.117526
  24 H :    0.119338
  25 H :    0.102489
  26 H :    0.129024
  27 H :    0.131058
  28 H :    0.117192
  29 H :    0.133587
  30 H :    0.125455
  31 H :    0.124249
  32 H :    0.112055
  33 H :    0.114585
  34 H :    0.133262
  35 H :    0.129987
  36 H :    0.116992
  37 H :    0.112220
  38 H :    0.118876
  39 H :    0.122288
  40 H :    0.129922

-------------------------------
LOEWDIN REDUCED ORBITAL CHARGES
-------------------------------
  0 C s       :     2.954552  s :     2.954552
      pz      :     1.103098  p :     3.347445
      px      :     1.142519
      py      :     1.101828
      dz2     :     0.006361  d :     0.069221
      dxz     :     0.018904
      dyz     :     0.018567
      dx2y2   :     0.018502
      dxy     :     0.006887

  1 C s       :     2.926716  s :     2.926716
      pz      :     0.927825  p :     3.055952
      px      :     1.023698
      py      :     1.104429
      dz2     :     0.026426  d :     0.135567
      dxz     :     0.035337
      dyz     :     0.034445
      dx2y2   :     0.024376
      dxy     :     0.014984

  2 O s       :     3.497056  s :     3.497056
      pz      :     1.566746  p :     4.723259
      px      :     1.413077
      py      :     1.743435
      dz2     :     0.006305  d :     0.023842
      dxz     :     0.005350
      dyz     :     0.002566
      dx2y2   :     0.006258
      dxy     :     0.003363

  3 P s       :     5.057954  s :     5.057954
      pz      :     2.831345  p :     8.558928
      px      :     2.798956
      py      :     2.928626
      dz2     :     0.221997  d :     0.820616
      dxz     :     0.145902
      dyz     :     0.124718
      dx2y2   :     0.210589
      dxy     :     0.117409

  4 S s       :     5.771852  s :     5.771852
      pz      :     3.513298  p :    10.462413
      px      :     3.553847
      py      :     3.395268
      dz2     :     0.006401  d :     0.059254
      dxz     :     0.011579
      dyz     :     0.017907
      dx2y2   :     0.008964
      dxy     :     0.014403

  5 O s       :     3.497194  s :     3.497194
      pz      :     1.354132  p :     4.713944
      px      :     1.741031
      py      :     1.618781
      dz2     :     0.007644  d :     0.023465
      dxz     :     0.004453
      dyz     :     0.006850
      dx2y2   :     0.002477
      dxy     :     0.002040

  6 C s       :     2.930083  s :     2.930083
      pz      :     0.949763  p :     3.054466
      px      :     1.109181
      py      :     0.995522
      dz2     :     0.025312  d :     0.131902
      dxz     :     0.018905
      dyz     :     0.036591
      dx2y2   :     0.020385
      dxy     :     0.030710

  7 C s       :     2.951313  s :     2.951313
      pz      :     1.133490  p :     3.345093
      px      :     1.083176
      py      :     1.128426
      dz2     :     0.013416  d :     0.069658
      dxz     :     0.007576
      dyz     :     0.018335
      dx2y2   :     0.011653
      dxy     :     0.018678

  8 S s       :     5.637941  s :     5.637941
      pz      :     3.720634  p :    10.191995
      px      :     3.171793
      py      :     3.299568
      dz2     :     0.012980  d :     0.096282
      dxz     :     0.013057
      dyz     :     0.010272
      dx2y2   :     0.044100
      dxy     :     0.015873

  9 C s       :     3.065031  s :     3.065031
      pz      :     1.115434  p :     3.326910
      px      :     1.024386
      py      :     1.187090
      dz2     :     0.013344  d :     0.087771
      dxz     :     0.020817
      dyz     :     0.017673
      dx2y2   :     0.026717
      dxy     :     0.009221

 10 S s       :     5.643574  s :     5.643574
      pz      :     3.350864  p :    10.192029
      px      :     3.404085
      py      :     3.437080
      dz2     :     0.016046  d :     0.092980
      dxz     :     0.028619
      dyz     :     0.019303
      dx2y2   :     0.011584
      dxy     :     0.017428

 11 P s       :     5.056244  s :     5.056244
      pz      :     2.911903  p :     8.551839
      px      :     2.808091
      py      :     2.831845
      dz2     :     0.150069  d :     0.812896
      dxz     :     0.160598
      dyz     :     0.172864
      dx2y2   :     0.179586
      dxy     :     0.149778

 12 S s       :     5.763154  s :     5.763154
      pz      :     3.124761  p :    10.472786
      px      :     3.662535
      py      :     3.685489
      dz2     :     0.036866  d :     0.058144
      dxz     :     0.010128
      dyz     :     0.009872
      dx2y2   :     0.000559
      dxy     :     0.000720

 13 O s       :     3.496241  s :     3.496241
      pz      :     1.453595  p :     4.707537
      px      :     1.732081
      py      :     1.521861
      dz2     :     0.006013  d :     0.023737
      dxz     :     0.004220
      dyz     :     0.005088
      dx2y2   :     0.005030
      dxy     :     0.003386

 14 C s       :     2.926263  s :     2.926263
      pz      :     0.861059  p :     3.046349
      px      :     1.098870
      py      :     1.086419
      dz2     :     0.044624  d :     0.133664
      dxz     :     0.023614
      dyz     :     0.026541
      dx2y2   :     0.028822
      dxy     :     0.010063

 15 C s       :     2.953742  s :     2.953742
      pz      :     1.094021  p :     3.351139
      px      :     1.142660
      py      :     1.114458
      dz2     :     0.017546  d :     0.069135
      dxz     :     0.007694
      dyz     :     0.014510
      dx2y2   :     0.020411
      dxy     :     0.008974

 16 O s       :     3.496331  s :     3.496331
      pz      :     1.693912  p :     4.732436
      px      :     1.396861
      py      :     1.641663
      dz2     :     0.002866  d :     0.023604
      dxz     :     0.007022
      dyz     :     0.003203
      dx2y2   :     0.006177
      dxy     :     0.004336

 17 C s       :     2.926648  s :     2.926648
      pz      :     1.085961  p :     3.054324
      px      :     0.972080
      py      :     0.996283
      dz2     :     0.025846  d :     0.135507
      dxz     :     0.026197
      dyz     :     0.021657
      dx2y2   :     0.032153
      dxy     :     0.029654

 18 C s       :     2.953747  s :     2.953747
      pz      :     1.134856  p :     3.347873
      px      :     1.135466
      py      :     1.077552
      dz2     :     0.014532  d :     0.069430
      dxz     :     0.015480
      dyz     :     0.010189
      dx2y2   :     0.013950
      dxy     :     0.015279

 19 H s       :     0.868759  s :     0.868759

 20 H s       :     0.878336  s :     0.878336

 21 H s       :     0.876830  s :     0.876830

 22 H s       :     0.887153  s :     0.887153

 23 H s       :     0.882474  s :     0.882474

 24 H s       :     0.880662  s :     0.880662

 25 H s       :     0.897511  s :     0.897511

 26 H s       :     0.870976  s :     0.870976

 27 H s       :     0.868942  s :     0.868942

 28 H s       :     0.882808  s :     0.882808

 29 H s       :     0.866413  s :     0.866413

 30 H s       :     0.874545  s :     0.874545

 31 H s       :     0.875751  s :     0.875751

 32 H s       :     0.887945  s :     0.887945

 33 H s       :     0.885415  s :     0.885415

 34 H s       :     0.866738  s :     0.866738

 35 H s       :     0.870013  s :     0.870013

 36 H s       :     0.883008  s :     0.883008

 37 H s       :     0.887780  s :     0.887780

 38 H s       :     0.881124  s :     0.881124

 39 H s       :     0.877712  s :     0.877712

 40 H s       :     0.870078  s :     0.870078


---------------------------------
LOEWDIN BOND ORDERS (THRESH 0.050000)
---------------------------------
B(  0-C ,  1-C ) :   1.1572 B(  0-C ,  2-O ) :   0.0589 B(  0-C , 19-H ) :   0.9250 
B(  0-C , 20-H ) :   0.9358 B(  0-C , 21-H ) :   0.9278 B(  1-C ,  2-O ) :   1.0917 
B(  1-C ,  3-P ) :   0.0646 B(  1-C , 22-H ) :   0.9066 B(  1-C , 23-H ) :   0.9172 
B(  2-O ,  3-P ) :   1.2656 B(  2-O ,  4-S ) :   0.0924 B(  2-O ,  8-S ) :   0.0575 
B(  3-P ,  4-S ) :   1.7589 B(  3-P ,  5-O ) :   1.3018 B(  3-P ,  6-C ) :   0.0607 
B(  3-P ,  8-S ) :   1.0213 B(  4-S ,  5-O ) :   0.0748 B(  4-S ,  8-S ) :   0.1279 
B(  5-O ,  6-C ) :   1.0719 B(  5-O ,  7-C ) :   0.0562 B(  5-O ,  8-S ) :   0.0705 
B(  6-C ,  7-C ) :   1.1610 B(  6-C , 24-H ) :   0.9160 B(  6-C , 25-H ) :   0.9081 
B(  7-C , 26-H ) :   0.9339 B(  7-C , 27-H ) :   0.9235 B(  7-C , 28-H ) :   0.9289 
B(  8-S ,  9-C ) :   1.1756 B(  8-S , 10-S ) :   0.0860 B(  9-C , 10-S ) :   1.1568 
B(  9-C , 29-H ) :   0.9243 B(  9-C , 30-H ) :   0.8897 B( 10-S , 11-P ) :   1.0294 
B( 10-S , 12-S ) :   0.1338 B( 10-S , 13-O ) :   0.0665 B( 10-S , 16-O ) :   0.0595 
B( 11-P , 12-S ) :   1.7357 B( 11-P , 13-O ) :   1.3102 B( 11-P , 14-C ) :   0.0608 
B( 11-P , 16-O ) :   1.2443 B( 11-P , 17-C ) :   0.0627 B( 12-S , 13-O ) :   0.0678 
B( 12-S , 16-O ) :   0.0859 B( 12-S , 30-H ) :   0.0703 B( 13-O , 14-C ) :   1.0790 
B( 13-O , 15-C ) :   0.0582 B( 13-O , 16-O ) :   0.0556 B( 14-C , 15-C ) :   1.1578 
B( 14-C , 31-H ) :   0.9164 B( 14-C , 32-H ) :   0.9157 B( 15-C , 33-H ) :   0.9297 
B( 15-C , 34-H ) :   0.9271 B( 15-C , 35-H ) :   0.9241 B( 16-O , 17-C ) :   1.0934 
B( 16-O , 18-C ) :   0.0576 B( 17-C , 18-C ) :   1.1565 B( 17-C , 36-H ) :   0.9174 
B( 17-C , 37-H ) :   0.9080 B( 18-C , 38-H ) :   0.9288 B( 18-C , 39-H ) :   0.9349 
B( 18-C , 40-H ) :   0.9245 

------------------------------------------
LOEWDIN REDUCED ORBITAL POPULATIONS PER MO
-------------------------------------------
THRESHOLD FOR PRINTING IS 0.1%%
                      0         1         2         3         4         5   
                 -88.04449 -88.03976 -87.98009 -87.97539 -76.42247 -76.42212
                   2.00000   2.00000   2.00000   2.00000   2.00000   2.00000
                  --------  --------  --------  --------  --------  --------
 3 P  s               0.0       0.0       0.0       0.0       0.0     100.0
 4 S  s               0.0       0.0       0.0     100.0       0.0       0.0
 8 S  s             100.0       0.0       0.0       0.0       0.0       0.0
10 S  s               0.0     100.0       0.0       0.0       0.0       0.0
11 P  s               0.0       0.0       0.0       0.0     100.0       0.0
12 S  s               0.0       0.0     100.0       0.0       0.0       0.0

                      6         7         8         9        10        11   
                 -18.78946 -18.78922 -18.78861 -18.78203  -9.95535  -9.95230
                   2.00000   2.00000   2.00000   2.00000   2.00000   2.00000
                  --------  --------  --------  --------  --------  --------
 2 O  s               0.0      99.7       0.2       0.0       0.0       0.0
 5 O  s               0.0       0.2      99.7       0.0       0.0       0.0
 6 C  s               0.0       0.0       0.0       0.0      99.7       0.0
 7 C  px              0.0       0.0       0.0       0.0       0.1       0.0
 9 C  s               0.0       0.0       0.0       0.0       0.0      99.8
13 O  s               0.0       0.0       0.0      99.9       0.0       0.0
16 O  s              99.9       0.0       0.0       0.0       0.0       0.0

                     12        13        14        15        16        17   
                  -9.95126  -9.95029  -9.94977  -9.88771  -9.88387  -9.88305
                   2.00000   2.00000   2.00000   2.00000   2.00000   2.00000
                  --------  --------  --------  --------  --------  --------
 1 C  s               0.0       0.0      99.7       0.0       0.0       0.0
 6 C  px              0.0       0.0       0.0       0.1       0.0       0.0
 7 C  s               0.0       0.0       0.0      99.7       0.0       0.0
14 C  s               0.0      99.6       0.0       0.0       0.0       0.0
15 C  s               0.0       0.0       0.0       0.0      99.7       0.0
17 C  s              99.6       0.0       0.0       0.0       0.0       0.0
17 C  py              0.0       0.0       0.0       0.0       0.0       0.1
18 C  s               0.0       0.0       0.0       0.0       0.0      99.7
18 C  py              0.1       0.0       0.0       0.0       0.0       0.0

                     18        19        20        21        22        23   
                  -9.88159  -7.68926  -7.68387  -7.62526  -7.62022  -6.41949
                   2.00000   2.00000   2.00000   2.00000   2.00000   2.00000
                  --------  --------  --------  --------  --------  --------
 0 C  s              99.7       0.0       0.0       0.0       0.0       0.0
 4 S  s               0.0       0.0       0.0       0.0      99.9       0.0
 8 S  s               0.0      99.7       0.0       0.0       0.0       0.0
 9 C  px              0.0       0.2       0.1       0.0       0.0       0.0
10 S  s               0.0       0.0      99.8       0.0       0.0       0.0
11 P  s               0.0       0.0       0.0       0.0       0.0      99.3
11 P  pz              0.0       0.0       0.0       0.1       0.0       0.0
12 S  s               0.0       0.0       0.0      99.9       0.0       0.0
12 S  pz              0.0       0.0       0.0       0.0       0.0       0.1
13 O  py              0.0       0.0       0.0       0.0       0.0       0.2
16 O  px              0.0       0.0       0.0       0.0       0.0       0.2

                     24        25        26        27        28        29   
                  -6.41921  -5.71711  -5.71361  -5.71178  -5.70846  -5.70647
                   2.00000   2.00000   2.00000   2.00000   2.00000   2.00000
                  --------  --------  --------  --------  --------  --------
 2 O  px              0.2       0.0       0.0       0.0       0.0       0.0
 3 P  s              99.3       0.0       0.0       0.0       0.0       0.0
 5 O  pz              0.2       0.0       0.0       0.0       0.0       0.0
 8 S  pz              0.0      10.4       0.0       0.0       0.0      89.6
 8 S  px              0.0      52.7      41.6       0.0       0.0       5.7
 8 S  py              0.0      36.9      58.3       0.0       0.0       4.8
10 S  pz              0.0       0.0       0.0       5.6      87.5       0.0
10 S  px              0.0       0.0       0.0      50.1       0.0       0.0
10 S  py              0.0       0.0       0.0      44.3      12.4       0.0

                     30        31        32        33        34        35   
                  -5.70083  -5.65431  -5.64929  -5.64573  -5.64540  -5.64069
                   2.00000   2.00000   2.00000   2.00000   2.00000   2.00000
                  --------  --------  --------  --------  --------  --------
 4 S  pz              0.0       0.0      29.1       0.0       0.0      13.2
 4 S  px              0.0       0.0      18.3       0.0       0.0      43.4
 4 S  py              0.0       0.0      52.6       0.0       0.0      43.4
10 S  pz              6.9       0.0       0.0       0.0       0.0       0.0
10 S  px             49.8       0.0       0.0       0.0       0.0       0.0
10 S  py             43.3       0.0       0.0       0.0       0.0       0.0
12 S  pz              0.0      99.3       0.0       0.4       0.3       0.0
12 S  px              0.0       0.1       0.0      76.4      23.5       0.0
12 S  py              0.0       0.6       0.0      23.2      76.3       0.0

                     36        37        38        39        40        41   
                  -5.64040  -4.64247  -4.64198  -4.64116  -4.64093  -4.63998
                   2.00000   2.00000   2.00000   2.00000   2.00000   2.00000
                  --------  --------  --------  --------  --------  --------
 3 P  pz              0.0       0.0      44.1      27.8       0.0       0.0
 3 P  px              0.0       0.0      49.1      46.9       0.0       0.0
 3 P  py              0.0       0.0       6.6      25.2       0.0       0.0
 4 S  pz             57.7       0.0       0.0       0.0       0.0       0.0
 4 S  px             38.3       0.0       0.0       0.0       0.0       0.0
 4 S  py              4.0       0.0       0.0       0.0       0.0       0.0
11 P  pz              0.0       0.8       0.0       0.0       4.4      94.8
11 P  px              0.0      53.6       0.0       0.0      42.0       4.2
11 P  py              0.0      45.5       0.0       0.0      53.5       0.9

                     42        43        44        45        46        47   
                  -4.63937  -0.98385  -0.98277  -0.94259  -0.93729  -0.76063
                   2.00000   2.00000   2.00000   2.00000   2.00000   2.00000
                  --------  --------  --------  --------  --------  --------
 0 C  s               0.0       0.2       0.0       0.3       0.0       0.0
 0 C  pz              0.0       0.3       0.0       0.4       0.0       0.0
 0 C  py              0.0       0.1       0.0       0.2       0.0       0.0
 1 C  s               0.0       3.4       0.1       4.6       0.0       0.3
 1 C  pz              0.0       2.1       0.1       2.3       0.0       0.0
 1 C  px              0.0       1.4       0.0       1.4       0.0       0.0
 1 C  py              0.0       0.3       0.0       0.3       0.0       0.0
 1 C  dxz             0.0       0.2       0.0       0.2       0.0       0.0
 2 O  s               0.0      29.5       0.8      28.8       0.0       0.2
 2 O  pz              0.0       0.5       0.0       1.2       0.0       0.0
 2 O  px              0.0       1.0       0.0       0.1       0.0       0.3
 3 P  s               0.0      13.8       0.3       0.0       0.0       2.7
 3 P  pz             28.0       2.8       0.1       4.4       0.0       0.5
 3 P  px              3.9       1.9       0.1       6.5       0.0       0.4
 3 P  py             68.1       0.1       0.0       0.0       0.0       1.5
 3 P  dz2             0.0       0.1       0.0       2.4       0.0       0.1
 3 P  dxz             0.0       0.1       0.0       0.2       0.0       0.0
 3 P  dx2y2           0.0       0.7       0.0       0.7       0.0       0.2
 4 S  s               0.0       0.3       0.0       0.0       0.0       0.5
 4 S  pz              0.0       0.2       0.0       0.0       0.0       0.1
 4 S  py              0.0       0.2       0.0       0.0       0.0       0.1
 5 O  s               0.0      26.2       0.6      32.1       0.0       0.4
 5 O  pz              0.0       0.6       0.0       0.0       0.0       0.5
 5 O  px              0.0       0.4       0.0       0.1       0.0       0.0
 5 O  py              0.0       0.6       0.0       0.9       0.0       0.0
 6 C  s               0.0       3.0       0.1       4.6       0.0       0.4
 6 C  pz              0.0       2.0       0.0       2.3       0.0       0.0
 6 C  py              0.0       1.3       0.0       1.7       0.0       0.1
 6 C  dyz             0.0       0.2       0.0       0.3       0.0       0.0
 7 C  s               0.0       0.2       0.0       0.3       0.0       0.1
 7 C  px              0.0       0.2       0.0       0.4       0.0       0.0
 7 C  py              0.0       0.1       0.0       0.1       0.0       0.0
 8 S  s               0.0       0.3       0.0       0.0       0.0      20.8
 8 S  px              0.0       0.0       0.0       0.0       0.0       2.6
 8 S  py              0.0       0.3       0.0       0.0       0.0       0.4
 8 S  dz2             0.0       0.0       0.0       0.0       0.0       0.1
 9 C  s               0.0       0.0       0.0       0.0       0.0      26.9
 9 C  pz              0.0       0.0       0.0       0.0       0.0       1.9
 9 C  px              0.0       0.0       0.0       0.0       0.0       0.4
 9 C  py              0.0       0.0       0.0       0.0       0.0       0.2
10 S  s               0.0       0.0       0.3       0.0       0.0      17.4
10 S  pz              0.0       0.0       0.0       0.0       0.0       2.1
10 S  px              0.0       0.0       0.1       0.0       0.0       0.6
10 S  py              0.0       0.0       0.2       0.0       0.0       0.0
10 S  dxz             0.0       0.0       0.0       0.0       0.0       0.1
11 P  s               0.0       0.4      13.5       0.0       0.1       2.1
11 P  pz              0.0       0.1       2.1       0.0       0.2       0.0
11 P  px              0.0       0.0       1.9       0.0       5.2       0.8
11 P  py              0.0       0.0       1.1       0.0       5.2       1.0
11 P  dz2             0.0       0.0       0.2       0.0       0.0       0.0
11 P  dxz             0.0       0.0       0.2       0.0       0.5       0.0
[...]
 1 C  dxy             0.0       0.0       0.4       0.2
 2 O  s               0.6       0.1       0.2       0.1
 2 O  pz              0.0       0.0       1.0       0.4
 2 O  px              0.2       0.0       2.9       1.3
 2 O  py              0.0       0.0       0.2       0.1
 2 O  dz2             0.7       0.1      16.3       7.4
 2 O  dxz             0.5       0.1      18.4       7.6
 2 O  dyz             0.1       0.0       3.1       1.2
 2 O  dx2y2           3.3       0.7       2.3       1.3
 2 O  dxy             0.2       0.0       0.2       0.1
 3 P  s               0.2       0.0       0.0       0.0
 3 P  pz              0.1       0.0       0.8       0.4
 3 P  px              0.3       0.1       1.3       0.6
 3 P  dz2             0.0       0.0       1.0       0.5
 3 P  dxz             0.2       0.0       0.0       0.0
 3 P  dyz             0.2       0.0       0.0       0.0
 3 P  dx2y2           0.2       0.0       0.2       0.1
 3 P  dxy             0.1       0.0       0.0       0.0
 5 O  s               3.5       0.9       0.8       0.4
 5 O  pz              1.4       0.3       0.9       0.5
 5 O  py              1.0       0.2       0.0       0.0
 5 O  dz2             6.3       1.6       6.2       3.2
 5 O  dxz             1.9       0.4       3.2       1.5
 5 O  dyz            35.3       8.2       0.7       0.4
 5 O  dx2y2           8.6       2.0       0.3       0.1
 5 O  dxy             1.4       0.3       0.0       0.0
 6 C  s               1.3       0.3       0.0       0.0
 6 C  pz              1.3       0.3       0.0       0.0
 6 C  px              0.1       0.0       0.0       0.0
 6 C  py              1.2       0.3       0.0       0.0
 6 C  dz2             0.8       0.2       0.1       0.0
 6 C  dxz             0.3       0.1       0.0       0.0
 6 C  dyz             7.0       1.6       0.0       0.0
 6 C  dx2y2           2.0       0.5       0.0       0.0
 6 C  dxy             0.2       0.0       0.0       0.0
 7 C  dxz             0.1       0.0       0.0       0.0
 7 C  dxy             0.2       0.1       0.0       0.0
11 P  s               0.1       0.3       0.0       0.0
11 P  pz              0.0       0.1       0.0       0.0
11 P  px              0.1       0.5       0.4       0.9
11 P  py              0.0       0.1       0.4       1.0
11 P  dz2             0.0       0.0       0.1       0.1
11 P  dyz             0.0       0.0       0.2       0.5
11 P  dx2y2           0.0       0.2       0.3       0.7
11 P  dxy             0.0       0.1       0.0       0.1
13 O  s               0.7       3.4       0.1       0.2
13 O  pz              0.4       1.6       0.3       0.8
13 O  px              0.0       0.2       0.0       0.0
13 O  py              0.1       0.3       0.4       0.9
13 O  dz2             5.4      22.6       2.5       5.7
13 O  dxz             2.6      10.9       1.1       2.5
13 O  dyz             3.6      15.8       0.3       1.1
13 O  dx2y2           0.0       0.3       1.5       3.7
13 O  dxy             0.3       1.0       1.3       3.2
14 C  s               0.3       1.2       0.1       0.2
14 C  pz              0.5       2.1       0.1       0.3
14 C  px              0.0       0.2       0.0       0.0
14 C  py              0.0       0.1       0.0       0.1
14 C  dz2             1.0       4.4       0.1       0.3
14 C  dxz             0.6       2.8       0.0       0.1
14 C  dyz             0.5       2.1       0.2       0.6
14 C  dxy             0.0       0.2       0.0       0.1
15 C  pz              0.0       0.1       0.0       0.0
15 C  dz2             0.0       0.2       0.0       0.0
16 O  s               0.0       0.1       0.1       0.2
16 O  px              0.2       0.8       1.2       2.6
16 O  py              0.1       0.3       0.4       0.8
16 O  dz2             0.1       0.3       0.0       0.1
16 O  dxz             0.8       3.4       7.4      16.5
16 O  dyz             0.4       1.6       2.7       5.8
16 O  dx2y2           0.5       2.4       1.6       3.7
16 O  dxy             0.0       0.0       4.4       8.7
17 C  s               0.0       0.1       0.4       0.9
17 C  pz              0.0       0.0       0.1       0.2
17 C  px              0.0       0.1       0.3       0.7
17 C  py              0.0       0.1       0.3       0.6
17 C  dz2             0.0       0.1       0.1       0.3
17 C  dxz             0.0       0.1       0.6       1.2
17 C  dyz             0.0       0.0       0.3       0.6
17 C  dxy             0.1       0.3       1.2       2.5


                      *****************************
                      * MAYER POPULATION ANALYSIS *
                      *****************************

  NA   - Mulliken gross atomic population
  ZA   - Total nuclear charge
  QA   - Mulliken gross atomic charge
  VA   - Mayer's total valence
  BVA  - Mayer's bonded valence
  FA   - Mayer's free valence

  ATOM       NA         ZA         QA         VA         BVA        FA
  0 C      6.3193     6.0000    -0.3193     3.9885     3.9885     0.0000
  1 C      5.9992     6.0000     0.0008     4.0024     4.0024     0.0000
  2 O      8.3742     8.0000    -0.3742     2.1738     2.1738     0.0000
  3 P     14.4134    15.0000     0.5866     4.9634     4.9634     0.0000
  4 S     16.2855    16.0000    -0.2855     2.0773     2.0773    -0.0000
  5 O      8.3561     8.0000    -0.3561     2.1858     2.1858     0.0000
  6 C      6.0079     6.0000    -0.0079     4.0021     4.0021    -0.0000
  7 C      6.2974     6.0000    -0.2974     4.0106     4.0106    -0.0000
  8 S     16.1203    16.0000    -0.1203     2.2660     2.2660     0.0000
  9 C      6.3296     6.0000    -0.3296     3.8161     3.8161     0.0000
 10 S     16.1371    16.0000    -0.1371     2.2782     2.2782    -0.0000
 11 P     14.3667    15.0000     0.6333     4.9375     4.9375    -0.0000
 12 S     16.2981    16.0000    -0.2981     2.0650     2.0650     0.0000
 13 O      8.3487     8.0000    -0.3487     2.1932     2.1932     0.0000
 14 C      5.9900     6.0000     0.0100     4.0301     4.0301     0.0000
 15 C      6.3525     6.0000    -0.3525     3.9954     3.9954     0.0000
 16 O      8.3904     8.0000    -0.3904     2.1666     2.1666     0.0000
 17 C      5.9965     6.0000     0.0035     4.0094     4.0094     0.0000
 18 C      6.3119     6.0000    -0.3119     3.9921     3.9921    -0.0000
 19 H      0.8866     1.0000     0.1134     0.9548     0.9548     0.0000
 20 H      0.8862     1.0000     0.1138     0.9621     0.9621    -0.0000
 21 H      0.8680     1.0000     0.1320     0.9809     0.9809     0.0000
 22 H      0.8865     1.0000     0.1135     0.9841     0.9841    -0.0000
 23 H      0.8974     1.0000     0.1026     0.9493     0.9493    -0.0000
 24 H      0.8926     1.0000     0.1074     0.9450     0.9450    -0.0000
 25 H      0.8904     1.0000     0.1096     0.9728     0.9728    -0.0000
 26 H      0.8777     1.0000     0.1223     0.9624     0.9624     0.0000
 27 H      0.8879     1.0000     0.1121     0.9533     0.9533     0.0000
 28 H      0.8806     1.0000     0.1194     0.9758     0.9758     0.0000
 29 H      0.8224     1.0000     0.1776     0.9340     0.9340     0.0000
 30 H      0.7922     1.0000     0.2078     0.9994     0.9994     0.0000
 31 H      0.8880     1.0000     0.1120     0.9489     0.9489     0.0000
 32 H      0.8932     1.0000     0.1068     0.9618     0.9618     0.0000
 33 H      0.8808     1.0000     0.1192     0.9651     0.9651     0.0000
 34 H      0.8454     1.0000     0.1546     0.9764     0.9764    -0.0000
 35 H      0.8896     1.0000     0.1104     0.9540     0.9540    -0.0000
 36 H      0.8985     1.0000     0.1015     0.9496     0.9496    -0.0000
 37 H      0.8879     1.0000     0.1121     0.9805     0.9805     0.0000
 38 H      0.8808     1.0000     0.1192     0.9856     0.9856    -0.0000
 39 H      0.8839     1.0000     0.1161     0.9666     0.9666    -0.0000
 40 H      0.8886     1.0000     0.1114     0.9539     0.9539     0.0000

  Mayer bond orders larger than 0.100000
B(  0-C ,  1-C ) :   1.1656 B(  0-C , 19-H ) :   0.9377 B(  0-C , 20-H ) :   0.9449 
B(  0-C , 21-H ) :   0.9344 B(  1-C ,  2-O ) :   0.9070 B(  1-C , 22-H ) :   0.9147 
B(  1-C , 23-H ) :   0.9341 B(  2-O ,  3-P ) :   1.0884 B(  3-P ,  4-S ) :   1.6585 
B(  3-P ,  5-O ) :   1.1247 B(  3-P ,  8-S ) :   0.9310 B(  4-S ,  8-S ) :   0.1071 
B(  5-O ,  6-C ) :   0.8944 B(  6-C ,  7-C ) :   1.1753 B(  6-C , 24-H ) :   0.9308 
B(  6-C , 25-H ) :   0.9123 B(  7-C , 26-H ) :   0.9426 B(  7-C , 27-H ) :   0.9359 
B(  7-C , 28-H ) :   0.9372 B(  8-S ,  9-C ) :   1.0001 B(  9-C , 10-S ) :   1.0004 
B(  9-C , 29-H ) :   0.9083 B(  9-C , 30-H ) :   0.8452 B( 10-S , 11-P ) :   0.9299 
B( 10-S , 12-S ) :   0.1161 B( 11-P , 12-S ) :   1.6254 B( 11-P , 13-O ) :   1.1408 
B( 11-P , 16-O ) :   1.0629 B( 12-S , 30-H ) :   0.1003 B( 13-O , 14-C ) :   0.9056 
B( 14-C , 15-C ) :   1.1711 B( 14-C , 31-H ) :   0.9317 B( 14-C , 32-H ) :   0.9261 
B( 15-C , 33-H ) :   0.9363 B( 15-C , 34-H ) :   0.9273 B( 15-C , 35-H ) :   0.9355 
B( 16-O , 17-C ) :   0.9122 B( 17-C , 18-C ) :   1.1670 B( 17-C , 36-H ) :   0.9345 
B( 17-C , 37-H ) :   0.9173 B( 18-C , 38-H ) :   0.9361 B( 18-C , 39-H ) :   0.9424 
B( 18-C , 40-H ) :   0.9368 

-------
TIMINGS
-------

Total SCF time: 0 days 0 hours 0 min 17 sec 

Total time                  ....      17.128 sec
Sum of individual times     ....      16.572 sec  ( 96.7%)

SCF preparation             ....       0.255 sec  (  1.5%)
Fock matrix formation       ....      15.020 sec  ( 87.7%)
  Startup                   ....       0.092 sec  (  0.6% of F)
  Split-RI-J                ....       8.549 sec  ( 56.9% of F)
  XC integration            ....       5.823 sec  ( 38.8% of F)
    Basis function eval.    ....       1.956 sec  ( 33.6% of XC)
    Density eval.           ....       1.003 sec  ( 17.2% of XC)
    XC-Functional eval.     ....       0.368 sec  (  6.3% of XC)
    XC-Potential eval.      ....       1.151 sec  ( 19.8% of XC)
Diagonalization             ....       0.000 sec  (  0.0%)
Density matrix formation    ....       0.284 sec  (  1.7%)
Total Energy calculation    ....       0.040 sec  (  0.2%)
Population analysis         ....       0.206 sec  (  1.2%)
Orbital Transformation      ....       0.094 sec  (  0.5%)
Orbital Orthonormalization  ....       0.000 sec  (  0.0%)
DIIS solution               ....       0.505 sec  (  2.9%)
  MO trafo                  ....       0.000 sec  (  0.0 % of DIIS)
  Orb grad                  ....       0.000 sec  (  0.0 % of DIIS)
  Energy W gradient         ....       0.000 sec  (  0.0 % of DIIS)
  DIIS error                ....       0.022 sec  (  4.3 % of DIIS)
  DIIS work                 ....       0.409 sec  ( 81.0 % of DIIS)
  Form Q                    ....       0.000 sec  (  0.0 % of DIIS)
  Form QpQm                 ....       0.000 sec  (  0.0 % of DIIS)
  Exp/Cayley                ....       0.000 sec  (  0.0 % of DIIS)
  Orb update                ....       0.000 sec  (  0.0 % of DIIS)
  Wake-sleep                ....       0.021 sec  (  4.1 % of DIIS)
SOSCF solution              ....       0.168 sec  (  1.0%)
  MO trafo                  ....       0.094 sec  ( 55.7 % of SOSCF)
  Orb grad                  ....       0.003 sec  (  1.8 % of SOSCF)
  Rot update                ....       0.033 sec  ( 19.4 % of SOSCF)
  Step                      ....       0.039 sec  ( 22.9 % of SOSCF)
Finished LeanSCF after  17.2 sec

Maximum memory used throughout the entire LEANSCF-calculation: 35.0 MB


-------------------------------------------------------------------------------
                          DFT DISPERSION CORRECTION                            
                                                                               
                                DFTD4 V3.4.0                                   
-------------------------------------------------------------------------------
The PBE functional is recognized
Active option DFTDOPT                   ...         5   

-------------------------   ----------------
Dispersion correction           -0.068914311
-------------------------   ----------------

------------------   -----------------
gCP correction             0.186784126
------------------   -----------------

-------------------------   --------------------
FINAL SINGLE POINT ENERGY     -2929.512408095968
-------------------------   --------------------


------------------------------------------------------------------------------
                              ORCA PROPERTY CALCULATIONS
------------------------------------------------------------------------------

GBWName                                 ... sp.gbw
Number of atoms                         ...     41
Number of basis functions               ...    334
Max core memory                         ...   1024 MB

Electric properties:
Dipole moment                           ... YES
Quadrupole moment                       ...  NO
Static polarizability (Dipole/Dipole)   ...  NO
Static polarizability (Dipole/Quad.)    ...  NO
Static polarizability (Quad./Quad.)     ...  NO
Static polarizability (Velocity)        ...  NO

Atomic electric properties:
Dipole moment                           ...  NO
Quadrupole moment                       ...  NO
Static polarizability                   ...  NO

Choice of electric origin               ... Center of mass
Position of electric origin             ...     0.000002    -0.000008     0.000001

General magnetic properties:
Magnetizability                         ...  NO

EPR properties:
g-Tensor (aka g-matrix)                 ...  NO
Zero-Field splitting spin-orbit         ...  NO
Zero-field splitting spin-spin          ...  NO
Hyperfine couplings                     ...  NO (   0 nuclei)
Quadrupole couplings                    ...  NO (   0 nuclei)
Contact density                         ...  NO (   0 nuclei)

NMR properties:
Chemical shifts                         ...  NO (   0 nuclei)
Spin-rotation constants                 ...  NO (   0 nuclei)
Spin-spin couplings                     ...  NO (   0 nuclei,    0 pairs)

Choice of magnetic origin               ... GIAO
Position of magnetic origin             ...     0.000000     0.000000     0.000000

Properties with geometric perturbations:
SCF Hessian                             ...  NO
IR spectrum                             ...  NO
VCD spectrum                            ...  NO
X-ray spectroscopy properties:
SCF XES/XAS/RIXS spectra                ...  NO


-------------
DIPOLE MOMENT
-------------

Method             : SCF
Type of density    : Electron Density
Multiplicity       :   1
Irrep              :   0
Energy             : -2929.6302779110137635 Eh
Relativity type    : 
Basis              : AO
                                X                 Y                 Z
Electronic contribution:     -2.941532591       6.395580597     -10.704360217
Nuclear contribution   :      3.071356236      -7.350751544      12.198201087
                        -----------------------------------------
Total Dipole Moment    :      0.129823645      -0.955170947       1.493840870
                        -----------------------------------------
Magnitude (a.u.)       :      1.777854398
Magnitude (Debye)      :      4.518946754



--------------------
Rotational spectrum 
--------------------
 
Rotational constants in cm-1:             0.012905             0.005386             0.005078 
Rotational constants in MHz :           386.887094           161.473615           152.237620 

Dipole components along the rotational axes: 
x,y,z [a.u.] :     0.217663     1.406434    -1.065519 
x,y,z [Debye]:     0.553254     3.574872    -2.708335 

 

Dipole moment calculation done in   0.0 sec 

Maximum memory used throughout the entire PROP-calculation: 24.3 MB

--------------------------------
SUGGESTED CITATIONS FOR THIS RUN
--------------------------------

Below you find a list of papers that are relevant to this ORCA run
We neither can nor want to force you to cite these papers, but we appreciate if you do
You receive ORCA, which is the product of decades of hard work by many enthusiastic individuals, for free
The only thing we kindly ask in return is that you cite our papers,
We deeply appreciate it, if you show your appreciation for ORCA by not just citing the generic ORCA reference.

Please note that relegating all ORCA citations to the supporting information does *not* help us.
SI sections are not indexed - citations you put there will not count into any citation statistics
But we need these citations in order to attract the funding resources that allow us to do what we are doing

Therefore, if you are a happy ORCA user, please consider citing a few of the papers listed below in the main body of your paper

In addition to the list printed below, the program has created the file sp.bibtex that contains the list in bibtex format
You can import this file easily into all common literature databanks and citation aid programs


List of essential papers. We consider these as the minimum necessary citations

  1. Neese,F.
     Software update: the ORCA program system, version 5.0
     WIRES Comput. Molec. Sci., 2022 12(1)e1606
     doi.org/10.1002/wcms.1606

List of papers to cite with high priority. The work reported in these papers was absolutely
necessary for this run to complete.
Our perspective: the developers of density functionals and basis sets usually get cited in chemistry papers
Good! But without the algorithms to do something with them, the functionals or basis sets would not do anything.
Hence, in our opinion, the algorithm design and method developments papers are equally worthy of getting cited

  1. Neese,F.
     An improvement of the resolution of the identity approximation for the formation of the Coulomb matrix
     J. Comp. Chem., 2003 24(14)1740-1747
     doi.org/10.1002/jcc.10318
  2. Neese,F.
     The SHARK Integral Generation and Digestion System
     J. Comp. Chem., 2022  1-16
     doi.org/10.1002/jcc.26942
  3. Caldeweyher,E.; Bannwarth,C.; Grimme,S.
     Extension of the D3 dispersion coefficient model
     J. Chem. Phys., 2017 147 034112-XXXX
     doi.org/10.1063/1.4993215
  4. Caldeweyher,E.; Ehlert,S.; Hansen,A.; Neugebauer,H.; Spicher,S.; Bannwarth,C.; Grimme,S.
     A generally applicable atomic-charge dependent London dispersion correction
     J. Chem. Phys., 2019 150 154122-XXXX
     doi.org/10.1063/1.5090222
  5. Caldeweyher,E.; Mewes,J.; Ehlert,S.; Grimme,S.
     Extension and evaluation of the D4 London-dispersion model for periodic systems
     Phys. Chem. Chem. Phys., 2020 22(16)8499-8512
     doi.org/10.1039/D0CP00502A

List of suggested additional citations. These are papers that are important in the 'surrounding' of 
of this run, or papers that preceded the highly important papers. If you like your results we are grateful for a citation.

  1. Neese,F.
     The ORCA program system
     WIRES Comput. Molec. Sci., 2012 2(1)73-78
     doi.org/10.1002/wcms.81
  2. Neese,F.
     Software update: the ORCA program system, version 4.0
     WIRES Comput. Molec. Sci., 2018 8(1)1-6
     doi.org/10.1002/wcms.1327
  3. Neese,F.; Wennmohs,F.; Becker,U.; Riplinger,C.
     The ORCA quantum chemistry program package
     J. Chem. Phys., 2020 152 Art. No. L224108
     doi.org/10.1063/5.0004608

List of optional additional citations

  1. Neese,F.
     Approximate second-order SCF convergence for spin unrestricted wavefunctions
     Chem. Phys. Lett., 2000 325(1-3)93-98
     doi.org/10.1016/s0009-2614(00)00662-x

Timings for individual modules:

Sum of individual times          ...       22.181 sec (=   0.370 min)
Startup calculation              ...        2.303 sec (=   0.038 min)  10.4 %
SCF iterations                   ...       19.767 sec (=   0.329 min)  89.1 %
Property calculations            ...        0.111 sec (=   0.002 min)   0.5 %
                             ****ORCA TERMINATED NORMALLY****
TOTAL RUN TIME: 0 days 0 hours 0 minutes 23 seconds 65 msec
