      -----------------------------------------------------------      
     |                   =====================                   |     
     |                           x T B                           |     
     |                   =====================                   |     
     |                         S. Grimme                         |     
     |          Mulliken Center for Theoretical Chemistry        |     
     |                    University of Bonn                     |     
      -----------------------------------------------------------      

   * xtb version 6.7.1 (edcfbbe) compiled by 'albert@albert-system' on 2024-07-22

   xtb is free software: you can redistribute it and/or modify it under
   the terms of the GNU Lesser General Public License as published by
   the Free Software Foundation, either version 3 of the License, or
   (at your option) any later version.
   
   xtb is distributed in the hope that it will be useful,
   but WITHOUT ANY WARRANTY; without even the implied warranty of
   MERCHANTABILITY or FITNESS FOR A PARTICULAR PURPOSE.  See the
   GNU Lesser General Public License for more details.
   
   Cite this work as:
   * C. Bannwarth, E. Caldeweyher, S. Ehlert, A. Hansen, P. Pracht,
     J. Seibert, S. Spicher, S. Grimme, WIREs Comput. Mol. Sci., 2020, 11,
     e01493. DOI: 10.1002/wcms.1493
   
   for GFN2-xTB:
   * C. Bannwarth, S. Ehlert and S. Grimme., J. Chem. Theory Comput., 2019,
     15, 1652-1671. DOI: 10.1021/acs.jctc.8b01176
   for GFN1-xTB:
   * S. Grimme, C. Bannwarth, P. Shushkov, J. Chem. Theory Comput., 2017,
     13, 1989-2009. DOI: 10.1021/acs.jctc.7b00118
   for GFN0-xTB:
   * P. Pracht, E. Caldeweyher, S. Ehlert, S. Grimme, ChemRxiv, 2019, preprint.
     DOI: 10.26434/chemrxiv.8326202.v1
   for GFN-FF:
   * S. Spicher and S. Grimme, Angew. Chem. Int. Ed., 2020, 59, 15665-15673.
     DOI: 10.1002/anie.202004239
   
   for ALPB and GBSA implicit solvation:
   * S. Ehlert, M. Stahn, S. Spicher, S. Grimme, J. Chem. Theory Comput.,
     2021, 17, 4250-4261. DOI: 10.1021/acs.jctc.1c00471
   
   for ddCOSMO and CPCM-X implicit solvation:
   * M. Stahn, S. Ehlert, S. Grimme, J. Phys. Chem. A,
     2023, XX, XXXX-XXXX. DOI: 10.1021/acs.jpca.3c04382
   
   for DFT-D4:
   * E. Caldeweyher, C. Bannwarth and S. Grimme, J. Chem. Phys., 2017,
     147, 034112. DOI: 10.1063/1.4993215
   * E. Caldeweyher, S. Ehlert, A. Hansen, H. Neugebauer, S. Spicher,
     C. Bannwarth and S. Grimme, J. Chem. Phys., 2019, 150, 154122.
     DOI: 10.1063/1.5090222
   * E. Caldeweyher, J.-M. Mewes, S. Ehlert and S. Grimme, Phys. Chem. Chem. Phys.
     2020, 22, 8499-8512. DOI: 10.1039/D0CP00502A
   
   for sTDA-xTB:
   * S. Grimme and C. Bannwarth, J. Chem. Phys., 2016, 145, 054103.
     DOI: 10.1063/1.4959605
   
   in the mass-spec context:
   * V. Asgeirsson, C. Bauer and S. Grimme, Chem. Sci., 2017, 8, 4879.
     DOI: 10.1039/c7sc00601b
   * J. Koopman and S. Grimme, ACS Omega 2019, 4, 12, 15120-15133.
     DOI: 10.1021/acsomega.9b02011
   
   for metadynamics refer to:
   * S. Grimme, J. Chem. Theory Comput., 2019, 155, 2847-2862
     DOI: 10.1021/acs.jctc.9b00143
   
   for SPH calculations refer to:
   * S. Spicher and S. Grimme, J. Chem. Theory Comput., 2021, 17, 1701-1714
     DOI: 10.1021/acs.jctc.0c01306
   
   for ONIOM refer to:
   * C. Plett, A. Katbashev, S. Ehlert, S. Grimme, M. Bursch,
     Phys. Chem. Chem. Phys., 2023, 25, 17860-17868. DOI: 10.1039/D3CP02178E
   
   for DIPRO refer to:
   * J. Kohn, N. Gildemeister, S. Grimme, D. Fazzi, A. Hansen,
     J. Chem. Phys., 2023, just accepted.
   
   for PTB refer to:
   * S. Grimme, M. Mueller, A. Hansen, J. Chem. Phys., 2023, 158, 124111.
     DOI: 10.1063/5.0137838
   
   with help from (in alphabetical order)
   P. Atkinson, C. Bannwarth, F. Bohle, G. Brandenburg, E. Caldeweyher
   M. Checinski, S. Dohm, S. Ehlert, S. Ehrlich, I. Gerasimov, C. Hölzer
   A. Katbashev, J. Kohn, J. Koopman, C. Lavigne, S. Lehtola, F. März, M. Müller,
   F. Musil, H. Neugebauer, J. Pisarek, C. Plett, P. Pracht, F. Pultar,
   J. Seibert, P. Shushkov, S. Spicher, M. Stahn, M. Steiner, T. Strunk,
   J. Stückrath, T. Rose, and J. Unsleber
   
 * started run on 2025/04/09 at 05:21:22.110     
   ID    Z sym.   atoms
    1    6 C      1, 2, 7, 8, 10, 15, 16, 18, 19
    2    8 O      3, 6, 14, 17
    3   15 P      4, 12
    4   16 S      5, 9, 11, 13
    5    1 H      20-41

           -------------------------------------------------
          |                Calculation Setup                |
           -------------------------------------------------

          program call               : /srv/scratch/z5358697/.xtb/bin/xtb solv.coord --gfn2 --sp --chrg 0 --norestart --parallel 1 --alpb water reference -I xtb_sp-xcontrol-inp
          hostname                   : k163
          coordinate file            : solv.coord
          omp threads                :                     1


           -------------------------------------------------
          |                 G F N 2 - x T B                 |
           -------------------------------------------------

        Reference                      10.1021/acs.jctc.8b01176
      * Hamiltonian:
        H0-scaling (s, p, d)           1.850000    2.230000    2.230000
        zeta-weighting                 0.500000
      * Dispersion:
        s8                             2.700000
        a1                             0.520000
        a2                             5.000000
        s9                             5.000000
      * Repulsion:
        kExp                           1.500000    1.000000
        rExp                           1.000000
      * Coulomb:
        alpha                          2.000000
        third order                    shell-resolved
        anisotropic                    true
        a3                             3.000000
        a5                             4.000000
        cn-shift                       1.200000
        cn-exp                         4.000000
        max-rad                        5.000000

      * Solvation model:               ALPB
        Solvent                        water
        Parameter file                 internal GFN2-xTB/ALPB
        Dielectric constant                8.0200E+01
        Reference state                gsolv=reference [X=1]
        Free energy shift                  2.8945E-03 Eh       1.8164E+00 kcal/mol
        Temperature                        2.9815E+02 K
        Density                            1.0000E+00 kg/L
        Solvent mass                       1.8000E+01 g/mol
        Interaction kernel             P16
        Born radius scaling (c1)           1.4744E+00
        Born radii integrator          GBOBC
        Born offset                        0.0000E+00 a0       0.0000E+00 AA
        H-bond correction              true
        Ion screening                  false
        Surface tension                    1.0000E-05 Eh       1.5569E+01 dyn/cm
        Grid points                               974 per atom

          ...................................................
          :                      SETUP                      :
          :.................................................:
          :  # basis functions                 134          :
          :  # atomic orbitals                 128          :
          :  # shells                           66          :
          :  # electrons                       116          :
          :  max. iterations                   250          :
          :  Hamiltonian                  GFN2-xTB          :
          :  restarted?                      false          :
          :  GBSA solvation                   true          :
          :  PC potential                    false          :
          :  electronic temp.          300.0000000     K    :
          :  accuracy                    1.0000000          :
          :  -> integral cutoff          0.2500000E+02      :
          :  -> integral neglect         0.1000000E-07      :
          :  -> SCF convergence          0.1000000E-05 Eh   :
          :  -> wf. convergence          0.1000000E-03 e    :
          :  Broyden damping             0.4000000          :
          :  net charge                          0          :
          :  unpaired electrons                  0          :
          ...................................................

 iter      E             dE          RMSdq      gap      omega  full diag
   1    -65.4429926 -0.654430E+02  0.636E+00    4.27       0.0  T
   2    -65.5617296 -0.118737E+00  0.358E+00    3.62       1.0  T
   3    -65.5809788 -0.192492E-01  0.102E+00    3.11       1.0  T
   4    -65.5835991 -0.262030E-02  0.473E-01    3.06       1.0  T
   5    -65.5842121 -0.612994E-03  0.252E-01    3.12       1.0  T
   6    -65.5844111 -0.198987E-03  0.115E-01    3.12       1.0  T
   7    -65.5844564 -0.453611E-04  0.429E-02    3.14       1.0  T
   8    -65.5844611 -0.472908E-05  0.178E-02    3.14       1.0  T
   9    -65.5844620 -0.855578E-06  0.607E-03    3.14       2.6  T
  10    -65.5844620 -0.856694E-08  0.288E-03    3.14       5.4  T
  11    -65.5844621 -0.505160E-07  0.930E-04    3.14      16.8  T
  12    -65.5844621 -0.132638E-08  0.364E-04    3.14      42.9  T

   *** convergence criteria satisfied after 12 iterations ***

         #    Occupation            Energy/Eh            Energy/eV
      -------------------------------------------------------------
         1        2.0000           -0.7679229             -20.8962
       ...           ...                  ...                  ...
        52        2.0000           -0.4433716             -12.0648
        53        2.0000           -0.4200845             -11.4311
        54        2.0000           -0.4129290             -11.2364
        55        2.0000           -0.3932502             -10.7009
        56        2.0000           -0.3918930             -10.6640
        57        2.0000           -0.3905040             -10.6262
        58        2.0000           -0.3881114             -10.5610 (HOMO)
        59                         -0.2728905              -7.4257 (LUMO)
        60                         -0.2460947              -6.6966
        61                         -0.2320443              -6.3142
        62                         -0.1972347              -5.3670
        63                         -0.1804740              -4.9109
       ...                                ...                  ...
       128                          1.2699572              34.5573
      -------------------------------------------------------------
                  HL-Gap            0.1152210 Eh            3.1353 eV
             Fermi-level           -0.3305010 Eh           -8.9934 eV

 SCC (total)                   0 d,  0 h,  0 min,  0.070 sec
 SCC setup                      ...        0 min,  0.003 sec (  3.761%)
 Dispersion                     ...        0 min,  0.000 sec (  0.438%)
 classical contributions        ...        0 min,  0.000 sec (  0.082%)
 integral evaluation            ...        0 min,  0.020 sec ( 28.235%)
 iterations                     ...        0 min,  0.025 sec ( 35.510%)
 molecular gradient             ...        0 min,  0.022 sec ( 31.596%)
 printout                       ...        0 min,  0.000 sec (  0.359%)

         :::::::::::::::::::::::::::::::::::::::::::::::::::::
         ::                     SUMMARY                     ::
         :::::::::::::::::::::::::::::::::::::::::::::::::::::
         :: total energy             -65.023333831048 Eh    ::
         :: total w/o Gsasa/hb       -65.026412035574 Eh    ::
         :: gradient norm              0.000103086412 Eh/a0 ::
         :: HOMO-LUMO gap              3.135322115823 eV    ::
         ::.................................................::
         :: SCC energy               -65.583271585704 Eh    ::
         :: -> isotropic ES            0.123966852926 Eh    ::
         :: -> anisotropic ES         -0.012834347624 Eh    ::
         :: -> anisotropic XC          0.030263537054 Eh    ::
         :: -> dispersion             -0.053353069213 Eh    ::
         :: -> Gsolv                  -0.019205895550 Eh    ::
         ::    -> Gelec               -0.022284100076 Eh    ::
         ::    -> Gsasa                0.004050346645 Eh    ::
         ::    -> Ghb                 -0.003866691280 Eh    ::
         ::    -> Gshift               0.002894549160 Eh    ::
         :: repulsion energy           0.559937754656 Eh    ::
         :: add. restraining           0.000000000000 Eh    ::
         :: total charge               0.000000000000 e     ::
         :::::::::::::::::::::::::::::::::::::::::::::::::::::

           -------------------------------------------------
          |                Property Printout                |
           -------------------------------------------------

    * Orbital Energies and Occupations

         #    Occupation            Energy/Eh            Energy/eV
      -------------------------------------------------------------
         1        2.0000           -0.7679229             -20.8962
       ...           ...                  ...                  ...
        46        2.0000           -0.4672193             -12.7137
        47        2.0000           -0.4658926             -12.6776
        48        2.0000           -0.4612754             -12.5519
        49        2.0000           -0.4555434             -12.3960
        50        2.0000           -0.4546502             -12.3717
        51        2.0000           -0.4473021             -12.1717
        52        2.0000           -0.4433716             -12.0648
        53        2.0000           -0.4200845             -11.4311
        54        2.0000           -0.4129290             -11.2364
        55        2.0000           -0.3932502             -10.7009
        56        2.0000           -0.3918930             -10.6640
        57        2.0000           -0.3905040             -10.6262
        58        2.0000           -0.3881114             -10.5610 (HOMO)
        59                         -0.2728905              -7.4257 (LUMO)
        60                         -0.2460947              -6.6966
        61                         -0.2320443              -6.3142
        62                         -0.1972347              -5.3670
        63                         -0.1804740              -4.9109
        64                         -0.1693102              -4.6072
        65                         -0.1596567              -4.3445
        66                         -0.1557759              -4.2389
        67                         -0.1306717              -3.5558
        68                         -0.1275664              -3.4713
        69                         -0.0486954              -1.3251
       ...                                ...                  ...
       128                          1.2699572              34.5573
      -------------------------------------------------------------
                  HL-Gap            0.1152210 Eh            3.1353 eV
             Fermi-level           -0.3305010 Eh           -8.9934 eV

     #   Z          covCN         q      C6AA      α(0)
     1   6 C        3.752    -0.127    22.995     6.838
     2   6 C        3.888     0.093    18.993     6.196
     3   8 O        1.655    -0.255    18.246     5.766
     4  15 P        3.900     0.387   144.176    21.569
     5  16 S        0.927    -0.479   160.415    21.423
     6   8 O        1.655    -0.260    18.318     5.778
     7   6 C        3.882     0.076    19.270     6.241
     8   6 C        3.751    -0.128    23.025     6.843
     9  16 S        1.995    -0.161   147.833    20.464
    10   6 C        3.818     0.033    20.002     6.365
    11  16 S        1.995    -0.111   145.711    20.317
    12  15 P        3.847     0.383   144.317    21.580
    13  16 S        0.926    -0.476   160.255    21.412
    14   8 O        1.655    -0.258    18.299     5.775
    15   6 C        3.826     0.068    19.427     6.272
    16   6 C        3.752    -0.127    23.006     6.840
    17   8 O        1.655    -0.266    18.423     5.794
    18   6 C        3.875     0.085    19.136     6.220
    19   6 C        3.751    -0.127    22.991     6.838
    20   1 H        0.925     0.065     2.137     2.286
    21   1 H        0.925     0.083     1.948     2.183
    22   1 H        0.925     0.078     1.996     2.209
    23   1 H        0.924     0.044     2.396     2.421
    24   1 H        0.924     0.062     2.181     2.309
    25   1 H        0.924     0.065     2.146     2.291
    26   1 H        0.924     0.094     1.845     2.124
    27   1 H        0.925     0.056     2.246     2.343
    28   1 H        0.925     0.086     1.921     2.167
    29   1 H        0.925     0.075     2.031     2.229
    30   1 H        0.925     0.105     1.736     2.061
    31   1 H        0.925     0.112     1.683     2.029
    32   1 H        0.924     0.099     1.796     2.096
    33   1 H        0.924     0.073     2.056     2.242
    34   1 H        0.925     0.067     2.124     2.279
    35   1 H        0.925     0.085     1.924     2.169
    36   1 H        0.925     0.056     2.247     2.344
    37   1 H        0.924     0.057     2.229     2.335
    38   1 H        0.924     0.077     2.012     2.218
    39   1 H        0.925     0.081     1.964     2.191
    40   1 H        0.925     0.074     2.039     2.233
    41   1 H        0.925     0.056     2.243     2.342

 Mol. C6AA /au·bohr⁶  :      26410.239465
 Mol. C8AA /au·bohr⁸  :     862713.578358
 Mol. α(0) /au        :        257.631734


Wiberg/Mayer (AO) data.
largest (>0.10) Wiberg bond orders for each atom

 ---------------------------------------------------------------------------
     #   Z sym  total        # sym  WBO       # sym  WBO       # sym  WBO
 ---------------------------------------------------------------------------
     1   6 C    3.982 --     2 C    1.017    22 H    0.981    20 H    0.981
                            21 H    0.976
     2   6 C    3.898 --     1 C    1.017    24 H    0.969    23 H    0.968
                             3 O    0.890
     3   8 O    2.402 --     4 P    1.298     2 C    0.890
     4  15 P    5.289 --     5 S    1.536     6 O    1.327     3 O    1.298
                             9 S    0.990
     5  16 S    1.821 --     4 P    1.536
     6   8 O    2.394 --     4 P    1.327     7 C    0.872
     7   6 C    3.884 --     8 C    1.024    25 H    0.967    26 H    0.965
                             6 O    0.872
     8   6 C    3.986 --     7 C    1.024    29 H    0.981    27 H    0.976
                            28 H    0.975
     9  16 S    2.264 --     4 P    0.990    10 C    0.973
    10   6 C    3.949 --    11 S    0.994     9 S    0.973    31 H    0.958
                            30 H    0.949
    11  16 S    2.310 --    12 P    0.996    10 C    0.994    13 S    0.136
    12  15 P    5.280 --    13 S    1.498    14 O    1.325    17 O    1.303
                            11 S    0.996
    13  16 S    1.832 --    12 P    1.498    11 S    0.136
    14   8 O    2.408 --    12 P    1.325    15 C    0.883
    15   6 C    3.887 --    16 C    1.023    33 H    0.968    32 H    0.963
                            14 O    0.883
    16   6 C    3.988 --    15 C    1.023    34 H    0.982    35 H    0.976
                            36 H    0.974
    17   8 O    2.386 --    12 P    1.303    18 C    0.885
    18   6 C    3.896 --    19 C    1.022    38 H    0.966    37 H    0.966
                            17 O    0.885
    19   6 C    3.987 --    18 C    1.022    40 H    0.982    39 H    0.976
                            41 H    0.975
    20   1 H    0.996 --     1 C    0.981
    21   1 H    0.991 --     1 C    0.976
    22   1 H    0.994 --     1 C    0.981
    23   1 H    0.998 --     2 C    0.968
    24   1 H    0.996 --     2 C    0.969
    25   1 H    0.996 --     7 C    0.967
    26   1 H    0.991 --     7 C    0.965
    27   1 H    0.997 --     8 C    0.976
    28   1 H    0.991 --     8 C    0.975
    29   1 H    0.994 --     8 C    0.981
    30   1 H    0.987 --    10 C    0.949
    31   1 H    0.987 --    10 C    0.958
    32   1 H    0.990 --    15 C    0.963
    33   1 H    0.995 --    15 C    0.968
    34   1 H    0.996 --    16 C    0.982
    35   1 H    0.992 --    16 C    0.976
    36   1 H    0.997 --    16 C    0.974
    37   1 H    0.997 --    18 C    0.966
    38   1 H    0.993 --    18 C    0.966
    39   1 H    0.992 --    19 C    0.976
    40   1 H    0.994 --    19 C    0.982
    41   1 H    0.997 --    19 C    0.975
 ---------------------------------------------------------------------------

Topologies differ in total number of bonds
Writing topology from bond orders to xtbtopo.mol

molecular dipole:
                 x           y           z       tot (Debye)
 q only:       -0.863       0.059       3.457
   full:       -0.815       0.045       3.338       8.734
molecular quadrupole (traceless):
                xx          xy          yy          xz          yz          zz
 q only:       -1.035      23.802       5.636       4.302       3.989      -4.601
  q+dip:       -1.631      27.464       7.438       4.097       1.790      -5.807
   full:       -1.120      28.156       6.770       4.258       2.743      -5.650


           -------------------------------------------------
          | TOTAL ENERGY              -65.023333831048 Eh   |
          | GRADIENT NORM               0.000103086412 Eh/α |
          | HOMO-LUMO GAP               3.135322115823 eV   |
           -------------------------------------------------

------------------------------------------------------------------------
 * finished run on 2025/04/09 at 05:21:22.238     
------------------------------------------------------------------------
 total:
 * wall-time:     0 d,  0 h,  0 min,  0.128 sec
 *  cpu-time:     0 d,  0 h,  0 min,  0.071 sec
 * ratio c/w:     0.555 speedup
 SCF:
 * wall-time:     0 d,  0 h,  0 min,  0.070 sec
 *  cpu-time:     0 d,  0 h,  0 min,  0.058 sec
 * ratio c/w:     0.832 speedup

