      -----------------------------------------------------------      
     |                   =====================                   |     
     |                           x T B                           |     
     |                   =====================                   |     
     |                         S. Grimme                         |     
     |          Mulliken Center for Theoretical Chemistry        |     
     |                    University of Bonn                     |     
      -----------------------------------------------------------      

   * xtb version 6.7.1 (edcfbbe) compiled by 'albert@albert-system' on 2024-07-22

   xtb is free software: you can redistribute it and/or modify it under
   the terms of the GNU Lesser General Public License as published by
   the Free Software Foundation, either version 3 of the License, or
   (at your option) any later version.
   
   xtb is distributed in the hope that it will be useful,
   but WITHOUT ANY WARRANTY; without even the implied warranty of
   MERCHANTABILITY or FITNESS FOR A PARTICULAR PURPOSE.  See the
   GNU Lesser General Public License for more details.
   
   Cite this work as:
   * C. Bannwarth, E. Caldeweyher, S. Ehlert, A. Hansen, P. Pracht,
     J. Seibert, S. Spicher, S. Grimme, WIREs Comput. Mol. Sci., 2020, 11,
     e01493. DOI: 10.1002/wcms.1493
   
   for GFN2-xTB:
   * C. Bannwarth, S. Ehlert and S. Grimme., J. Chem. Theory Comput., 2019,
     15, 1652-1671. DOI: 10.1021/acs.jctc.8b01176
   for GFN1-xTB:
   * S. Grimme, C. Bannwarth, P. Shushkov, J. Chem. Theory Comput., 2017,
     13, 1989-2009. DOI: 10.1021/acs.jctc.7b00118
   for GFN0-xTB:
   * P. Pracht, E. Caldeweyher, S. Ehlert, S. Grimme, ChemRxiv, 2019, preprint.
     DOI: 10.26434/chemrxiv.8326202.v1
   for GFN-FF:
   * S. Spicher and S. Grimme, Angew. Chem. Int. Ed., 2020, 59, 15665-15673.
     DOI: 10.1002/anie.202004239
   
   for ALPB and GBSA implicit solvation:
   * S. Ehlert, M. Stahn, S. Spicher, S. Grimme, J. Chem. Theory Comput.,
     2021, 17, 4250-4261. DOI: 10.1021/acs.jctc.1c00471
   
   for ddCOSMO and CPCM-X implicit solvation:
   * M. Stahn, S. Ehlert, S. Grimme, J. Phys. Chem. A,
     2023, XX, XXXX-XXXX. DOI: 10.1021/acs.jpca.3c04382
   
   for DFT-D4:
   * E. Caldeweyher, C. Bannwarth and S. Grimme, J. Chem. Phys., 2017,
     147, 034112. DOI: 10.1063/1.4993215
   * E. Caldeweyher, S. Ehlert, A. Hansen, H. Neugebauer, S. Spicher,
     C. Bannwarth and S. Grimme, J. Chem. Phys., 2019, 150, 154122.
     DOI: 10.1063/1.5090222
   * E. Caldeweyher, J.-M. Mewes, S. Ehlert and S. Grimme, Phys. Chem. Chem. Phys.
     2020, 22, 8499-8512. DOI: 10.1039/D0CP00502A
   
   for sTDA-xTB:
   * S. Grimme and C. Bannwarth, J. Chem. Phys., 2016, 145, 054103.
     DOI: 10.1063/1.4959605
   
   in the mass-spec context:
   * V. Asgeirsson, C. Bauer and S. Grimme, Chem. Sci., 2017, 8, 4879.
     DOI: 10.1039/c7sc00601b
   * J. Koopman and S. Grimme, ACS Omega 2019, 4, 12, 15120-15133.
     DOI: 10.1021/acsomega.9b02011
   
   for metadynamics refer to:
   * S. Grimme, J. Chem. Theory Comput., 2019, 155, 2847-2862
     DOI: 10.1021/acs.jctc.9b00143
   
   for SPH calculations refer to:
   * S. Spicher and S. Grimme, J. Chem. Theory Comput., 2021, 17, 1701-1714
     DOI: 10.1021/acs.jctc.0c01306
   
   for ONIOM refer to:
   * C. Plett, A. Katbashev, S. Ehlert, S. Grimme, M. Bursch,
     Phys. Chem. Chem. Phys., 2023, 25, 17860-17868. DOI: 10.1039/D3CP02178E
   
   for DIPRO refer to:
   * J. Kohn, N. Gildemeister, S. Grimme, D. Fazzi, A. Hansen,
     J. Chem. Phys., 2023, just accepted.
   
   for PTB refer to:
   * S. Grimme, M. Mueller, A. Hansen, J. Chem. Phys., 2023, 158, 124111.
     DOI: 10.1063/5.0137838
   
   with help from (in alphabetical order)
   P. Atkinson, C. Bannwarth, F. Bohle, G. Brandenburg, E. Caldeweyher
   M. Checinski, S. Dohm, S. Ehlert, S. Ehrlich, I. Gerasimov, C. Hölzer
   A. Katbashev, J. Kohn, J. Koopman, C. Lavigne, S. Lehtola, F. März, M. Müller,
   F. Musil, H. Neugebauer, J. Pisarek, C. Plett, P. Pracht, F. Pultar,
   J. Seibert, P. Shushkov, S. Spicher, M. Stahn, M. Steiner, T. Strunk,
   J. Stückrath, T. Rose, and J. Unsleber
   
 * started run on 2025/04/09 at 05:21:22.021     
   ID    Z sym.   atoms
    1    6 C      1, 2, 7, 8, 10, 15, 16, 18, 19
    2    8 O      3, 6, 14, 17
    3   15 P      4, 12
    4   16 S      5, 9, 11, 13
    5    1 H      20-41

           -------------------------------------------------
          |                Calculation Setup                |
           -------------------------------------------------

          program call               : /srv/scratch/z5358697/.xtb/bin/xtb solv.coord --gfn2 --sp --chrg 0 --norestart --parallel 1 --alpb water reference -I xtb_sp-xcontrol-inp
          hostname                   : k163
          coordinate file            : solv.coord
          omp threads                :                     1


           -------------------------------------------------
          |                 G F N 2 - x T B                 |
           -------------------------------------------------

        Reference                      10.1021/acs.jctc.8b01176
      * Hamiltonian:
        H0-scaling (s, p, d)           1.850000    2.230000    2.230000
        zeta-weighting                 0.500000
      * Dispersion:
        s8                             2.700000
        a1                             0.520000
        a2                             5.000000
        s9                             5.000000
      * Repulsion:
        kExp                           1.500000    1.000000
        rExp                           1.000000
      * Coulomb:
        alpha                          2.000000
        third order                    shell-resolved
        anisotropic                    true
        a3                             3.000000
        a5                             4.000000
        cn-shift                       1.200000
        cn-exp                         4.000000
        max-rad                        5.000000

      * Solvation model:               ALPB
        Solvent                        water
        Parameter file                 internal GFN2-xTB/ALPB
        Dielectric constant                8.0200E+01
        Reference state                gsolv=reference [X=1]
        Free energy shift                  2.8945E-03 Eh       1.8164E+00 kcal/mol
        Temperature                        2.9815E+02 K
        Density                            1.0000E+00 kg/L
        Solvent mass                       1.8000E+01 g/mol
        Interaction kernel             P16
        Born radius scaling (c1)           1.4744E+00
        Born radii integrator          GBOBC
        Born offset                        0.0000E+00 a0       0.0000E+00 AA
        H-bond correction              true
        Ion screening                  false
        Surface tension                    1.0000E-05 Eh       1.5569E+01 dyn/cm
        Grid points                               974 per atom

          ...................................................
          :                      SETUP                      :
          :.................................................:
          :  # basis functions                 134          :
          :  # atomic orbitals                 128          :
          :  # shells                           66          :
          :  # electrons                       116          :
          :  max. iterations                   250          :
          :  Hamiltonian                  GFN2-xTB          :
          :  restarted?                      false          :
          :  GBSA solvation                   true          :
          :  PC potential                    false          :
          :  electronic temp.          300.0000000     K    :
          :  accuracy                    1.0000000          :
          :  -> integral cutoff          0.2500000E+02      :
          :  -> integral neglect         0.1000000E-07      :
          :  -> SCF convergence          0.1000000E-05 Eh   :
          :  -> wf. convergence          0.1000000E-03 e    :
          :  Broyden damping             0.4000000          :
          :  net charge                          0          :
          :  unpaired electrons                  0          :
          ...................................................

 iter      E             dE          RMSdq      gap      omega  full diag
   1    -65.4427097 -0.654427E+02  0.651E+00    4.14       0.0  T
   2    -65.5616408 -0.118931E+00  0.366E+00    3.54       1.0  T
   3    -65.5811662 -0.195254E-01  0.110E+00    3.10       1.0  T
   4    -65.5842452 -0.307900E-02  0.532E-01    3.08       1.0  T
   5    -65.5849204 -0.675274E-03  0.283E-01    3.13       1.0  T
   6    -65.5851019 -0.181500E-03  0.124E-01    3.13       1.0  T
   7    -65.5851586 -0.566420E-04  0.446E-02    3.15       1.0  T
   8    -65.5851629 -0.428469E-05  0.189E-02    3.15       1.0  T
   9    -65.5851638 -0.918613E-06  0.543E-03    3.15       2.9  T
  10    -65.5851638 -0.380267E-08  0.283E-03    3.15       5.5  T
  11    -65.5851638 -0.501430E-07  0.733E-04    3.15      21.3  T
  12    -65.5851638 -0.116265E-08  0.345E-04    3.15      45.2  T

   *** convergence criteria satisfied after 12 iterations ***

         #    Occupation            Energy/Eh            Energy/eV
      -------------------------------------------------------------
         1        2.0000           -0.7670126             -20.8715
       ...           ...                  ...                  ...
        52        2.0000           -0.4471323             -12.1671
        53        2.0000           -0.4197890             -11.4230
        54        2.0000           -0.4101083             -11.1596
        55        2.0000           -0.3988067             -10.8521
        56        2.0000           -0.3940946             -10.7239
        57        2.0000           -0.3932268             -10.7002
        58        2.0000           -0.3896308             -10.6024 (HOMO)
        59                         -0.2738378              -7.4515 (LUMO)
        60                         -0.2638831              -7.1806
        61                         -0.2188650              -5.9556
        62                         -0.1888520              -5.1389
        63                         -0.1783285              -4.8526
       ...                                ...                  ...
       128                          1.2764262              34.7333
      -------------------------------------------------------------
                  HL-Gap            0.1157930 Eh            3.1509 eV
             Fermi-level           -0.3317343 Eh           -9.0270 eV

 SCC (total)                   0 d,  0 h,  0 min,  0.061 sec
 SCC setup                      ...        0 min,  0.003 sec (  4.127%)
 Dispersion                     ...        0 min,  0.000 sec (  0.482%)
 classical contributions        ...        0 min,  0.000 sec (  0.093%)
 integral evaluation            ...        0 min,  0.011 sec ( 17.910%)
 iterations                     ...        0 min,  0.025 sec ( 40.782%)
 molecular gradient             ...        0 min,  0.022 sec ( 36.248%)
 printout                       ...        0 min,  0.000 sec (  0.331%)

         :::::::::::::::::::::::::::::::::::::::::::::::::::::
         ::                     SUMMARY                     ::
         :::::::::::::::::::::::::::::::::::::::::::::::::::::
         :: total energy             -65.023344547643 Eh    ::
         :: total w/o Gsasa/hb       -65.026707326594 Eh    ::
         :: gradient norm              0.000058720268 Eh/a0 ::
         :: HOMO-LUMO gap              3.150888242869 eV    ::
         ::.................................................::
         :: SCC energy               -65.583960247241 Eh    ::
         :: -> isotropic ES            0.124093240793 Eh    ::
         :: -> anisotropic ES         -0.015314660967 Eh    ::
         :: -> anisotropic XC          0.030136133223 Eh    ::
         :: -> dispersion             -0.053596103486 Eh    ::
         :: -> Gsolv                  -0.020866409454 Eh    ::
         ::    -> Gelec               -0.024229188406 Eh    ::
         ::    -> Gsasa                0.004550474032 Eh    ::
         ::    -> Ghb                 -0.004082244241 Eh    ::
         ::    -> Gshift               0.002894549160 Eh    ::
         :: repulsion energy           0.560615699598 Eh    ::
         :: add. restraining           0.000000000000 Eh    ::
         :: total charge               0.000000000000 e     ::
         :::::::::::::::::::::::::::::::::::::::::::::::::::::

           -------------------------------------------------
          |                Property Printout                |
           -------------------------------------------------

    * Orbital Energies and Occupations

         #    Occupation            Energy/Eh            Energy/eV
      -------------------------------------------------------------
         1        2.0000           -0.7670126             -20.8715
       ...           ...                  ...                  ...
        46        2.0000           -0.4662246             -12.6866
        47        2.0000           -0.4603642             -12.5271
        48        2.0000           -0.4576086             -12.4522
        49        2.0000           -0.4555140             -12.3952
        50        2.0000           -0.4521303             -12.3031
        51        2.0000           -0.4491491             -12.2220
        52        2.0000           -0.4471323             -12.1671
        53        2.0000           -0.4197890             -11.4230
        54        2.0000           -0.4101083             -11.1596
        55        2.0000           -0.3988067             -10.8521
        56        2.0000           -0.3940946             -10.7239
        57        2.0000           -0.3932268             -10.7002
        58        2.0000           -0.3896308             -10.6024 (HOMO)
        59                         -0.2738378              -7.4515 (LUMO)
        60                         -0.2638831              -7.1806
        61                         -0.2188650              -5.9556
        62                         -0.1888520              -5.1389
        63                         -0.1783285              -4.8526
        64                         -0.1709625              -4.6521
        65                         -0.1691573              -4.6030
        66                         -0.1604775              -4.3668
        67                         -0.1336707              -3.6374
        68                         -0.1253303              -3.4104
        69                         -0.0542255              -1.4756
       ...                                ...                  ...
       128                          1.2764262              34.7333
      -------------------------------------------------------------
                  HL-Gap            0.1157930 Eh            3.1509 eV
             Fermi-level           -0.3317343 Eh           -9.0270 eV

     #   Z          covCN         q      C6AA      α(0)
     1   6 C        3.751    -0.132    23.107     6.855
     2   6 C        3.851     0.083    19.165     6.227
     3   8 O        1.655    -0.256    18.265     5.769
     4  15 P        3.865     0.363   145.098    21.638
     5  16 S        0.925    -0.481   160.476    21.427
     6   8 O        1.655    -0.263    18.381     5.788
     7   6 C        3.859     0.076    19.277     6.244
     8   6 C        3.751    -0.127    23.003     6.840
     9  16 S        2.018    -0.100   145.233    20.283
    10   6 C        3.811     0.038    19.926     6.354
    11  16 S        2.035    -0.152   147.443    20.437
    12  15 P        3.800     0.366   144.985    21.630
    13  16 S        0.926    -0.441   158.591    21.300
    14   8 O        1.654    -0.260    18.318     5.778
    15   6 C        3.846     0.072    19.346     6.256
    16   6 C        3.751    -0.134    23.132     6.859
    17   8 O        1.655    -0.253    18.210     5.761
    18   6 C        3.825     0.082    19.206     6.236
    19   6 C        3.751    -0.121    22.891     6.823
    20   1 H        0.925     0.088     1.902     2.156
    21   1 H        0.925     0.079     1.990     2.206
    22   1 H        0.925     0.062     2.176     2.307
    23   1 H        0.924     0.056     2.252     2.347
    24   1 H        0.924     0.073     2.049     2.239
    25   1 H        0.924     0.092     1.862     2.134
    26   1 H        0.924     0.063     2.160     2.298
    27   1 H        0.925     0.072     2.068     2.249
    28   1 H        0.925     0.085     1.932     2.173
    29   1 H        0.925     0.052     2.301     2.372
    30   1 H        0.924     0.081     1.967     2.193
    31   1 H        0.925     0.110     1.699     2.039
    32   1 H        0.924     0.090     1.883     2.146
    33   1 H        0.924     0.070     2.089     2.260
    34   1 H        0.925     0.088     1.901     2.156
    35   1 H        0.925     0.064     2.150     2.293
    36   1 H        0.925     0.072     2.067     2.248
    37   1 H        0.924     0.055     2.255     2.349
    38   1 H        0.924     0.094     1.845     2.124
    39   1 H        0.925     0.079     1.989     2.205
    40   1 H        0.925     0.067     2.118     2.276
    41   1 H        0.925     0.051     2.310     2.377

 Mol. C6AA /au·bohr⁶  :      26412.185140
 Mol. C8AA /au·bohr⁸  :     862644.106871
 Mol. α(0) /au        :        257.652112


Wiberg/Mayer (AO) data.
largest (>0.10) Wiberg bond orders for each atom

 ---------------------------------------------------------------------------
     #   Z sym  total        # sym  WBO       # sym  WBO       # sym  WBO
 ---------------------------------------------------------------------------
     1   6 C    3.981 --     2 C    1.020    22 H    0.982    21 H    0.982
                            20 H    0.975
     2   6 C    3.889 --     1 C    1.020    24 H    0.970    23 H    0.962
                             3 O    0.872
     3   8 O    2.402 --     4 P    1.335     2 C    0.872
     4  15 P    5.310 --     5 S    1.503     3 O    1.335     6 O    1.321
                             9 S    1.000
     5  16 S    1.838 --     4 P    1.503     9 S    0.134
     6   8 O    2.405 --     4 P    1.321     7 C    0.889
     7   6 C    3.891 --     8 C    1.022    26 H    0.968    25 H    0.965
                             6 O    0.889
     8   6 C    3.987 --     7 C    1.022    27 H    0.981    28 H    0.976
                            29 H    0.975
     9  16 S    2.294 --     4 P    1.000    10 C    0.991     5 S    0.134
    10   6 C    3.951 --     9 S    0.991    11 S    0.979    31 H    0.962
                            30 H    0.946
    11  16 S    2.268 --    10 C    0.979    12 P    0.950    13 S    0.143
    12  15 P    5.308 --    13 S    1.543    14 O    1.352    17 O    1.329
                            11 S    0.950
    13  16 S    1.884 --    12 P    1.543    11 S    0.143
    14   8 O    2.401 --    12 P    1.352    15 C    0.864
    15   6 C    3.883 --    16 C    1.021    33 H    0.968    32 H    0.967
                            14 O    0.864
    16   6 C    3.983 --    15 C    1.021    36 H    0.983    35 H    0.981
                            34 H    0.974
    17   8 O    2.416 --    12 P    1.329    18 C    0.887
    18   6 C    3.890 --    19 C    1.022    37 H    0.965    38 H    0.964
                            17 O    0.887
    19   6 C    3.988 --    18 C    1.022    40 H    0.983    41 H    0.980
                            39 H    0.977
    20   1 H    0.991 --     1 C    0.975
    21   1 H    0.994 --     1 C    0.982
    22   1 H    0.996 --     1 C    0.982
    23   1 H    0.997 --     2 C    0.962
    24   1 H    0.994 --     2 C    0.970
    25   1 H    0.991 --     7 C    0.965
    26   1 H    0.996 --     7 C    0.968
    27   1 H    0.995 --     8 C    0.981
    28   1 H    0.992 --     8 C    0.976
    29   1 H    0.997 --     8 C    0.975
    30   1 H    0.993 --    10 C    0.946
    31   1 H    0.988 --    10 C    0.962
    32   1 H    0.992 --    15 C    0.967
    33   1 H    0.995 --    15 C    0.968
    34   1 H    0.991 --    16 C    0.974
    35   1 H    0.996 --    16 C    0.981
    36   1 H    0.995 --    16 C    0.983
    37   1 H    0.997 --    18 C    0.965
    38   1 H    0.991 --    18 C    0.964
    39   1 H    0.993 --    19 C    0.977
    40   1 H    0.995 --    19 C    0.983
    41   1 H    0.997 --    19 C    0.980
 ---------------------------------------------------------------------------

Topologies differ in total number of bonds
Writing topology from bond orders to xtbtopo.mol

molecular dipole:
                 x           y           z       tot (Debye)
 q only:        1.488       2.650      -0.267
   full:        1.347       2.626      -0.024       7.501
molecular quadrupole (traceless):
                xx          xy          yy          xz          yz          zz
 q only:       -9.587     -28.182       6.366      10.336       3.478       3.221
  q+dip:       -1.891     -27.938       1.132      12.807       4.000       0.758
   full:       -2.831     -28.706       1.549      13.246       4.273       1.281


           -------------------------------------------------
          | TOTAL ENERGY              -65.023344547643 Eh   |
          | GRADIENT NORM               0.000058720268 Eh/α |
          | HOMO-LUMO GAP               3.150888242869 eV   |
           -------------------------------------------------

------------------------------------------------------------------------
 * finished run on 2025/04/09 at 05:21:22.144     
------------------------------------------------------------------------
 total:
 * wall-time:     0 d,  0 h,  0 min,  0.122 sec
 *  cpu-time:     0 d,  0 h,  0 min,  0.072 sec
 * ratio c/w:     0.586 speedup
 SCF:
 * wall-time:     0 d,  0 h,  0 min,  0.061 sec
 *  cpu-time:     0 d,  0 h,  0 min,  0.058 sec
 * ratio c/w:     0.954 speedup

