      -----------------------------------------------------------      
     |                   =====================                   |     
     |                           x T B                           |     
     |                   =====================                   |     
     |                         S. Grimme                         |     
     |          Mulliken Center for Theoretical Chemistry        |     
     |                    University of Bonn                     |     
      -----------------------------------------------------------      

   * xtb version 6.7.1 (edcfbbe) compiled by 'albert@albert-system' on 2024-07-22

   xtb is free software: you can redistribute it and/or modify it under
   the terms of the GNU Lesser General Public License as published by
   the Free Software Foundation, either version 3 of the License, or
   (at your option) any later version.
   
   xtb is distributed in the hope that it will be useful,
   but WITHOUT ANY WARRANTY; without even the implied warranty of
   MERCHANTABILITY or FITNESS FOR A PARTICULAR PURPOSE.  See the
   GNU Lesser General Public License for more details.
   
   Cite this work as:
   * C. Bannwarth, E. Caldeweyher, S. Ehlert, A. Hansen, P. Pracht,
     J. Seibert, S. Spicher, S. Grimme, WIREs Comput. Mol. Sci., 2020, 11,
     e01493. DOI: 10.1002/wcms.1493
   
   for GFN2-xTB:
   * C. Bannwarth, S. Ehlert and S. Grimme., J. Chem. Theory Comput., 2019,
     15, 1652-1671. DOI: 10.1021/acs.jctc.8b01176
   for GFN1-xTB:
   * S. Grimme, C. Bannwarth, P. Shushkov, J. Chem. Theory Comput., 2017,
     13, 1989-2009. DOI: 10.1021/acs.jctc.7b00118
   for GFN0-xTB:
   * P. Pracht, E. Caldeweyher, S. Ehlert, S. Grimme, ChemRxiv, 2019, preprint.
     DOI: 10.26434/chemrxiv.8326202.v1
   for GFN-FF:
   * S. Spicher and S. Grimme, Angew. Chem. Int. Ed., 2020, 59, 15665-15673.
     DOI: 10.1002/anie.202004239
   
   for ALPB and GBSA implicit solvation:
   * S. Ehlert, M. Stahn, S. Spicher, S. Grimme, J. Chem. Theory Comput.,
     2021, 17, 4250-4261. DOI: 10.1021/acs.jctc.1c00471
   
   for ddCOSMO and CPCM-X implicit solvation:
   * M. Stahn, S. Ehlert, S. Grimme, J. Phys. Chem. A,
     2023, XX, XXXX-XXXX. DOI: 10.1021/acs.jpca.3c04382
   
   for DFT-D4:
   * E. Caldeweyher, C. Bannwarth and S. Grimme, J. Chem. Phys., 2017,
     147, 034112. DOI: 10.1063/1.4993215
   * E. Caldeweyher, S. Ehlert, A. Hansen, H. Neugebauer, S. Spicher,
     C. Bannwarth and S. Grimme, J. Chem. Phys., 2019, 150, 154122.
     DOI: 10.1063/1.5090222
   * E. Caldeweyher, J.-M. Mewes, S. Ehlert and S. Grimme, Phys. Chem. Chem. Phys.
     2020, 22, 8499-8512. DOI: 10.1039/D0CP00502A
   
   for sTDA-xTB:
   * S. Grimme and C. Bannwarth, J. Chem. Phys., 2016, 145, 054103.
     DOI: 10.1063/1.4959605
   
   in the mass-spec context:
   * V. Asgeirsson, C. Bauer and S. Grimme, Chem. Sci., 2017, 8, 4879.
     DOI: 10.1039/c7sc00601b
   * J. Koopman and S. Grimme, ACS Omega 2019, 4, 12, 15120-15133.
     DOI: 10.1021/acsomega.9b02011
   
   for metadynamics refer to:
   * S. Grimme, J. Chem. Theory Comput., 2019, 155, 2847-2862
     DOI: 10.1021/acs.jctc.9b00143
   
   for SPH calculations refer to:
   * S. Spicher and S. Grimme, J. Chem. Theory Comput., 2021, 17, 1701-1714
     DOI: 10.1021/acs.jctc.0c01306
   
   for ONIOM refer to:
   * C. Plett, A. Katbashev, S. Ehlert, S. Grimme, M. Bursch,
     Phys. Chem. Chem. Phys., 2023, 25, 17860-17868. DOI: 10.1039/D3CP02178E
   
   for DIPRO refer to:
   * J. Kohn, N. Gildemeister, S. Grimme, D. Fazzi, A. Hansen,
     J. Chem. Phys., 2023, just accepted.
   
   for PTB refer to:
   * S. Grimme, M. Mueller, A. Hansen, J. Chem. Phys., 2023, 158, 124111.
     DOI: 10.1063/5.0137838
   
   with help from (in alphabetical order)
   P. Atkinson, C. Bannwarth, F. Bohle, G. Brandenburg, E. Caldeweyher
   M. Checinski, S. Dohm, S. Ehlert, S. Ehrlich, I. Gerasimov, C. Hölzer
   A. Katbashev, J. Kohn, J. Koopman, C. Lavigne, S. Lehtola, F. März, M. Müller,
   F. Musil, H. Neugebauer, J. Pisarek, C. Plett, P. Pracht, F. Pultar,
   J. Seibert, P. Shushkov, S. Spicher, M. Stahn, M. Steiner, T. Strunk,
   J. Stückrath, T. Rose, and J. Unsleber
   
 * started run on 2025/04/09 at 13:59:30.941     
   ID    Z sym.   atoms
    1    6 C      1, 2, 7, 8, 10, 15, 16, 18, 19
    2    8 O      3, 6, 14, 17
    3   15 P      4, 12
    4   16 S      5, 9, 11, 13
    5    1 H      20-41

           -------------------------------------------------
          |                Calculation Setup                |
           -------------------------------------------------

          program call               : /srv/scratch/z5358697/.xtb/bin/xtb xtb_rrho.coord --gfn2 --bhess vtight --chrg 0 --enso --norestart -I rrho-xcontrol-inp --parallel 1 --alpb water
          hostname                   : k163
          coordinate file            : xtb_rrho.coord
          omp threads                :                     1


           -------------------------------------------------
          |                 G F N 2 - x T B                 |
           -------------------------------------------------

        Reference                      10.1021/acs.jctc.8b01176
      * Hamiltonian:
        H0-scaling (s, p, d)           1.850000    2.230000    2.230000
        zeta-weighting                 0.500000
      * Dispersion:
        s8                             2.700000
        a1                             0.520000
        a2                             5.000000
        s9                             5.000000
      * Repulsion:
        kExp                           1.500000    1.000000
        rExp                           1.000000
      * Coulomb:
        alpha                          2.000000
        third order                    shell-resolved
        anisotropic                    true
        a3                             3.000000
        a5                             4.000000
        cn-shift                       1.200000
        cn-exp                         4.000000
        max-rad                        5.000000

      * Solvation model:               ALPB
        Solvent                        water
        Parameter file                 internal GFN2-xTB/ALPB
        Dielectric constant                8.0200E+01
        Reference state                gsolv [1 M gas/solution]
        Free energy shift                  1.0808E-03 Eh       6.7819E-01 kcal/mol
        Temperature                        2.9815E+02 K
        Density                            1.0000E+00 kg/L
        Solvent mass                       1.8000E+01 g/mol
        Interaction kernel             P16
        Born radius scaling (c1)           1.4744E+00
        Born radii integrator          GBOBC
        Born offset                        0.0000E+00 a0       0.0000E+00 AA
        H-bond correction              true
        Ion screening                  false
        Surface tension                    1.0000E-05 Eh       1.5569E+01 dyn/cm
        Grid points                               974 per atom

          ...................................................
          :                      SETUP                      :
          :.................................................:
          :  # basis functions                 134          :
          :  # atomic orbitals                 128          :
          :  # shells                           66          :
          :  # electrons                       116          :
          :  max. iterations                   250          :
          :  Hamiltonian                  GFN2-xTB          :
          :  restarted?                      false          :
          :  GBSA solvation                   true          :
          :  PC potential                    false          :
          :  electronic temp.          300.0000000     K    :
          :  accuracy                    1.0000000          :
          :  -> integral cutoff          0.2500000E+02      :
          :  -> integral neglect         0.1000000E-07      :
          :  -> SCF convergence          0.1000000E-05 Eh   :
          :  -> wf. convergence          0.1000000E-03 e    :
          :  Broyden damping             0.4000000          :
          :  net charge                          0          :
          :  unpaired electrons                  0          :
          ...................................................

 iter      E             dE          RMSdq      gap      omega  full diag
   1    -65.4112871 -0.654113E+02  0.648E+00    4.27       0.0  T
   2    -65.5338094 -0.122522E+00  0.368E+00    3.64       1.0  T
   3    -65.5531560 -0.193466E-01  0.109E+00    3.15       1.0  T
   4    -65.5564021 -0.324606E-02  0.519E-01    3.09       1.0  T
   5    -65.5571161 -0.714039E-03  0.264E-01    3.15       1.0  T
   6    -65.5572940 -0.177909E-03  0.121E-01    3.15       1.0  T
   7    -65.5573450 -0.509847E-04  0.409E-02    3.17       1.0  T
   8    -65.5573483 -0.327950E-05  0.175E-02    3.17       1.0  T
   9    -65.5573491 -0.818193E-06  0.510E-03    3.16       3.1  T
  10    -65.5573491 -0.274026E-07  0.290E-03    3.16       5.4  T
  11    -65.5573492 -0.435667E-07  0.856E-04    3.16      18.2  T
  12    -65.5573492 -0.112544E-08  0.430E-04    3.16      36.3  T

   *** convergence criteria satisfied after 12 iterations ***

         #    Occupation            Energy/Eh            Energy/eV
      -------------------------------------------------------------
         1        2.0000           -0.7609081             -20.7054
       ...           ...                  ...                  ...
        52        2.0000           -0.4460727             -12.1383
        53        2.0000           -0.4200437             -11.4300
        54        2.0000           -0.4154341             -11.3045
        55        2.0000           -0.3967810             -10.7970
        56        2.0000           -0.3953489             -10.7580
        57        2.0000           -0.3942476             -10.7280
        58        2.0000           -0.3920598             -10.6685 (HOMO)
        59                         -0.2757874              -7.5046 (LUMO)
        60                         -0.2520678              -6.8591
        61                         -0.2280649              -6.2060
        62                         -0.1952458              -5.3129
        63                         -0.1844611              -5.0194
       ...                                ...                  ...
       128                          1.2731362              34.6438
      -------------------------------------------------------------
                  HL-Gap            0.1162724 Eh            3.1639 eV
             Fermi-level           -0.3339236 Eh           -9.0865 eV

 SCC (total)                   0 d,  0 h,  0 min,  0.073 sec
 SCC setup                      ...        0 min,  0.003 sec (  3.584%)
 Dispersion                     ...        0 min,  0.000 sec (  0.404%)
 classical contributions        ...        0 min,  0.000 sec (  0.078%)
 integral evaluation            ...        0 min,  0.030 sec ( 40.813%)
 iterations                     ...        0 min,  0.020 sec ( 27.512%)
 molecular gradient             ...        0 min,  0.020 sec ( 27.321%)
 printout                       ...        0 min,  0.000 sec (  0.268%)

         :::::::::::::::::::::::::::::::::::::::::::::::::::::
         ::                     SUMMARY                     ::
         :::::::::::::::::::::::::::::::::::::::::::::::::::::
         :: total energy             -65.017835284842 Eh    ::
         :: total w/o Gsasa/hb       -65.019907489375 Eh    ::
         :: gradient norm              0.053195968402 Eh/a0 ::
         :: HOMO-LUMO gap              3.163934397772 eV    ::
         ::.................................................::
         :: SCC energy               -65.556213989797 Eh    ::
         :: -> isotropic ES            0.124069508062 Eh    ::
         :: -> anisotropic ES         -0.013010974599 Eh    ::
         :: -> anisotropic XC          0.031216154445 Eh    ::
         :: -> dispersion             -0.050415688726 Eh    ::
         :: -> Gsolv                  -0.020710788315 Eh    ::
         ::    -> Gelec               -0.022782992848 Eh    ::
         ::    -> Gsasa                0.005100146248 Eh    ::
         ::    -> Ghb                 -0.004108701414 Eh    ::
         ::    -> Gshift               0.001080759698 Eh    ::
         :: repulsion energy           0.538378704954 Eh    ::
         :: add. restraining           0.000000000000 Eh    ::
         :: total charge              -0.000000000000 e     ::
         :::::::::::::::::::::::::::::::::::::::::::::::::::::

metadynamics with 1 initial structures loaded
           -------------------------------------------------
          |           Optimal kpush determination           |
           -------------------------------------------------
      ----------------------------------------------------------- 
     |                   =====================                   |
     |                        A N C O P T                        |
     |                   =====================                   |
     |               Approximate Normal Coordinate               |
     |                Rational Function Optimizer                |
      ----------------------------------------------------------- 
target rmsd / Å         0.100000
unbiased initial rmsd   0.165590
 
iter. min.        max.        rmsd       kpush
      ----------------------------------------------------------- 
     |                   =====================                   |
     |                        A N C O P T                        |
     |                   =====================                   |
     |               Approximate Normal Coordinate               |
     |                Rational Function Optimizer                |
      ----------------------------------------------------------- 
 1    0.000000    1.863636    0.015757   -0.931818
      ----------------------------------------------------------- 
     |                   =====================                   |
     |                        A N C O P T                        |
     |                   =====================                   |
     |               Approximate Normal Coordinate               |
     |                Rational Function Optimizer                |
      ----------------------------------------------------------- 
 2    0.000000    0.931818    0.022358   -0.465909
      ----------------------------------------------------------- 
     |                   =====================                   |
     |                        A N C O P T                        |
     |                   =====================                   |
     |               Approximate Normal Coordinate               |
     |                Rational Function Optimizer                |
      ----------------------------------------------------------- 
 3    0.000000    0.465909    0.032506   -0.232955
      ----------------------------------------------------------- 
     |                   =====================                   |
     |                        A N C O P T                        |
     |                   =====================                   |
     |               Approximate Normal Coordinate               |
     |                Rational Function Optimizer                |
      ----------------------------------------------------------- 
 4    0.000000    0.232955    0.047074   -0.116477
      ----------------------------------------------------------- 
     |                   =====================                   |
     |                        A N C O P T                        |
     |                   =====================                   |
     |               Approximate Normal Coordinate               |
     |                Rational Function Optimizer                |
      ----------------------------------------------------------- 
 5    0.000000    0.116477    0.064828   -0.058239
      ----------------------------------------------------------- 
     |                   =====================                   |
     |                        A N C O P T                        |
     |                   =====================                   |
     |               Approximate Normal Coordinate               |
     |                Rational Function Optimizer                |
      ----------------------------------------------------------- 
 6    0.000000    0.058239    0.083279   -0.029119
      ----------------------------------------------------------- 
     |                   =====================                   |
     |                        A N C O P T                        |
     |                   =====================                   |
     |               Approximate Normal Coordinate               |
     |                Rational Function Optimizer                |
      ----------------------------------------------------------- 
 7    0.000000    0.029119    0.100092   -0.014560
final kpush: -0.014560
           -------------------------------------------------
          |            Biased Numerical Hessian             |
           -------------------------------------------------
kpush                :  -0.01456
alpha                :   1.00000
step length          :   0.00500
SCC accuracy         :   0.30000
Hessian scale factor :   1.00000
frozen atoms in %    :   0.00000    0
RMS gradient         :   0.00005
estimated CPU  time      0.16 min
estimated wall time      0.16 min

writing file <hessian>.

 projected vibrational frequencies (cm⁻¹)
eigval :       -0.00    -0.00     0.00     0.00     0.00     0.00
eigval :       43.20    47.52    47.73    51.36    63.43    58.04
eigval :       56.04    75.49    58.60    74.58    81.66    87.26
eigval :      100.10   106.60   118.19   124.18   155.84   152.79
eigval :      164.94   193.51   204.25   206.38   211.80   209.48
eigval :      216.01   240.32   243.56   270.31   284.95   300.87
eigval :      322.60   345.30   354.16   382.57   412.47   418.27
eigval :      418.78   473.65   473.35   622.10   630.10   670.22
eigval :      695.22   745.55   753.00   761.20   782.41   801.63
eigval :      820.70   825.00   828.22   828.26   914.66   920.84
eigval :      937.73   944.74  1031.53  1031.71  1049.98  1057.63
eigval :     1094.07  1094.30  1090.96  1098.02  1101.72  1131.21
eigval :     1131.97  1133.89  1136.50  1168.88  1236.63  1237.32
eigval :     1238.68  1241.08  1303.77  1304.78  1310.97  1316.06
eigval :     1343.22  1392.08  1392.28  1395.87  1400.18  1437.33
eigval :     1439.69  1449.33  1456.15  1456.44  1458.83  1460.34
eigval :     1464.01  1476.54  1479.86  1480.13  1482.54  2919.21
eigval :     2937.30  2937.77  2942.03  2944.95  2955.87  2971.56
eigval :     2972.37  2973.10  2979.17  3034.08  3037.16  3048.51
eigval :     3051.37  3051.71  3052.86  3054.08  3055.85  3058.32
eigval :     3060.73  3061.80  3062.86
           -------------------------------------------------
          |                Property Printout                |
           -------------------------------------------------

    * Orbital Energies and Occupations

         #    Occupation            Energy/Eh            Energy/eV
      -------------------------------------------------------------
         1        2.0000           -0.7663833             -20.8544
       ...           ...                  ...                  ...
        46        2.0000           -0.4665605             -12.6958
        47        2.0000           -0.4628944             -12.5960
        48        2.0000           -0.4551785             -12.3860
        49        2.0000           -0.4547035             -12.3731
        50        2.0000           -0.4520053             -12.2997
        51        2.0000           -0.4486138             -12.2074
        52        2.0000           -0.4454759             -12.1220
        53        2.0000           -0.4215890             -11.4720
        54        2.0000           -0.4130664             -11.2401
        55        2.0000           -0.3965040             -10.7894
        56        2.0000           -0.3945716             -10.7368
        57        2.0000           -0.3921309             -10.6704
        58        2.0000           -0.3914603             -10.6522 (HOMO)
        59                         -0.2774177              -7.5489 (LUMO)
        60                         -0.2564215              -6.9776
        61                         -0.2185439              -5.9469
        62                         -0.1885506              -5.1307
        63                         -0.1787237              -4.8633
        64                         -0.1748495              -4.7579
        65                         -0.1706130              -4.6426
        66                         -0.1600476              -4.3551
        67                         -0.1381754              -3.7599
        68                         -0.1228116              -3.3419
        69                         -0.0526510              -1.4327
       ...                                ...                  ...
       128                          1.2535932              34.1120
      -------------------------------------------------------------
                  HL-Gap            0.1140426 Eh            3.1033 eV
             Fermi-level           -0.3344390 Eh           -9.1005 eV

     #   Z          covCN         q      C6AA      α(0)
     1   6 C        3.752    -0.134    23.146     6.861
     2   6 C        3.862     0.083    19.165     6.226
     3   8 O        1.655    -0.260    18.331     5.780
     4  15 P        3.863     0.373   144.716    21.610
     5  16 S        0.926    -0.470   159.983    21.394
     6   8 O        1.654    -0.258    18.290     5.773
     7   6 C        3.857     0.079    19.238     6.238
     8   6 C        3.751    -0.128    23.022     6.843
     9  16 S        2.008    -0.132   146.593    20.378
    10   6 C        3.815     0.040    19.890     6.348
    11  16 S        2.011    -0.162   147.883    20.467
    12  15 P        3.807     0.383   144.330    21.581
    13  16 S        0.926    -0.444   158.732    21.310
    14   8 O        1.653    -0.259    18.311     5.776
    15   6 C        3.854     0.074    19.316     6.251
    16   6 C        3.751    -0.134    23.132     6.859
    17   8 O        1.655    -0.252    18.197     5.759
    18   6 C        3.825     0.078    19.259     6.245
    19   6 C        3.751    -0.126    22.986     6.837
    20   1 H        0.925     0.084     1.940     2.178
    21   1 H        0.925     0.071     2.069     2.250
    22   1 H        0.925     0.076     2.019     2.222
    23   1 H        0.924     0.063     2.169     2.303
    24   1 H        0.924     0.060     2.200     2.320
    25   1 H        0.924     0.091     1.866     2.136
    26   1 H        0.924     0.059     2.210     2.325
    27   1 H        0.925     0.069     2.100     2.266
    28   1 H        0.925     0.087     1.908     2.160
    29   1 H        0.925     0.060     2.201     2.320
    30   1 H        0.925     0.098     1.802     2.099
    31   1 H        0.925     0.098     1.806     2.102
    32   1 H        0.924     0.068     2.106     2.270
    33   1 H        0.924     0.091     1.873     2.140
    34   1 H        0.925     0.070     2.081     2.256
    35   1 H        0.925     0.068     2.111     2.272
    36   1 H        0.925     0.088     1.901     2.156
    37   1 H        0.924     0.058     2.219     2.329
    38   1 H        0.924     0.091     1.869     2.138
    39   1 H        0.925     0.054     2.276     2.359
    40   1 H        0.925     0.079     1.986     2.204
    41   1 H        0.925     0.068     2.112     2.273

 Mol. C6AA /au·bohr⁶  :      26404.607327
 Mol. C8AA /au·bohr⁸  :     862599.214949
 Mol. α(0) /au        :        257.610057


Wiberg/Mayer (AO) data.
largest (>0.10) Wiberg bond orders for each atom

 ---------------------------------------------------------------------------
     #   Z sym  total        # sym  WBO       # sym  WBO       # sym  WBO
 ---------------------------------------------------------------------------
     1   6 C    3.981 --     2 C    1.018    21 H    0.983    22 H    0.982
                            20 H    0.976
     2   6 C    3.892 --     1 C    1.018    23 H    0.972    24 H    0.967
                             3 O    0.885
     3   8 O    2.404 --     4 P    1.324     2 C    0.885
     4  15 P    5.291 --     5 S    1.510     6 O    1.327     3 O    1.324
                             9 S    0.998
     5  16 S    1.839 --     4 P    1.510     9 S    0.135
     6   8 O    2.397 --     4 P    1.327     7 C    0.869
     7   6 C    3.886 --     8 C    1.022    26 H    0.968    25 H    0.966
                             6 O    0.869
     8   6 C    3.984 --     7 C    1.022    27 H    0.983    29 H    0.982
                            28 H    0.975
     9  16 S    2.299 --     4 P    0.998    10 C    0.982     5 S    0.135
    10   6 C    3.952 --    11 S    0.993     9 S    0.982    31 H    0.955
                            30 H    0.949
    11  16 S    2.273 --    10 C    0.993    12 P    0.933    13 S    0.139
    12  15 P    5.279 --    13 S    1.545    14 O    1.359    17 O    1.314
                            11 S    0.933
    13  16 S    1.874 --    12 P    1.545    11 S    0.139
    14   8 O    2.403 --    12 P    1.359    15 C    0.865
    15   6 C    3.884 --    16 C    1.021    33 H    0.967    32 H    0.964
                            14 O    0.865
    16   6 C    3.983 --    15 C    1.021    34 H    0.983    35 H    0.981
                            36 H    0.974
    17   8 O    2.415 --    12 P    1.314    18 C    0.890
    18   6 C    3.892 --    19 C    1.021    38 H    0.964    37 H    0.962
                            17 O    0.890
    19   6 C    3.988 --    18 C    1.021    41 H    0.983    39 H    0.978
                            40 H    0.977
    20   1 H    0.991 --     1 C    0.976
    21   1 H    0.995 --     1 C    0.983
    22   1 H    0.994 --     1 C    0.982
    23   1 H    0.996 --     2 C    0.972
    24   1 H    0.996 --     2 C    0.967
    25   1 H    0.992 --     7 C    0.966
    26   1 H    0.996 --     7 C    0.968
    27   1 H    0.995 --     8 C    0.983
    28   1 H    0.991 --     8 C    0.975
    29   1 H    0.996 --     8 C    0.982
    30   1 H    0.990 --    10 C    0.949
    31   1 H    0.990 --    10 C    0.955
    32   1 H    0.995 --    15 C    0.964
    33   1 H    0.991 --    15 C    0.967
    34   1 H    0.995 --    16 C    0.983
    35   1 H    0.995 --    16 C    0.981
    36   1 H    0.991 --    16 C    0.974
    37   1 H    0.997 --    18 C    0.962
    38   1 H    0.992 --    18 C    0.964
    39   1 H    0.997 --    19 C    0.978
    40   1 H    0.993 --    19 C    0.977
    41   1 H    0.995 --    19 C    0.983
 ---------------------------------------------------------------------------

Topologies differ in total number of bonds
Writing topology from bond orders to xtbtopo.mol

molecular dipole:
                 x           y           z       tot (Debye)
 q only:        0.710      -1.667       2.808
   full:        0.622      -1.656       2.799       8.416
molecular quadrupole (traceless):
                xx          xy          yy          xz          yz          zz
 q only:       -6.037     -20.806      -1.055     -29.817       5.343       7.093
  q+dip:       -3.830     -20.593       0.846     -28.847       0.414       2.984
   full:       -3.564     -21.811      -0.428     -29.086       1.751       3.992

           -------------------------------------------------
          |                Geometry Summary                 |
           -------------------------------------------------

      molecular mass/u    :      384.4756129
   center of mass at/Å    :        0.0013211       0.0059169      -0.0035496
  moments of inertia/u·Å² :        0.1296666E+04   0.3616928E+04   0.3901667E+04
rotational constants/cm⁻¹ :        0.1300075E-01   0.4660760E-02   0.4320624E-02

 * 38 selected distances

     #   Z          #   Z                                           value/Å
     1   6 C        2   6 C                                       1.5156409
     2   6 C        3   8 O                                       1.4419909
     3   8 O        4  15 P                                       1.5896495
     4  15 P        5  16 S                                       1.9647442
     4  15 P        6   8 O                                       1.5807973
     6   8 O        7   6 C                                       1.4490702
     7   6 C        8   6 C                                       1.5154965
     4  15 P        9  16 S                                       2.1099787
    11  16 S       12  15 P                                       2.1481365 (max)
    12  15 P       13  16 S                                       1.9545188
    12  15 P       14   8 O                                       1.5720682
    14   8 O       15   6 C                                       1.4513749
    15   6 C       16   6 C                                       1.5152626
    12  15 P       17   8 O                                       1.5942581
    17   8 O       18   6 C                                       1.4362305
    18   6 C       19   6 C                                       1.5151472
     1   6 C       20   1 H                                       1.0851410 (min)
     1   6 C       21   1 H                                       1.0862462
     1   6 C       22   1 H                                       1.0861086
     2   6 C       23   1 H                                       1.0932727
     2   6 C       24   1 H                                       1.0952932
     7   6 C       25   1 H                                       1.0910165
     7   6 C       26   1 H                                       1.0933908
     8   6 C       27   1 H                                       1.0863674
     8   6 C       28   1 H                                       1.0852052
     8   6 C       29   1 H                                       1.0880965
    10   6 C       30   1 H                                       1.0907427
    10   6 C       31   1 H                                       1.0895244
    15   6 C       32   1 H                                       1.0931848
    15   6 C       33   1 H                                       1.0912827
    16   6 C       34   1 H                                       1.0864806
    16   6 C       35   1 H                                       1.0865290
    16   6 C       36   1 H                                       1.0856314
    18   6 C       37   1 H                                       1.0942734
    18   6 C       38   1 H                                       1.0918121
    19   6 C       39   1 H                                       1.0884874
    19   6 C       40   1 H                                       1.0853576
    19   6 C       41   1 H                                       1.0868059

 * 5 distinct bonds (by element types)

   Z      Z             #   av. dist./Å        max./Å        min./Å
   1 H    6 C          22     1.0891023     1.0952932     1.0851410
   6 C    6 C           4     1.5153868     1.5156409     1.5151472
   6 C    8 O           4     1.4446666     1.4513749     1.4362305
   8 O   15 P           4     1.5841933     1.5942581     1.5720682
  15 P   16 S           4     2.0443446     2.1481365     1.9545188

           -------------------------------------------------
          |               Frequency Printout                |
           -------------------------------------------------
 projected vibrational frequencies (cm⁻¹)
eigval :       -0.00    -0.00     0.00     0.00     0.00     0.00
eigval :       43.20    47.52    47.73    51.36    63.43    58.04
eigval :       56.04    75.49    58.60    74.58    81.66    87.26
eigval :      100.10   106.60   118.19   124.18   155.84   152.79
eigval :      164.94   193.51   204.25   206.38   211.80   209.48
eigval :      216.01   240.32   243.56   270.31   284.95   300.87
eigval :      322.60   345.30   354.16   382.57   412.47   418.27
eigval :      418.78   473.65   473.35   622.10   630.10   670.22
eigval :      695.22   745.55   753.00   761.20   782.41   801.63
eigval :      820.70   825.00   828.22   828.26   914.66   920.84
eigval :      937.73   944.74  1031.53  1031.71  1049.98  1057.63
eigval :     1094.07  1094.30  1090.96  1098.02  1101.72  1131.21
eigval :     1131.97  1133.89  1136.50  1168.88  1236.63  1237.32
eigval :     1238.68  1241.08  1303.77  1304.78  1310.97  1316.06
eigval :     1343.22  1392.08  1392.28  1395.87  1400.18  1437.33
eigval :     1439.69  1449.33  1456.15  1456.44  1458.83  1460.34
eigval :     1464.01  1476.54  1479.86  1480.13  1482.54  2919.21
eigval :     2937.30  2937.77  2942.03  2944.95  2955.87  2971.56
eigval :     2972.37  2973.10  2979.17  3034.08  3037.16  3048.51
eigval :     3051.37  3051.71  3052.86  3054.08  3055.85  3058.32
eigval :     3060.73  3061.80  3062.86
 reduced masses (amu)
   1: 17.38   2: 22.32   3: 21.59   4: 21.14   5: 16.45   6: 20.10   7: 23.11   8: 21.77
   9: 15.93  10: 14.12  11: 22.20  12: 12.30  13: 12.70  14: 25.51  15: 11.56  16: 15.03
  17: 11.84  18: 13.03  19: 13.06  20: 13.54  21: 12.48  22: 12.58  23: 22.61  24: 18.31
  25: 19.26  26: 16.45  27: 15.69  28:  9.32  29: 11.37  30:  4.51  31:  5.10  32: 11.83
  33:  7.45  34: 13.39  35: 21.15  36: 19.06  37: 17.84  38: 17.79  39: 19.40  40: 18.48
  41: 27.45  42: 13.75  43: 13.68  44: 25.72  45: 14.60  46: 24.83  47: 25.10  48: 18.28
  49: 16.93  50: 21.06  51: 18.14  52: 20.73  53: 19.99  54:  5.98  55:  3.22  56:  3.21
  57:  2.37  58:  2.57  59: 13.76  60: 13.81  61: 11.50  62: 12.28  63:  8.26  64:  8.25
  65:  9.59  66:  9.72  67:  7.80  68:  7.68  69:  1.77  70:  7.72  71:  7.82  72:  5.24
  73:  5.28  74:  4.92  75:  5.26  76:  2.31  77:  2.42  78:  2.41  79:  2.25  80:  2.30
  81:  3.05  82:  3.04  83:  3.13  84:  3.19  85:  1.76  86:  3.16  87:  3.10  88:  3.07
  89:  3.11  90:  1.95  91:  1.95  92:  1.90  93:  1.50  94:  1.52  95:  1.89  96:  1.50
  97:  1.50  98:  1.57  99:  1.58 100:  1.58 101:  1.57 102:  1.84 103:  1.76 104:  1.76
 105:  1.76 106:  1.62 107:  1.57 108:  1.70 109:  1.72 110:  1.72 111:  1.96 112:  1.81
 113:  1.77 114:  1.59 115:  1.96 116:  1.59 117:  1.89 118:  1.25 119:  1.45 120:  1.96
 121:  1.77 122:  1.82 123:  1.83
 IR intensities (km·mol⁻¹)
   1:  1.06   2:  0.20   3:  0.28   4:  0.03   5:  0.98   6:  0.51   7:  3.00   8:  2.79
   9:  1.95  10:  0.80  11:  2.30  12:  2.85  13:  1.68  14:  2.50  15:  1.13  16:  1.75
  17:  1.57  18:  3.89  19:  3.97  20:  4.69  21:  3.22  22:  3.02  23: 14.24  24:  4.25
  25: 11.12  26: 23.07  27:  3.81  28:  7.39  29: 10.34  30:  1.09  31:  0.80  32: 11.16
  33: 10.85  34:  7.25  35:  4.64  36: 12.51  37: 21.41  38:  2.65  39:  0.17  40:  7.88
  41:177.70  42: 12.51  43: 27.99  44:128.98  45: 53.09  46:304.01  47: 34.94  48: 10.28
  49: 46.88  50:243.13  51:223.33  52:168.76  53:276.38  54:  6.15  55:  3.02  56:  0.73
  57:  8.40  58:  1.76  59:507.05  60:257.48  61:119.17  62:135.24  63:226.07  64: 81.60
  65: 94.63  66:135.42  67:  6.51  68: 18.66  69:  0.78  70:  6.82  71: 14.33  72: 22.09
  73: 40.20  74: 10.08  75: 20.10  76: 49.10  77:  5.17  78:  1.94  79:  3.33  80:  5.99
  81:  5.71  82:  5.44  83:  4.01  84:  4.07  85:  9.11  86: 16.97  87: 11.30  88: 11.79
  89: 14.04  90:  7.21  91:  1.54  92:  2.77  93:  7.22  94:  6.27  95:  1.16  96:  6.66
  97:  6.06  98:  4.59  99:  2.26 100:  7.80 101:  3.63 102: 27.20 103: 37.73 104: 30.10
 105:  7.14 106: 28.88 107: 13.72 108:  8.20 109:  9.78 110: 16.68 111: 18.21 112: 39.40
 113: 37.69 114: 22.23 115: 24.90 116: 25.72 117: 23.23 118:  9.64 119: 13.22 120: 17.82
 121: 12.82 122: 13.09 123: 11.67
 Raman intensities (Ä⁴*amu⁻¹)
   1:  0.00   2:  0.00   3:  0.00   4:  0.00   5:  0.00   6:  0.00   7:  0.00   8:  0.00
   9:  0.00  10:  0.00  11:  0.00  12:  0.00  13:  0.00  14:  0.00  15:  0.00  16:  0.00
  17:  0.00  18:  0.00  19:  0.00  20:  0.00  21:  0.00  22:  0.00  23:  0.00  24:  0.00
  25:  0.00  26:  0.00  27:  0.00  28:  0.00  29:  0.00  30:  0.00  31:  0.00  32:  0.00
  33:  0.00  34:  0.00  35:  0.00  36:  0.00  37:  0.00  38:  0.00  39:  0.00  40:  0.00
  41:  0.00  42:  0.00  43:  0.00  44:  0.00  45:  0.00  46:  0.00  47:  0.00  48:  0.00
  49:  0.00  50:  0.00  51:  0.00  52:  0.00  53:  0.00  54:  0.00  55:  0.00  56:  0.00
  57:  0.00  58:  0.00  59:  0.00  60:  0.00  61:  0.00  62:  0.00  63:  0.00  64:  0.00
  65:  0.00  66:  0.00  67:  0.00  68:  0.00  69:  0.00  70:  0.00  71:  0.00  72:  0.00
  73:  0.00  74:  0.00  75:  0.00  76:  0.00  77:  0.00  78:  0.00  79:  0.00  80:  0.00
  81:  0.00  82:  0.00  83:  0.00  84:  0.00  85:  0.00  86:  0.00  87:  0.00  88:  0.00
  89:  0.00  90:  0.00  91:  0.00  92:  0.00  93:  0.00  94:  0.00  95:  0.00  96:  0.00
  97:  0.00  98:  0.00  99:  0.00 100:  0.00 101:  0.00 102:  0.00 103:  0.00 104:  0.00
 105:  0.00 106:  0.00 107:  0.00 108:  0.00 109:  0.00 110:  0.00 111:  0.00 112:  0.00
 113:  0.00 114:  0.00 115:  0.00 116:  0.00 117:  0.00 118:  0.00 119:  0.00 120:  0.00
 121:  0.00 122:  0.00 123:  0.00
 output can be read by thermo (or use thermo option).
 writing <g98.out> molden fake output.
 recommended (thermochemical) frequency scaling factor: 1.0
           -------------------------------------------------
          |             Thermodynamic Functions             |
           -------------------------------------------------

Molecule has no symmetry elements
It seems to be the C1 point group
c1  symmetry found (for desy threshold:  0.10E+00) used in thermo

          ...................................................
          :                      SETUP                      :
          :.................................................:
          :  # frequencies                         117      :
          :  # imaginary freq.                       0      :
          :  linear?                             false      :
          :  only rotor calc.                    false      :
          :  symmetry                               c1      :
          :  rotational number                       1      :
          :  scaling factor                  1.0000000      :
          :  rotor cutoff                    0.0000000 cm⁻¹ :
          :  imag. cutoff                 -100.0000000 cm⁻¹ :
          :.................................................:

    mode    ω/cm⁻¹     T·S(HO)/kcal·mol⁻¹    T·S(FR)/kcal·mol⁻¹   T·S(vib)
   ------------------------------------------------------------------------
       1     43.20    -1.52250 (100.00%)    -1.09979 (  0.00%)    -1.52250
       2     47.52    -1.46629 (100.00%)    -1.07158 (  0.00%)    -1.46629
       3     47.73    -1.46365 (100.00%)    -1.07025 (  0.00%)    -1.46365
       4     51.36    -1.42048 (100.00%)    -1.04857 (  0.00%)    -1.42048
       5     63.43    -1.29619 (100.00%)    -0.98603 (  0.00%)    -1.29619
       6     58.04    -1.34841 (100.00%)    -1.01232 (  0.00%)    -1.34841
       7     56.04    -1.36914 (100.00%)    -1.02276 (  0.00%)    -1.36914
       8     75.49    -1.19401 (100.00%)    -0.93447 (  0.00%)    -1.19401
       9     58.60    -1.34278 (100.00%)    -1.00949 (  0.00%)    -1.34278
      10     74.58    -1.20116 (100.00%)    -0.93808 (  0.00%)    -1.20116
      11     81.66    -1.14803 (100.00%)    -0.91120 (  0.00%)    -1.14803
      12     87.26    -1.10930 (100.00%)    -0.89157 (  0.00%)    -1.10930
      13    100.10    -1.02933 (100.00%)    -0.85090 (  0.00%)    -1.02933
      14    106.60    -0.99278 (100.00%)    -0.83225 (  0.00%)    -0.99278
      15    118.19    -0.93315 (100.00%)    -0.80170 (  0.00%)    -0.93315
      16    124.18    -0.90469 (100.00%)    -0.78705 (  0.00%)    -0.90469
      17    155.84    -0.77509 (100.00%)    -0.71977 (  0.00%)    -0.77509
      18    152.79    -0.78627 (100.00%)    -0.72562 (  0.00%)    -0.78627
      19    164.94    -0.74309 (100.00%)    -0.70295 (  0.00%)    -0.74309
      20    193.51    -0.65412 (100.00%)    -0.65563 (  0.00%)    -0.65412
      21    204.25    -0.62446 (100.00%)    -0.63963 (  0.00%)    -0.62446
      22    206.38    -0.61880 (100.00%)    -0.63656 (  0.00%)    -0.61880
      23    211.80    -0.60468 (100.00%)    -0.62888 (  0.00%)    -0.60468
      24    209.48    -0.61066 (100.00%)    -0.63214 (  0.00%)    -0.61066
      25    216.01    -0.59400 (100.00%)    -0.62305 (  0.00%)    -0.59400
      26    240.32    -0.53682 (100.00%)    -0.59146 (  0.00%)    -0.53682
      27    243.56    -0.52973 (100.00%)    -0.58749 (  0.00%)    -0.52973
      28    270.31    -0.47533 (100.00%)    -0.55663 (  0.00%)    -0.47533
      29    284.95    -0.44836 (100.00%)    -0.54100 (  0.00%)    -0.44836
   ------------------------------------------------------------------------

   temp. (K)  partition function   enthalpy   heat capacity  entropy
                                   cal/mol     cal/K/mol   cal/K/mol   J/K/mol
 298.15  VIB  0.189E+13            15627.118     88.303    108.592
         ROT  0.103E+08              888.752      2.981     35.077
         INT  0.196E+20            16515.871     91.284    143.669
         TR   0.729E+28             1481.254      4.968     43.712
         TOT                       17997.1247    96.2524   187.3818   784.0055

       T/K    H(0)-H(T)+PV         H(T)/Eh          T*S/Eh         G(T)/Eh
   ------------------------------------------------------------------------
    298.15    0.286802E-01    0.341930E+00    0.890311E-01    0.252899E+00
   ------------------------------------------------------------------------

         :::::::::::::::::::::::::::::::::::::::::::::::::::::
         ::                  THERMODYNAMIC                  ::
         :::::::::::::::::::::::::::::::::::::::::::::::::::::
         :: total free energy         -64.786473487420 Eh   ::
         ::.................................................::
         :: total energy              -65.039372665284 Eh   ::
         :: zero point energy           0.313250076526 Eh   ::
         :: G(RRHO) w/o ZPVE           -0.060350898661 Eh   ::
         :: G(RRHO) contrib.            0.252899177864 Eh   ::
         :::::::::::::::::::::::::::::::::::::::::::::::::::::

optimized geometry written to: xtbopt.coord


           -------------------------------------------------
          | TOTAL ENERGY              -65.039372665284 Eh   |
          | TOTAL ENTHALPY            -64.697442345033 Eh   |
          | TOTAL FREE ENERGY         -64.786473487420 Eh   |
          | GRADIENT NORM               0.000053354762 Eh/α |
          | HOMO-LUMO GAP               3.103258455345 eV   |
           -------------------------------------------------

------------------------------------------------------------------------
 * finished run on 2025/04/09 at 13:59:48.438     
------------------------------------------------------------------------
 total:
 * wall-time:     0 d,  0 h,  0 min, 17.496 sec
 *  cpu-time:     0 d,  0 h,  0 min, 17.277 sec
 * ratio c/w:     0.987 speedup
 SCF:
 * wall-time:     0 d,  0 h,  0 min,  0.073 sec
 *  cpu-time:     0 d,  0 h,  0 min,  0.051 sec
 * ratio c/w:     0.702 speedup
 analytical hessian:
 * wall-time:     0 d,  0 h,  0 min,  9.599 sec
 *  cpu-time:     0 d,  0 h,  0 min,  9.558 sec
 * ratio c/w:     0.996 speedup

