 Entering Gaussian System
 *********************************************
 Gaussian 98:
 frequency output generated by the xtb code
 *********************************************
                         Standard orientation:
 --------------------------------------------------------------------
  Center     Atomic     Atomic              Coordinates (Angstroms)
  Number     Number      Type              X           Y           Z
 --------------------------------------------------------------------
    1          6             0        2.395898   -2.306746    2.467023
    2          6             0        1.495052   -1.794820    1.360136
    3          8             0        1.859833   -0.437665    1.058273
    4         15             0        2.351360    0.085409   -0.363025
    5         16             0        2.980012   -1.282554   -1.608996
    6          8             0        3.480610    1.120766    0.014308
    7          6             0        3.516042    1.937662    1.210734
    8          6             0        2.628456    3.158606    1.088722
    9         16             0        0.762508    1.310024   -1.098817
   10          6             0       -0.052407    0.084707   -2.146272
   11         16             0       -0.824903   -1.272923   -1.216546
   12         15             0       -2.160827   -0.090856   -0.090982
   13         16             0       -2.969410    1.477677   -0.952909
   14          8             0       -1.246726    0.191125    1.172331
   15          6             0       -1.607228    1.183059    2.162874
   16          6             0       -0.486014    1.240545    3.179077
   17          8             0       -3.209478   -1.120290    0.520020
   18          6             0       -4.479095   -1.408640   -0.091539
   19          6             0       -4.332280   -2.231411   -1.355157
   20          1             0        2.323598   -1.662685    3.339076
   21          1             0        2.092015   -3.312714    2.737031
   22          1             0        3.428443   -2.326427    2.125606
   23          1             0        0.446739   -1.773977    1.666530
   24          1             0        1.597043   -2.405323    0.456696
   25          1             0        3.227124    1.319780    2.063061
   26          1             0        4.567435    2.216999    1.294763
   27          1             0        2.744602    3.772187    1.976927
   28          1             0        2.903989    3.739183    0.212534
   29          1             0        1.584436    2.866407    0.990522
   30          1             0        0.678820   -0.380736   -2.807250
   31          1             0       -0.813993    0.623381   -2.708525
   32          1             0       -1.744368    2.141900    1.652385
   33          1             0       -2.553406    0.886714    2.623303
   34          1             0        0.451659    1.474877    2.682814
   35          1             0       -0.707204    2.009167    3.912294
   36          1             0       -0.387053    0.281506    3.679388
   37          1             0       -5.023524   -1.953602    0.681052
   38          1             0       -4.982933   -0.460626   -0.305728
   39          1             0       -3.750107   -3.128161   -1.159391
   40          1             0       -5.317498   -2.512630   -1.714071
   41          1             0       -3.829363   -1.647892   -2.125125
 --------------------------------------------------------------------
     1 basis functions        1 primitive gaussians
     1 alpha electrons        1 beta electrons
 
 Harmonic frequencies (cm**-1), IR intensities (km*mol⁻¹),
 Raman scattering activities (A**4/amu), Raman depolarization ratios,
 reduced masses (AMU), force constants (mDyne/A) and normal coordinates:
                      1                      2                      3
                        a                      a                      a 
 Frequencies --    43.5913                46.8775                52.0655
 Red. masses --    20.7185                20.5005                19.4682
 Frc consts  --     0.0000                 0.0000                 0.0000
 IR Inten    --     0.0903                 5.0683                 4.2611
 Raman Activ --     0.0000                 0.0000                 0.0000
 Depolar     --     0.0000                 0.0000                 0.0000
 Atom AN      X      Y      Z        X      Y      Z        X      Y      Z
   1   6     0.06   0.13  -0.06     0.05  -0.00  -0.10    -0.03  -0.19  -0.16
   2   6    -0.13  -0.01   0.02     0.01  -0.05  -0.09    -0.00  -0.13  -0.15
   3   8    -0.43   0.05  -0.06    -0.11  -0.02  -0.09     0.01  -0.13  -0.08
   4  15    -0.23  -0.04   0.00    -0.04   0.02  -0.07     0.11  -0.03  -0.03
   5  16    -0.21  -0.19   0.17     0.29   0.09   0.02     0.26   0.15  -0.15
   6   8    -0.09  -0.13   0.10    -0.15   0.12   0.04     0.04  -0.03   0.12
   7   6    -0.10  -0.11   0.08    -0.24   0.07   0.06    -0.03  -0.09   0.15
   8   6    -0.07  -0.09   0.06    -0.31   0.02   0.05    -0.02  -0.08   0.17
   9  16     0.11   0.19  -0.30    -0.07  -0.17  -0.29     0.14   0.01  -0.02
  10   6     0.00   0.11  -0.13    -0.01  -0.23  -0.06     0.02  -0.00   0.04
  11  16     0.17   0.16  -0.13    -0.03  -0.20   0.15     0.02   0.05   0.13
  12  15     0.17   0.05  -0.01     0.10   0.03   0.06    -0.07   0.09  -0.03
  13  16    -0.03  -0.01   0.06     0.38   0.13  -0.03    -0.29  -0.17  -0.32
  14   8     0.17   0.10  -0.06     0.07  -0.04   0.06    -0.00   0.28  -0.11
  15   6     0.06  -0.02   0.02     0.02  -0.08   0.09    -0.08   0.17  -0.05
  16   6     0.01  -0.05   0.08    -0.01  -0.12   0.13    -0.14   0.11   0.02
  17   8     0.22  -0.03   0.04    -0.05   0.16   0.06     0.04   0.07   0.15
  18   6     0.17  -0.08   0.10    -0.04   0.18   0.02     0.01  -0.03   0.23
  19   6     0.14  -0.08   0.10    -0.06   0.16   0.04    -0.03  -0.06   0.25
  20   1     0.02   0.04  -0.02     0.01  -0.00  -0.03    -0.01  -0.06  -0.04
  21   1     0.06   0.03  -0.00     0.03  -0.01  -0.03    -0.01  -0.06  -0.06
  22   1     0.01   0.07  -0.05     0.01   0.02  -0.03    -0.01  -0.05  -0.04
  23   1    -0.03  -0.04   0.04     0.00  -0.03  -0.02    -0.00  -0.04  -0.05
  24   1    -0.04  -0.00   0.01     0.01  -0.01  -0.03     0.00  -0.02  -0.05
  25   1    -0.04  -0.03   0.02    -0.07   0.01   0.01    -0.02  -0.04   0.03
  26   1    -0.03  -0.04   0.03    -0.08   0.04   0.03    -0.01  -0.03   0.07
  27   1    -0.02  -0.02   0.02    -0.11   0.00   0.02    -0.02  -0.03   0.06
  28   1    -0.01  -0.03   0.02    -0.09   0.02   0.02     0.01  -0.01   0.06
  29   1    -0.02  -0.02   0.01    -0.08  -0.01  -0.00    -0.00  -0.02   0.03
  30   1    -0.01   0.04  -0.06    -0.00  -0.08   0.00    -0.00  -0.01   0.01
  31   1    -0.01   0.03  -0.02    -0.00  -0.08  -0.04     0.01   0.00   0.01
  32   1     0.01   0.01   0.03     0.01  -0.02   0.04    -0.02   0.06  -0.00
  33   1     0.01  -0.03  -0.01     0.00  -0.03   0.01    -0.03   0.04  -0.04
  34   1     0.01   0.00   0.04     0.00  -0.03   0.05    -0.03   0.04   0.02
  35   1    -0.01  -0.03   0.03    -0.01  -0.04   0.04    -0.05   0.02   0.02
  36   1     0.00  -0.02   0.01    -0.01  -0.04   0.03    -0.05   0.02  -0.01
  37   1     0.07  -0.03   0.04    -0.02   0.06   0.01     0.02  -0.01   0.08
  38   1     0.04  -0.03   0.04     0.00   0.06   0.00    -0.01  -0.02   0.06
  39   1     0.05  -0.02   0.02    -0.03   0.04   0.02     0.00  -0.01   0.07
  40   1     0.04  -0.03   0.04    -0.02   0.05   0.01    -0.01  -0.03   0.09
  41   1     0.03  -0.02   0.02    -0.01   0.04   0.01    -0.02  -0.02   0.06
                      4                      5                      6
                        a                      a                      a 
 Frequencies --    57.2642                50.1984                62.7036
 Red. masses --    16.9323                11.7830                16.4713
 Frc consts  --     0.0000                 0.0000                 0.0000
 IR Inten    --     0.3483                 0.8815                 0.9562
 Raman Activ --     0.0000                 0.0000                 0.0000
 Depolar     --     0.0000                 0.0000                 0.0000
 Atom AN      X      Y      Z        X      Y      Z        X      Y      Z
   1   6     0.18   0.11  -0.04    -0.27   0.17   0.24    -0.53  -0.03   0.18
   2   6     0.09   0.02  -0.01    -0.04   0.18   0.05    -0.18  -0.04  -0.10
   3   8    -0.03   0.03  -0.10     0.22   0.13   0.01     0.03  -0.09  -0.07
   4  15     0.02  -0.02  -0.15     0.13   0.05  -0.09    -0.08   0.00  -0.09
   5  16    -0.11  -0.09  -0.14     0.04  -0.07  -0.01    -0.11   0.18  -0.30
   6   8     0.07  -0.06  -0.13     0.09   0.08  -0.17    -0.06  -0.02  -0.01
   7   6     0.11  -0.10  -0.08     0.16  -0.00  -0.10    -0.07  -0.05   0.01
   8   6     0.05  -0.14   0.05    -0.09  -0.16   0.16    -0.02  -0.01  -0.00
   9  16     0.09   0.06  -0.12     0.08  -0.01  -0.12    -0.10   0.04   0.03
  10   6    -0.04  -0.02   0.07     0.03   0.00  -0.07    -0.02   0.00   0.02
  11  16     0.14   0.04   0.39    -0.04   0.03  -0.13     0.18  -0.05   0.11
  12  15    -0.07   0.05   0.13     0.01   0.03  -0.07     0.17  -0.06   0.11
  13  16     0.07   0.02  -0.06    -0.09   0.01  -0.03     0.23  -0.06   0.06
  14   8    -0.19   0.06   0.19     0.07   0.04  -0.10     0.06  -0.02   0.12
  15   6    -0.26   0.01   0.17    -0.05  -0.14   0.05     0.04   0.10  -0.01
  16   6    -0.29   0.06   0.19    -0.18  -0.35   0.21     0.02   0.19   0.01
  17   8    -0.12   0.04  -0.02     0.05   0.02   0.03     0.10  -0.04   0.04
  18   6     0.00  -0.04  -0.19    -0.00   0.03   0.11     0.12  -0.04  -0.02
  19   6     0.21  -0.03  -0.18    -0.09  -0.01   0.13     0.17  -0.03  -0.02
  20   1     0.05   0.04  -0.02    -0.10   0.07   0.05    -0.21   0.01   0.03
  21   1     0.08   0.03   0.00    -0.12   0.06   0.07    -0.20   0.00   0.05
  22   1     0.05   0.05  -0.03    -0.06   0.01   0.12    -0.13  -0.04   0.14
  23   1     0.03  -0.01   0.02    -0.02   0.09  -0.03    -0.08   0.01  -0.11
  24   1     0.02  -0.00   0.00     0.01   0.03   0.03     0.01  -0.02  -0.01
  25   1     0.06  -0.04  -0.02     0.12  -0.03  -0.03    -0.03  -0.02  -0.00
  26   1     0.03  -0.02  -0.04     0.04   0.05  -0.08    -0.02  -0.02   0.02
  27   1     0.03  -0.05   0.02    -0.01  -0.06   0.05    -0.01  -0.01   0.00
  28   1    -0.01  -0.02   0.02    -0.10  -0.01   0.05     0.01  -0.00   0.01
  29   1     0.02  -0.05   0.03    -0.01  -0.10   0.09    -0.01   0.01  -0.01
  30   1    -0.03  -0.01   0.01     0.00  -0.01  -0.02    -0.00   0.01  -0.00
  31   1    -0.03  -0.02   0.04     0.01   0.01  -0.02    -0.02  -0.01   0.01
  32   1    -0.09   0.00   0.05     0.01  -0.01   0.06     0.02   0.01  -0.03
  33   1    -0.07  -0.02   0.04    -0.03  -0.06  -0.04     0.01   0.04  -0.00
  34   1    -0.08   0.03   0.06    -0.03  -0.10   0.10     0.01   0.05   0.00
  35   1    -0.10   0.01   0.06    -0.06  -0.12   0.08    -0.00   0.07  -0.02
  36   1    -0.07   0.01   0.05    -0.09  -0.12   0.03     0.00   0.07   0.03
  37   1    -0.02  -0.02  -0.08     0.01   0.02   0.05     0.02  -0.01  -0.02
  38   1    -0.01  -0.02  -0.07    -0.00   0.01   0.03     0.04  -0.01  -0.01
  39   1     0.07   0.00  -0.03    -0.03  -0.01   0.04     0.05  -0.01  -0.00
  40   1     0.08  -0.03  -0.08    -0.03   0.00   0.05     0.05  -0.01  -0.02
  41   1     0.07   0.00  -0.03    -0.03  -0.01   0.03     0.06  -0.01  -0.00
                      7                      8                      9
                        a                      a                      a 
 Frequencies --    74.8959                69.4639                70.6615
 Red. masses --    25.1364                16.3172                12.3675
 Frc consts  --     0.0000                 0.0000                 0.0000
 IR Inten    --     5.2897                 2.4925                 2.8317
 Raman Activ --     0.0000                 0.0000                 0.0000
 Depolar     --     0.0000                 0.0000                 0.0000
 Atom AN      X      Y      Z        X      Y      Z        X      Y      Z
   1   6    -0.18  -0.03   0.00     0.08  -0.09   0.01     0.08   0.28   0.20
   2   6    -0.07  -0.02  -0.08     0.07  -0.07   0.03     0.13  -0.01   0.04
   3   8    -0.01  -0.04  -0.07     0.09  -0.08   0.06    -0.08   0.02  -0.09
   4  15     0.17  -0.08  -0.05    -0.04  -0.04   0.05    -0.02   0.01  -0.09
   5  16     0.39  -0.10   0.09    -0.14   0.02  -0.06     0.12   0.06  -0.07
   6   8     0.07  -0.04   0.06    -0.03  -0.01  -0.01    -0.06   0.05  -0.01
   7   6    -0.09   0.06  -0.01    -0.04   0.02  -0.03     0.04  -0.19   0.14
   8   6    -0.08   0.06  -0.21    -0.11  -0.03  -0.02     0.05  -0.16   0.40
   9  16     0.26  -0.06  -0.20    -0.13  -0.06   0.19    -0.06  -0.08  -0.13
  10   6     0.02  -0.00  -0.06    -0.00   0.01   0.01    -0.05  -0.09  -0.03
  11  16    -0.16   0.15  -0.05    -0.18   0.04  -0.10    -0.19  -0.06  -0.00
  12  15    -0.12   0.09   0.08    -0.01   0.19  -0.07    -0.12   0.01   0.01
  13  16    -0.24   0.22   0.43     0.19   0.28  -0.12    -0.13   0.05   0.10
  14   8    -0.08  -0.01   0.07     0.02   0.06  -0.05    -0.05  -0.03  -0.01
  15   6    -0.07  -0.02   0.07     0.04   0.02  -0.00     0.19   0.16  -0.12
  16   6    -0.00   0.08  -0.01     0.02  -0.11   0.04     0.24   0.05  -0.16
  17   8    -0.03  -0.05  -0.03    -0.06   0.24   0.01    -0.09   0.01   0.01
  18   6     0.02  -0.13  -0.08     0.06  -0.06  -0.09    -0.02  -0.06  -0.07
  19   6     0.12  -0.16  -0.05     0.29  -0.47   0.20     0.10  -0.03  -0.08
  20   1    -0.07  -0.00  -0.00     0.03  -0.03   0.01    -0.03   0.11   0.03
  21   1    -0.07  -0.01  -0.00     0.02  -0.03  -0.00     0.06   0.08   0.09
  22   1    -0.04  -0.02   0.03     0.02  -0.03   0.00     0.04   0.11   0.09
  23   1    -0.03   0.00  -0.05     0.02  -0.02   0.01     0.03  -0.04  -0.02
  24   1    -0.00  -0.01  -0.02     0.01  -0.01   0.00     0.10  -0.03   0.03
  25   1    -0.06   0.04   0.00     0.01   0.01  -0.00     0.02  -0.10   0.01
  26   1    -0.03   0.02   0.03    -0.01   0.03  -0.02     0.01  -0.06   0.04
  27   1    -0.04   0.04  -0.08    -0.03  -0.00  -0.01     0.01  -0.10   0.16
  28   1    -0.00  -0.01  -0.07    -0.05  -0.01  -0.01     0.02   0.01   0.16
  29   1    -0.02   0.02  -0.07    -0.03  -0.03   0.01     0.02  -0.04   0.09
  30   1    -0.01  -0.03  -0.01     0.01   0.00   0.02    -0.01  -0.04   0.00
  31   1     0.02   0.02  -0.02     0.02   0.01  -0.01    -0.00  -0.03  -0.02
  32   1    -0.05  -0.01   0.02     0.03   0.02   0.01     0.11   0.04  -0.06
  33   1    -0.00  -0.02   0.04     0.00   0.01  -0.01     0.04   0.12  -0.01
  34   1    -0.02   0.04  -0.02     0.01  -0.04   0.02     0.08  -0.05  -0.06
  35   1    -0.00   0.02  -0.00     0.01  -0.04   0.02     0.12   0.05  -0.07
  36   1     0.03   0.03  -0.00    -0.02  -0.04  -0.00     0.02   0.02  -0.02
  37   1     0.00  -0.04  -0.03    -0.01   0.05   0.00    -0.01  -0.03  -0.03
  38   1    -0.01  -0.05  -0.04     0.01  -0.04  -0.13    -0.02  -0.02  -0.03
  39   1     0.05  -0.03  -0.00     0.10  -0.10   0.17     0.04   0.00  -0.02
  40   1     0.04  -0.07  -0.02     0.10  -0.20   0.05     0.04  -0.03  -0.04
  41   1     0.03  -0.04  -0.02     0.10  -0.20   0.02     0.03   0.00  -0.01
                     10                     11                     12
                        a                      a                      a 
 Frequencies --    68.9256                82.4771                81.4483
 Red. masses --    11.6610                13.1575                12.5387
 Frc consts  --     0.0000                 0.0000                 0.0000
 IR Inten    --     2.7582                 0.5690                 3.0068
 Raman Activ --     0.0000                 0.0000                 0.0000
 Depolar     --     0.0000                 0.0000                 0.0000
 Atom AN      X      Y      Z        X      Y      Z        X      Y      Z
   1   6     0.01   0.18   0.11    -0.19  -0.16  -0.33     0.09  -0.10  -0.15
   2   6     0.04  -0.04  -0.02    -0.28   0.21  -0.08    -0.01   0.07   0.01
   3   8    -0.16  -0.01  -0.10    -0.03   0.20   0.03     0.12   0.05   0.04
   4  15    -0.00   0.02  -0.05    -0.01   0.16   0.01     0.05   0.01  -0.00
   5  16     0.09   0.12  -0.11     0.02  -0.03   0.23    -0.06  -0.08   0.04
   6   8     0.03  -0.06   0.09    -0.00   0.13  -0.06     0.03   0.04  -0.07
   7   6     0.01  -0.09   0.10     0.18  -0.00   0.02     0.04  -0.01  -0.03
   8   6     0.23   0.06  -0.00     0.25   0.07   0.19    -0.28  -0.22   0.20
   9  16     0.08   0.11  -0.04    -0.02   0.04  -0.20     0.02  -0.01   0.01
  10   6     0.02   0.07  -0.00    -0.02  -0.09   0.00     0.03   0.03  -0.05
  11  16     0.10   0.04  -0.03    -0.00  -0.07   0.15     0.05   0.00  -0.14
  12  15    -0.00  -0.07  -0.03    -0.06  -0.04   0.04     0.10  -0.08   0.01
  13  16     0.20   0.05  -0.01     0.06  -0.03  -0.07     0.15   0.08   0.27
  14   8    -0.07  -0.15   0.05    -0.07  -0.06   0.05    -0.01  -0.08   0.08
  15   6    -0.13  -0.18   0.07     0.07  -0.01   0.05    -0.06   0.17  -0.18
  16   6    -0.03   0.05  -0.06     0.16  -0.06  -0.05    -0.19   0.36  -0.06
  17   8    -0.08  -0.03  -0.13    -0.09   0.01   0.00     0.07  -0.13  -0.11
  18   6    -0.15   0.12  -0.01    -0.04  -0.04  -0.06    -0.01   0.03  -0.00
  19   6    -0.36  -0.30   0.24     0.05  -0.19   0.04    -0.20  -0.11   0.07
  20   1    -0.05   0.07   0.01     0.03  -0.08  -0.06     0.08  -0.04  -0.03
  21   1     0.03   0.05   0.05    -0.11  -0.04  -0.13     0.00  -0.03  -0.05
  22   1     0.01   0.08   0.06    -0.07  -0.10  -0.15     0.01  -0.06  -0.09
  23   1     0.00  -0.05  -0.03    -0.06   0.12   0.03     0.01   0.05   0.05
  24   1     0.06  -0.03   0.01    -0.17   0.09  -0.05    -0.06   0.03  -0.01
  25   1    -0.06  -0.02   0.01     0.06  -0.02  -0.00     0.10  -0.04  -0.00
  26   1     0.01  -0.08   0.07     0.06  -0.02  -0.02    -0.00   0.07  -0.06
  27   1     0.06   0.01   0.00     0.08  -0.02   0.08    -0.09  -0.07   0.07
  28   1     0.12   0.00   0.01     0.08   0.05   0.08    -0.16  -0.03   0.06
  29   1     0.06   0.07  -0.04     0.07   0.04   0.05    -0.06  -0.13   0.10
  30   1    -0.00   0.02  -0.01    -0.01  -0.04   0.01     0.01   0.01  -0.02
  31   1    -0.00   0.02   0.01    -0.01  -0.04  -0.01     0.01   0.01  -0.01
  32   1    -0.10  -0.06   0.02     0.02  -0.00   0.01     0.01   0.02  -0.12
  33   1    -0.01  -0.10   0.05     0.03   0.01   0.04    -0.04   0.09  -0.07
  34   1    -0.04   0.06  -0.05     0.04  -0.04  -0.04    -0.03   0.06   0.00
  35   1    -0.03   0.00  -0.01     0.08  -0.01  -0.01    -0.07   0.15  -0.08
  36   1     0.06   0.02  -0.02     0.04  -0.01  -0.01    -0.08   0.14   0.05
  37   1    -0.08   0.14   0.04    -0.03   0.01  -0.01    -0.02   0.05   0.02
  38   1     0.02   0.05  -0.08    -0.00  -0.02  -0.06     0.03   0.02  -0.02
  39   1    -0.17  -0.11   0.15     0.01  -0.05   0.05    -0.10  -0.05   0.04
  40   1    -0.12  -0.05   0.09     0.02  -0.07   0.00    -0.08   0.00   0.04
  41   1    -0.06  -0.19   0.02     0.03  -0.08   0.00    -0.04  -0.08  -0.00
                     13                     14                     15
                        a                      a                      a 
 Frequencies --    91.1805                87.1691               137.1474
 Red. masses --    14.3357                 8.8614                18.0656
 Frc consts  --     0.0000                 0.0000                 0.0000
 IR Inten    --     2.8807                 1.5664                 6.1307
 Raman Activ --     0.0000                 0.0000                 0.0000
 Depolar     --     0.0000                 0.0000                 0.0000
 Atom AN      X      Y      Z        X      Y      Z        X      Y      Z
   1   6     0.04  -0.02  -0.00     0.04   0.02  -0.04    -0.03   0.15  -0.07
   2   6     0.03   0.00   0.01    -0.01  -0.03  -0.02    -0.13   0.08  -0.01
   3   8     0.05   0.00   0.03    -0.12  -0.00  -0.03    -0.23   0.09  -0.08
   4  15    -0.05   0.00   0.00    -0.04   0.01  -0.00     0.06   0.02  -0.02
   5  16     0.03   0.01   0.03     0.09   0.08  -0.01     0.20   0.08  -0.00
   6   8    -0.10   0.09  -0.05    -0.02  -0.02   0.03     0.18  -0.17   0.07
   7   6     0.06  -0.07   0.05     0.05   0.00   0.00     0.11  -0.02  -0.03
   8   6     0.31   0.12   0.14     0.27   0.16  -0.12    -0.05  -0.15  -0.10
   9  16    -0.18  -0.17  -0.03    -0.07  -0.03  -0.00     0.03   0.09   0.17
  10   6    -0.00  -0.11  -0.10     0.00  -0.05  -0.01    -0.06   0.12   0.08
  11  16    -0.23  -0.12  -0.26    -0.04  -0.08  -0.04    -0.21   0.02  -0.17
  12  15     0.09   0.02  -0.04     0.03  -0.05   0.02    -0.12  -0.11   0.05
  13  16     0.07   0.10   0.11     0.03   0.04   0.18     0.37   0.02  -0.17
  14   8     0.13   0.04  -0.07    -0.01  -0.02   0.03    -0.08  -0.15   0.05
  15   6    -0.24  -0.17   0.02     0.10   0.29  -0.24    -0.02  -0.02  -0.05
  16   6    -0.26   0.23   0.00    -0.32  -0.20   0.24    -0.03   0.02  -0.05
  17   8     0.10   0.06   0.10     0.03  -0.06  -0.02    -0.12   0.03   0.17
  18   6     0.10  -0.05   0.11     0.01  -0.01  -0.02    -0.07  -0.25   0.21
  19   6     0.16   0.10   0.02    -0.03  -0.05   0.00     0.07   0.07   0.02
  20   1     0.02  -0.01   0.00     0.00   0.01  -0.01     0.01   0.05  -0.03
  21   1     0.01  -0.00  -0.00     0.03   0.00  -0.01     0.01   0.04  -0.00
  22   1     0.01  -0.01  -0.00     0.01   0.02  -0.02    -0.02   0.05  -0.05
  23   1     0.01   0.00   0.01    -0.00  -0.03  -0.00    -0.03   0.02   0.02
  24   1     0.00   0.00   0.00     0.00  -0.01  -0.01    -0.06   0.02  -0.00
  25   1    -0.03  -0.03  -0.01    -0.04   0.02   0.00     0.07   0.01   0.01
  26   1     0.03  -0.08   0.03     0.03  -0.05   0.02     0.02   0.03  -0.03
  27   1     0.09  -0.01   0.07     0.10   0.06  -0.05    -0.01  -0.00  -0.06
  28   1     0.15   0.06   0.08     0.12   0.01  -0.04    -0.07  -0.07  -0.06
  29   1     0.08   0.09  -0.01     0.06   0.10  -0.03    -0.01  -0.09   0.02
  30   1     0.02  -0.04  -0.00     0.01  -0.01   0.01    -0.03   0.04   0.01
  31   1     0.02  -0.03  -0.06     0.01  -0.02  -0.01    -0.01   0.05   0.04
  32   1    -0.18  -0.06   0.02     0.24   0.09  -0.12     0.01  -0.02  -0.04
  33   1    -0.03  -0.17   0.00    -0.08   0.25  -0.18    -0.01   0.02  -0.01
  34   1    -0.10   0.19   0.00     0.00  -0.21   0.18    -0.00  -0.03  -0.02
  35   1    -0.16   0.03   0.02    -0.07  -0.01   0.02     0.01   0.04  -0.04
  36   1     0.04   0.07  -0.02    -0.30  -0.06   0.10    -0.03   0.02   0.02
  37   1     0.06  -0.06   0.02    -0.01   0.01  -0.00     0.06  -0.17   0.05
  38   1    -0.01  -0.03   0.06     0.02   0.00  -0.01    -0.11  -0.10   0.13
  39   1     0.09   0.05  -0.03    -0.02  -0.02   0.01     0.11   0.06  -0.07
  40   1     0.05  -0.00   0.01    -0.01  -0.00   0.00     0.04  -0.05   0.02
  41   1     0.01   0.07   0.02    -0.00  -0.03  -0.00    -0.06   0.12   0.03
                     16                     17                     18
                        a                      a                      a 
 Frequencies --   146.6736               148.1042               151.5638
 Red. masses --    18.0913                18.4879                15.6962
 Frc consts  --     0.0000                 0.0000                 0.0000
 IR Inten    --     6.4879                 6.1875                 2.6199
 Raman Activ --     0.0000                 0.0000                 0.0000
 Depolar     --     0.0000                 0.0000                 0.0000
 Atom AN      X      Y      Z        X      Y      Z        X      Y      Z
   1   6    -0.06  -0.07   0.03     0.02  -0.06   0.04    -0.05  -0.06   0.02
   2   6     0.23  -0.17  -0.25     0.06   0.04   0.05     0.08  -0.17  -0.13
   3   8     0.09  -0.10  -0.07     0.22  -0.00   0.06    -0.18  -0.06   0.03
   4  15    -0.04  -0.00  -0.11     0.12   0.03   0.03    -0.17   0.05   0.12
   5  16     0.09  -0.36   0.34    -0.37  -0.05  -0.15     0.03   0.16   0.12
   6   8    -0.17   0.20  -0.19     0.00   0.10   0.09    -0.01  -0.07  -0.02
   7   6    -0.05   0.06  -0.08    -0.19  -0.00   0.16     0.28   0.10  -0.15
   8   6     0.03   0.14   0.12     0.00   0.13   0.04     0.03  -0.07  -0.01
   9  16    -0.03   0.12   0.06     0.25  -0.01  -0.23    -0.14   0.01  -0.02
  10   6    -0.15   0.20  -0.01     0.05  -0.06  -0.01     0.12  -0.16   0.02
  11  16     0.01   0.17  -0.07     0.06   0.02   0.12     0.17  -0.09   0.24
  12  15    -0.03  -0.02   0.08    -0.12   0.01  -0.08    -0.02   0.10  -0.17
  13  16     0.17  -0.05  -0.15     0.20   0.23   0.01    -0.02   0.28   0.11
  14   8    -0.08  -0.03   0.10    -0.11  -0.02  -0.04    -0.03   0.10  -0.12
  15   6     0.00   0.07   0.02    -0.02   0.03  -0.07    -0.05  -0.02  -0.03
  16   6    -0.00   0.02   0.03    -0.01  -0.08  -0.07     0.02  -0.02  -0.10
  17   8    -0.02  -0.04   0.02    -0.02  -0.05  -0.03     0.08  -0.03  -0.14
  18   6    -0.02  -0.08   0.05    -0.06  -0.31   0.19     0.01  -0.18   0.09
  19   6    -0.04  -0.01   0.01    -0.12  -0.02  -0.01    -0.13  -0.03  -0.02
  20   1    -0.15  -0.04   0.02     0.03  -0.02   0.01    -0.12  -0.05   0.02
  21   1     0.01  -0.04  -0.05    -0.02  -0.01   0.01     0.04  -0.05  -0.05
  22   1     0.02   0.05   0.12     0.01  -0.05   0.01     0.01   0.07   0.08
  23   1     0.03  -0.12  -0.17     0.02   0.04   0.02     0.00  -0.12  -0.10
  24   1     0.19  -0.03  -0.07    -0.00   0.01   0.01     0.12  -0.02  -0.05
  25   1    -0.01  -0.00  -0.04    -0.14  -0.01   0.01     0.20   0.05   0.01
  26   1    -0.01  -0.00  -0.03    -0.05  -0.04   0.13     0.08   0.08  -0.17
  27   1     0.03  -0.00   0.06    -0.04   0.01   0.04     0.06   0.02  -0.04
  28   1     0.01   0.07   0.06     0.09   0.05   0.05    -0.11  -0.04  -0.05
  29   1     0.00   0.07   0.03    -0.00   0.08  -0.07     0.01  -0.08   0.12
  30   1    -0.07   0.08  -0.05     0.00  -0.04  -0.00     0.07  -0.06   0.05
  31   1    -0.07   0.08   0.04     0.01  -0.02  -0.00     0.04  -0.08  -0.04
  32   1     0.03   0.01  -0.01     0.02   0.01  -0.02    -0.04   0.00   0.02
  33   1    -0.01   0.05   0.01    -0.01   0.03  -0.02     0.00  -0.04   0.00
  34   1     0.01  -0.02   0.01     0.00  -0.05  -0.02    -0.01   0.02  -0.04
  35   1     0.02   0.02   0.00     0.02  -0.02  -0.02     0.01  -0.03  -0.00
  36   1    -0.03   0.01   0.02    -0.03  -0.03  -0.02     0.03  -0.02  -0.05
  37   1     0.01  -0.04   0.02     0.08  -0.18   0.06     0.07  -0.10   0.04
  38   1    -0.03  -0.03   0.04    -0.11  -0.12   0.14    -0.06  -0.07   0.08
  39   1     0.01   0.00  -0.02     0.05   0.03  -0.09     0.01   0.01  -0.07
  40   1    -0.01  -0.01   0.01    -0.03  -0.06   0.05    -0.05  -0.04   0.04
  41   1    -0.03   0.02   0.00    -0.13   0.08  -0.00    -0.11   0.04  -0.02
                     19                     20                     21
                        a                      a                      a 
 Frequencies --   162.6846               179.9436               182.8039
 Red. masses --    17.3588                21.9666                17.1989
 Frc consts  --     0.0000                 0.0000                 0.0000
 IR Inten    --    10.5456                11.5274                31.8893
 Raman Activ --     0.0000                 0.0000                 0.0000
 Depolar     --     0.0000                 0.0000                 0.0000
 Atom AN      X      Y      Z        X      Y      Z        X      Y      Z
   1   6    -0.05   0.00  -0.05     0.05  -0.16   0.13     0.04  -0.13   0.11
   2   6     0.17  -0.08  -0.26     0.05  -0.12   0.14    -0.04  -0.06   0.20
   3   8    -0.06   0.05  -0.01     0.03  -0.11   0.18     0.07  -0.12   0.08
   4  15     0.13   0.18   0.10    -0.11  -0.06   0.20    -0.16  -0.14   0.02
   5  16    -0.36  -0.00   0.07    -0.04   0.27  -0.09     0.19   0.08  -0.03
   6   8     0.19  -0.00   0.17    -0.08  -0.03   0.07    -0.19   0.02  -0.09
   7   6     0.10   0.11   0.08     0.18   0.13  -0.06     0.03   0.03  -0.10
   8   6    -0.04   0.00  -0.02     0.04   0.04   0.03     0.02   0.05   0.06
   9  16     0.20   0.07  -0.15     0.17  -0.04  -0.40     0.12   0.14  -0.14
  10   6     0.05  -0.06   0.05    -0.04   0.00  -0.17    -0.18   0.16  -0.00
  11  16    -0.10  -0.13  -0.06    -0.23   0.15  -0.21     0.29   0.02   0.09
  12  15    -0.05  -0.16   0.03     0.00   0.02   0.17    -0.11  -0.15  -0.10
  13  16    -0.04  -0.11   0.10     0.07  -0.16  -0.18     0.00   0.06   0.15
  14   8     0.10  -0.12  -0.08    -0.09  -0.03   0.21     0.06  -0.13  -0.18
  15   6    -0.00  -0.08  -0.14     0.02   0.06   0.16    -0.03  -0.11  -0.22
  16   6    -0.08   0.02  -0.07     0.05   0.07   0.13    -0.08  -0.05  -0.17
  17   8    -0.17   0.13   0.20     0.02  -0.08  -0.01    -0.20   0.17   0.18
  18   6    -0.06   0.17  -0.03     0.01  -0.02  -0.03    -0.10   0.07   0.05
  19   6     0.17   0.06   0.07    -0.04  -0.01  -0.04     0.16   0.06   0.09
  20   1    -0.16  -0.05   0.01     0.01  -0.06   0.05     0.09  -0.01   0.02
  21   1     0.04  -0.04  -0.09     0.01  -0.05   0.02    -0.04  -0.01   0.07
  22   1     0.02   0.11   0.09     0.01  -0.04   0.04    -0.01  -0.10  -0.01
  23   1     0.02  -0.10  -0.16     0.01  -0.04   0.04    -0.00   0.02   0.10
  24   1     0.17   0.01  -0.09     0.01  -0.03   0.04    -0.07  -0.03   0.06
  25   1     0.05   0.04   0.04     0.13   0.06   0.03     0.05   0.01  -0.01
  26   1     0.02   0.06   0.01     0.05   0.06  -0.11     0.01   0.01  -0.08
  27   1    -0.02   0.03  -0.03     0.07   0.05  -0.03     0.06   0.02   0.01
  28   1    -0.04  -0.02  -0.03    -0.07  -0.02  -0.04    -0.04   0.01  -0.00
  29   1    -0.00  -0.04   0.02     0.01  -0.02   0.10    -0.00   0.02   0.08
  30   1     0.01  -0.03   0.02    -0.03  -0.03  -0.05    -0.10   0.08  -0.08
  31   1     0.03  -0.01   0.01     0.00   0.02  -0.05    -0.10   0.06   0.08
  32   1    -0.00  -0.03  -0.06     0.01   0.01   0.03    -0.01  -0.04  -0.07
  33   1    -0.01  -0.02  -0.05     0.01   0.04   0.06    -0.01  -0.03  -0.07
  34   1    -0.02   0.01  -0.00     0.02  -0.03   0.02    -0.02  -0.04  -0.05
  35   1    -0.05   0.02  -0.04     0.04   0.06   0.00    -0.02   0.01  -0.08
  36   1    -0.02   0.02  -0.00    -0.01   0.04   0.08    -0.04  -0.00  -0.02
  37   1    -0.08   0.08  -0.03    -0.00  -0.00  -0.01    -0.04   0.02  -0.00
  38   1     0.02   0.06  -0.06     0.01   0.00  -0.01    -0.04   0.01  -0.01
  39   1     0.02   0.01   0.08    -0.02  -0.01  -0.02     0.05   0.03   0.06
  40   1     0.07   0.03  -0.04    -0.02   0.01  -0.00     0.07  -0.00  -0.03
  41   1     0.11  -0.01   0.04    -0.01  -0.01  -0.02     0.08   0.03   0.05
                     22                     23                     24
                        a                      a                      a 
 Frequencies --   205.6884               216.7136               226.9999
 Red. masses --     8.6922                12.4640                 8.4589
 Frc consts  --     0.0000                 0.0000                 0.0000
 IR Inten    --    16.5638                 4.5723                 3.8083
 Raman Activ --     0.0000                 0.0000                 0.0000
 Depolar     --     0.0000                 0.0000                 0.0000
 Atom AN      X      Y      Z        X      Y      Z        X      Y      Z
   1   6     0.01  -0.08   0.03     0.01  -0.11   0.03     0.01  -0.03   0.03
   2   6     0.09   0.06   0.02     0.13   0.06   0.01     0.05  -0.09  -0.04
   3   8     0.13   0.08   0.14     0.20   0.09   0.14     0.02  -0.09  -0.05
   4  15    -0.06   0.07   0.07    -0.13   0.12   0.02    -0.10   0.07  -0.04
   5  16     0.07   0.14   0.11     0.08   0.13   0.17    -0.01  -0.00   0.09
   6   8     0.10  -0.10  -0.00     0.10  -0.12  -0.07    -0.02   0.00  -0.06
   7   6    -0.00  -0.15   0.02    -0.08  -0.26   0.03    -0.01  -0.04  -0.04
   8   6     0.00  -0.17  -0.14     0.01  -0.23  -0.20    -0.01  -0.04  -0.02
   9  16    -0.08   0.07  -0.16    -0.25   0.11  -0.14    -0.07   0.18  -0.02
  10   6    -0.27   0.08   0.00     0.07  -0.02  -0.14     0.40  -0.09  -0.07
  11  16    -0.08  -0.03   0.05     0.14   0.08  -0.04     0.09   0.12  -0.11
  12  15    -0.05  -0.07   0.04     0.02   0.04  -0.02    -0.04  -0.04   0.06
  13  16     0.13   0.00   0.03    -0.09  -0.00  -0.02    -0.04  -0.08   0.00
  14   8     0.07   0.12  -0.09    -0.07  -0.12   0.09    -0.10  -0.18   0.14
  15   6     0.09   0.13  -0.09    -0.06  -0.08   0.05     0.06   0.07  -0.04
  16   6     0.00  -0.01   0.01    -0.01  -0.00  -0.00    -0.00   0.01   0.03
  17   8    -0.01  -0.10   0.00    -0.03   0.10   0.02    -0.14   0.10   0.06
  18   6    -0.01  -0.04  -0.06    -0.02   0.03   0.05    -0.10   0.02   0.03
  19   6    -0.05  -0.04  -0.06     0.05   0.04   0.06     0.03   0.03   0.04
  20   1    -0.05  -0.09   0.05    -0.08  -0.12   0.07     0.18   0.16  -0.10
  21   1     0.03  -0.05  -0.07     0.04  -0.07  -0.11    -0.17   0.10   0.21
  22   1     0.01   0.04   0.05     0.02   0.06   0.07    -0.02  -0.26  -0.05
  23   1     0.02   0.00  -0.01     0.03   0.01  -0.02     0.01  -0.03  -0.02
  24   1     0.04   0.03  -0.00     0.06   0.04  -0.01     0.02  -0.03  -0.00
  25   1    -0.03  -0.05  -0.01    -0.10  -0.09  -0.03    -0.00  -0.02  -0.02
  26   1    -0.00  -0.05   0.05    -0.02  -0.10   0.09    -0.00  -0.01  -0.01
  27   1    -0.10  -0.07  -0.01    -0.11  -0.09  -0.02    -0.03  -0.03   0.01
  28   1     0.07  -0.02   0.00     0.12  -0.04  -0.00     0.02   0.01   0.01
  29   1     0.01  -0.07  -0.15     0.02  -0.06  -0.20     0.00  -0.01  -0.04
  30   1    -0.12   0.05  -0.07     0.05  -0.02   0.00     0.20  -0.08   0.11
  31   1    -0.12   0.04   0.07     0.03  -0.04  -0.08     0.18  -0.08  -0.16
  32   1     0.05   0.05  -0.02    -0.02  -0.03   0.00     0.07   0.01  -0.05
  33   1     0.01   0.05  -0.04    -0.01  -0.02   0.03    -0.00   0.09  -0.01
  34   1    -0.04   0.34   0.10     0.02  -0.24  -0.06    -0.02   0.23   0.08
  35   1    -0.19  -0.27   0.22     0.13   0.18  -0.15    -0.13  -0.16   0.15
  36   1     0.19  -0.13  -0.27    -0.14   0.08   0.19     0.12  -0.07  -0.16
  37   1    -0.02  -0.00  -0.02     0.01  -0.00   0.02    -0.02  -0.01   0.01
  38   1     0.01  -0.00  -0.02    -0.02  -0.00   0.02    -0.04  -0.00   0.01
  39   1    -0.06  -0.04  -0.01     0.06   0.04   0.01     0.09   0.06   0.01
  40   1    -0.02   0.04  -0.04     0.02  -0.04   0.03     0.03  -0.08   0.04
  41   1     0.02  -0.03  -0.01    -0.02   0.03   0.01    -0.06   0.04  -0.00
                     25                     26                     27
                        a                      a                      a 
 Frequencies --   222.9489               228.5171               233.9509
 Red. masses --     6.4089                 7.3707                 3.6541
 Frc consts  --     0.0000                 0.0000                 0.0000
 IR Inten    --     4.2579                 4.1292                 3.0755
 Raman Activ --     0.0000                 0.0000                 0.0000
 Depolar     --     0.0000                 0.0000                 0.0000
 Atom AN      X      Y      Z        X      Y      Z        X      Y      Z
   1   6     0.01  -0.01   0.02     0.00   0.02   0.01     0.01   0.01  -0.01
   2   6     0.08  -0.06  -0.07     0.10  -0.05  -0.10     0.02   0.10   0.02
   3   8     0.07  -0.05  -0.04     0.09  -0.04  -0.04     0.18   0.04  -0.00
   4  15    -0.03   0.11  -0.03     0.05   0.12  -0.01    -0.03   0.03  -0.11
   5  16    -0.01   0.01   0.11    -0.03  -0.01   0.12     0.03  -0.07  -0.00
   6   8     0.05  -0.03   0.05     0.11  -0.05   0.17    -0.06   0.01   0.05
   7   6     0.01  -0.03   0.05     0.05  -0.00   0.12    -0.15  -0.15   0.15
   8   6     0.01  -0.05  -0.04     0.02  -0.04  -0.04     0.04  -0.03   0.01
   9  16    -0.10   0.10  -0.07    -0.13   0.02  -0.10    -0.09   0.07  -0.03
  10   6    -0.01  -0.02   0.01    -0.30   0.05   0.02     0.07  -0.03  -0.03
  11  16    -0.11   0.02   0.04    -0.03  -0.13   0.06     0.01   0.02  -0.01
  12  15    -0.11  -0.03   0.00     0.12   0.04  -0.03    -0.02  -0.01   0.00
  13  16     0.13   0.09  -0.02    -0.06  -0.02   0.01     0.00  -0.01  -0.00
  14   8    -0.03   0.15  -0.10     0.13   0.02  -0.04    -0.02  -0.02   0.02
  15   6    -0.09  -0.00   0.01     0.04  -0.06   0.02     0.02   0.01  -0.01
  16   6    -0.00  -0.06  -0.09    -0.00   0.05   0.06     0.02   0.02  -0.00
  17   8     0.11  -0.18   0.08     0.02   0.07  -0.11    -0.02   0.01   0.01
  18   6     0.08  -0.07   0.06     0.01   0.04  -0.09    -0.01  -0.01   0.01
  19   6     0.04   0.02  -0.00    -0.07  -0.05  -0.05     0.01   0.00   0.00
  20   1     0.17   0.16  -0.10     0.19   0.19  -0.12    -0.07  -0.08   0.05
  21   1    -0.17   0.10   0.20    -0.20   0.12   0.22     0.07  -0.04  -0.10
  22   1    -0.02  -0.25  -0.05    -0.02  -0.28  -0.06     0.01   0.10   0.03
  23   1     0.02  -0.02  -0.04     0.02  -0.02  -0.05     0.01   0.05   0.01
  24   1     0.04  -0.02  -0.02     0.06  -0.01  -0.03    -0.02   0.02   0.01
  25   1    -0.01  -0.01   0.01     0.01   0.01   0.04    -0.09  -0.05   0.02
  26   1     0.00  -0.01   0.02     0.01   0.01   0.04    -0.04  -0.08   0.08
  27   1     0.02   0.02  -0.04     0.06   0.07  -0.07     0.40   0.26  -0.24
  28   1    -0.01  -0.05  -0.04    -0.05  -0.09  -0.08    -0.24  -0.31  -0.28
  29   1    -0.00  -0.02   0.02     0.00  -0.02   0.08    -0.05   0.06   0.47
  30   1     0.01  -0.02   0.02    -0.14   0.06  -0.08     0.04  -0.02   0.03
  31   1     0.01  -0.02  -0.02    -0.14   0.04   0.10     0.04  -0.03  -0.05
  32   1    -0.05   0.01   0.03    -0.01  -0.01   0.01     0.01   0.00  -0.01
  33   1    -0.01  -0.03   0.01     0.01  -0.04  -0.00     0.01   0.01   0.00
  34   1     0.00  -0.13  -0.07     0.01  -0.05   0.01    -0.00   0.07   0.01
  35   1     0.09   0.05  -0.07     0.02   0.08  -0.05    -0.03  -0.04   0.04
  36   1    -0.06   0.01   0.04    -0.04   0.05   0.09     0.05  -0.01  -0.05
  37   1     0.00  -0.02   0.00     0.01   0.02  -0.01    -0.00  -0.01   0.00
  38   1     0.05  -0.01   0.02    -0.00   0.01  -0.03    -0.01  -0.00   0.00
  39   1    -0.31  -0.19   0.04     0.20   0.12  -0.05    -0.01  -0.01   0.00
  40   1    -0.01   0.35  -0.22    -0.02  -0.25   0.16     0.00   0.02  -0.01
  41   1     0.35  -0.09   0.14    -0.27   0.05  -0.13     0.02  -0.00   0.01
                     28                     29                     30
                        a                      a                      a 
 Frequencies --   275.5378               282.7946               309.4534
 Red. masses --    18.7310                11.8789                17.8582
 Frc consts  --     0.0000                 0.0000                 0.0000
 IR Inten    --    16.0800                 1.7872                 0.8359
 Raman Activ --     0.0000                 0.0000                 0.0000
 Depolar     --     0.0000                 0.0000                 0.0000
 Atom AN      X      Y      Z        X      Y      Z        X      Y      Z
   1   6     0.00  -0.07   0.04    -0.01   0.02  -0.01    -0.04   0.02  -0.07
   2   6     0.00  -0.02   0.06    -0.01   0.00  -0.02     0.11   0.05  -0.15
   3   8    -0.01  -0.01   0.01    -0.00   0.00  -0.01    -0.17   0.23   0.21
   4  15    -0.15   0.01  -0.04     0.03  -0.01   0.01    -0.08  -0.07   0.20
   5  16     0.05   0.05   0.03    -0.00  -0.01  -0.01    -0.03   0.21   0.02
   6   8    -0.08   0.04  -0.19     0.02  -0.01   0.04    -0.10   0.13  -0.31
   7   6    -0.09  -0.10  -0.10     0.02   0.02   0.02    -0.13  -0.19  -0.10
   8   6    -0.01  -0.03  -0.02     0.00   0.01   0.00     0.01  -0.09  -0.05
   9  16     0.23   0.34   0.02    -0.03  -0.05  -0.00     0.37  -0.21   0.11
  10   6     0.17  -0.05   0.26    -0.07   0.00  -0.01    -0.05   0.00   0.09
  11  16    -0.35   0.00   0.17     0.05   0.02   0.09    -0.06  -0.06   0.03
  12  15    -0.07  -0.03   0.09     0.05   0.19  -0.06     0.08   0.09  -0.06
  13  16     0.08  -0.05  -0.03    -0.20   0.08  -0.15    -0.08   0.05  -0.06
  14   8     0.35   0.08  -0.22     0.20  -0.37   0.04    -0.12  -0.19   0.13
  15   6     0.11  -0.13  -0.06     0.27  -0.18  -0.05    -0.04  -0.01  -0.04
  16   6    -0.03   0.08   0.09    -0.01   0.21   0.26    -0.02  -0.04  -0.07
  17   8    -0.01  -0.11   0.00    -0.10   0.24  -0.09     0.13  -0.00  -0.06
  18   6    -0.01  -0.03  -0.11    -0.06  -0.21   0.04     0.09   0.05   0.05
  19   6    -0.10  -0.07  -0.11    -0.07  -0.05  -0.06     0.05   0.04   0.06
  20   1    -0.00  -0.04   0.03    -0.00   0.01  -0.01     0.05   0.08  -0.07
  21   1    -0.00  -0.03  -0.01     0.00   0.01   0.00    -0.11   0.06   0.06
  22   1     0.00  -0.01   0.02    -0.00   0.01  -0.00    -0.01  -0.12  -0.02
  23   1     0.00  -0.00   0.03    -0.00   0.00  -0.00     0.01  -0.07  -0.11
  24   1    -0.01  -0.01   0.02    -0.00   0.00  -0.00     0.12   0.07  -0.07
  25   1    -0.05  -0.05  -0.05     0.01   0.01   0.01    -0.10  -0.09  -0.07
  26   1    -0.02  -0.05   0.00     0.01   0.01  -0.00    -0.04  -0.09   0.04
  27   1     0.01  -0.03   0.01    -0.01   0.00   0.00     0.08   0.00  -0.05
  28   1     0.01   0.00   0.01     0.00   0.01   0.01    -0.02  -0.08  -0.05
  29   1    -0.01   0.02  -0.01     0.00  -0.00  -0.01    -0.02   0.02   0.06
  30   1     0.08  -0.07   0.15    -0.03   0.01  -0.03    -0.06   0.02  -0.03
  31   1     0.10  -0.04  -0.01    -0.04   0.01   0.02    -0.03   0.05   0.09
  32   1    -0.01  -0.03   0.01     0.10  -0.07  -0.06     0.01  -0.02  -0.04
  33   1     0.04  -0.10  -0.05     0.06  -0.02  -0.03    -0.02   0.04  -0.00
  34   1     0.02  -0.04   0.04     0.03   0.13   0.17    -0.01   0.00  -0.03
  35   1    -0.03   0.10  -0.06    -0.15   0.07   0.02     0.00  -0.03  -0.00
  36   1    -0.05   0.07   0.13     0.03   0.09   0.13     0.01  -0.02  -0.05
  37   1    -0.02   0.01  -0.04     0.07  -0.13   0.03     0.03   0.02   0.02
  38   1     0.02   0.00  -0.04    -0.12  -0.10   0.06     0.03   0.02   0.02
  39   1     0.03   0.01  -0.05    -0.20  -0.13  -0.03     0.01   0.01   0.02
  40   1    -0.04  -0.07   0.04    -0.04   0.19  -0.14     0.01   0.02   0.01
  41   1    -0.11  -0.01  -0.08     0.16  -0.05   0.07     0.02   0.00   0.02
                     31                     32                     33
                        a                      a                      a 
 Frequencies --   315.0446               333.2369               368.2483
 Red. masses --    17.8380                24.5101                17.1289
 Frc consts  --     0.0000                 0.0000                 0.0000
 IR Inten    --    18.6511                 7.2614                16.6786
 Raman Activ --     0.0000                 0.0000                 0.0000
 Depolar     --     0.0000                 0.0000                 0.0000
 Atom AN      X      Y      Z        X      Y      Z        X      Y      Z
   1   6     0.02  -0.03   0.04    -0.02   0.11  -0.09    -0.00   0.00  -0.00
   2   6    -0.04  -0.02   0.08     0.01   0.05  -0.12     0.01   0.01  -0.00
   3   8     0.07  -0.09  -0.09     0.01   0.08   0.10    -0.01   0.02   0.02
   4  15     0.03   0.04  -0.08     0.03  -0.09   0.10     0.02  -0.03   0.02
   5  16     0.02  -0.08  -0.00    -0.02   0.02  -0.04     0.01  -0.01  -0.02
   6   8     0.04  -0.04   0.10    -0.04  -0.00   0.04    -0.00   0.00   0.00
   7   6     0.04   0.07   0.03     0.02  -0.00   0.03    -0.00   0.00   0.00
   8   6    -0.01   0.03   0.02     0.01  -0.01  -0.01     0.00   0.00   0.00
   9  16    -0.10   0.17  -0.08    -0.14  -0.39   0.05    -0.03  -0.01  -0.01
  10   6    -0.07  -0.02   0.09     0.03   0.01  -0.23     0.01   0.02  -0.02
  11  16    -0.27   0.12   0.27     0.07   0.55   0.22    -0.10   0.14   0.07
  12  15     0.06   0.16  -0.03    -0.22  -0.03   0.17     0.35   0.15   0.25
  13  16    -0.07   0.07  -0.15     0.11  -0.02  -0.05     0.01  -0.25   0.10
  14   8    -0.08  -0.42   0.15     0.21  -0.03  -0.16     0.19   0.03   0.11
  15   6    -0.05  -0.11  -0.19     0.07  -0.12  -0.14    -0.20   0.05  -0.13
  16   6    -0.08  -0.09  -0.20    -0.05   0.00  -0.03    -0.08  -0.17  -0.31
  17   8     0.32  -0.16  -0.09    -0.01  -0.21   0.09    -0.11   0.39   0.05
  18   6     0.21   0.14   0.06    -0.02   0.04  -0.04     0.03  -0.15  -0.08
  19   6     0.09   0.07   0.10    -0.00  -0.00  -0.02    -0.17  -0.11  -0.16
  20   1    -0.02  -0.05   0.04     0.00   0.07  -0.05     0.00   0.00  -0.00
  21   1     0.04  -0.03  -0.03    -0.01   0.05   0.02    -0.01   0.00   0.00
  22   1     0.01   0.04   0.01    -0.01   0.01  -0.03    -0.00  -0.01   0.00
  23   1    -0.00   0.03   0.05    -0.01  -0.02  -0.06     0.00  -0.00  -0.00
  24   1    -0.05  -0.03   0.04     0.04   0.04  -0.05     0.01   0.01  -0.00
  25   1     0.03   0.03   0.02     0.01   0.00   0.01     0.00   0.00   0.00
  26   1     0.01   0.03  -0.01     0.01  -0.00  -0.00    -0.00   0.00  -0.00
  27   1    -0.03  -0.00   0.02     0.01   0.01  -0.01     0.00   0.00  -0.00
  28   1     0.01   0.03   0.02    -0.00  -0.02  -0.01    -0.00  -0.00  -0.00
  29   1     0.00  -0.01  -0.02     0.00  -0.01   0.01    -0.00   0.00   0.01
  30   1    -0.01  -0.03   0.05     0.02  -0.05  -0.03     0.01  -0.02   0.01
  31   1    -0.01  -0.02  -0.00     0.04   0.01  -0.10     0.02   0.00  -0.03
  32   1     0.03  -0.06  -0.12     0.01  -0.03  -0.04    -0.06   0.01  -0.05
  33   1    -0.04   0.04  -0.05     0.02  -0.06  -0.06    -0.06  -0.01  -0.06
  34   1    -0.03   0.03  -0.05    -0.00   0.00   0.01    -0.05  -0.09  -0.16
  35   1    -0.05  -0.07  -0.02    -0.05   0.02  -0.04     0.08  -0.08  -0.03
  36   1     0.01  -0.05  -0.11    -0.02   0.02   0.02    -0.04  -0.09  -0.15
  37   1     0.03   0.08   0.02    -0.06   0.04  -0.03     0.08  -0.09  -0.01
  38   1     0.11   0.07   0.01     0.05   0.04  -0.03    -0.08  -0.09  -0.00
  39   1     0.05   0.04   0.03     0.05   0.04  -0.00    -0.12  -0.09  -0.09
  40   1     0.02  -0.01   0.06     0.00  -0.06   0.03    -0.09   0.06  -0.01
  41   1    -0.01   0.01   0.00    -0.05   0.01  -0.03    -0.04  -0.05  -0.06
                     34                     35                     36
                        a                      a                      a 
 Frequencies --   371.7913               390.5598               435.9702
 Red. masses --    14.1735                16.8757                21.8071
 Frc consts  --     0.0000                 0.0000                 0.0000
 IR Inten    --    13.2546                14.2218                93.9252
 Raman Activ --     0.0000                 0.0000                 0.0000
 Depolar     --     0.0000                 0.0000                 0.0000
 Atom AN      X      Y      Z        X      Y      Z        X      Y      Z
   1   6     0.02  -0.39   0.25    -0.02  -0.08  -0.01     0.01  -0.07   0.04
   2   6     0.17   0.01   0.24     0.25   0.25  -0.08     0.12   0.15   0.03
   3   8    -0.49   0.19  -0.15    -0.02   0.38   0.24     0.08   0.08  -0.15
   4  15     0.23   0.17  -0.13    -0.15  -0.26  -0.06    -0.38   0.21  -0.38
   5  16    -0.02  -0.04  -0.05     0.15  -0.19  -0.26     0.00  -0.03   0.04
   6   8     0.19   0.15  -0.11     0.01  -0.37   0.21    -0.34   0.03   0.25
   7   6    -0.01  -0.00   0.01    -0.07   0.10  -0.05     0.16   0.04   0.19
   8   6    -0.01   0.00   0.01    -0.04   0.17   0.13     0.04  -0.12  -0.11
   9  16    -0.11  -0.10   0.02    -0.09   0.17  -0.02     0.30  -0.24   0.17
  10   6    -0.02   0.00  -0.07     0.03   0.00   0.03     0.03  -0.03   0.03
  11  16     0.04   0.09   0.02    -0.03  -0.06   0.00     0.05  -0.02  -0.05
  12  15    -0.03  -0.01   0.02     0.01  -0.01  -0.02    -0.04   0.05   0.07
  13  16     0.01   0.00  -0.01    -0.00   0.01   0.00    -0.02   0.03  -0.03
  14   8     0.02   0.00  -0.03    -0.02   0.00   0.00     0.02  -0.02   0.02
  15   6     0.02  -0.01  -0.02     0.00   0.00   0.01    -0.01  -0.00  -0.01
  16   6     0.00   0.01   0.00     0.01   0.01   0.01    -0.01  -0.01  -0.02
  17   8    -0.01  -0.03   0.01     0.01  -0.00  -0.01     0.01   0.00   0.05
  18   6    -0.01   0.00  -0.00    -0.00   0.00   0.01     0.03  -0.00  -0.01
  19   6     0.00   0.00  -0.00     0.01   0.00   0.01    -0.02  -0.01  -0.02
  20   1     0.04  -0.19   0.13     0.03  -0.03   0.01     0.01  -0.06   0.04
  21   1    -0.13  -0.10  -0.03    -0.13   0.01  -0.04    -0.06  -0.02  -0.05
  22   1     0.02  -0.22   0.11     0.01  -0.13   0.04     0.01  -0.06   0.04
  23   1     0.05  -0.04   0.08     0.05  -0.03  -0.10     0.03   0.05   0.01
  24   1     0.05  -0.00   0.07     0.17   0.13  -0.06     0.02   0.03   0.02
  25   1    -0.05  -0.03  -0.03     0.02   0.08   0.04     0.12   0.04   0.10
  26   1    -0.01  -0.00   0.06    -0.02   0.04  -0.07     0.05   0.01  -0.06
  27   1     0.03   0.02  -0.02     0.03  -0.02   0.08    -0.12   0.02  -0.06
  28   1    -0.02  -0.02  -0.02    -0.02   0.11   0.08     0.05  -0.07  -0.04
  29   1    -0.01   0.01   0.04    -0.02   0.09   0.05     0.04  -0.11  -0.11
  30   1    -0.01  -0.00  -0.02     0.03  -0.00   0.04    -0.01   0.00  -0.02
  31   1    -0.01   0.00  -0.01     0.02  -0.03  -0.02     0.01   0.03   0.04
  32   1     0.00  -0.00  -0.00     0.00   0.00   0.00    -0.00  -0.00  -0.01
  33   1     0.00  -0.01  -0.01     0.00   0.00   0.00    -0.00  -0.00  -0.00
  34   1     0.00   0.01   0.00     0.00   0.00   0.00    -0.00  -0.00  -0.01
  35   1    -0.01   0.00  -0.00    -0.00   0.00   0.00     0.00  -0.01  -0.00
  36   1     0.00   0.00   0.00     0.00   0.00   0.00    -0.00  -0.01  -0.01
  37   1    -0.01   0.00  -0.00     0.00   0.00   0.00     0.00   0.00  -0.01
  38   1     0.00   0.00  -0.00     0.00   0.00   0.00     0.01   0.00  -0.01
  39   1     0.01   0.00   0.00     0.00   0.00   0.00    -0.01  -0.01  -0.02
  40   1     0.00  -0.01   0.00     0.00   0.00  -0.00    -0.01   0.00   0.01
  41   1    -0.00   0.00  -0.00     0.00   0.00   0.00    -0.02  -0.01  -0.02
                     37                     38                     39
                        a                      a                      a 
 Frequencies --   441.3576               453.1567               488.7812
 Red. masses --    18.3413                20.5001                20.9404
 Frc consts  --     0.0000                 0.0000                 0.0000
 IR Inten    --   152.3836                 4.3433               129.9404
 Raman Activ --     0.0000                 0.0000                 0.0000
 Depolar     --     0.0000                 0.0000                 0.0000
 Atom AN      X      Y      Z        X      Y      Z        X      Y      Z
   1   6    -0.01   0.01  -0.02    -0.00   0.01  -0.01    -0.00   0.00  -0.00
   2   6     0.02   0.02  -0.03    -0.01  -0.01  -0.01    -0.01  -0.01   0.00
   3   8    -0.09   0.09   0.11    -0.04   0.02   0.07    -0.01   0.00   0.02
   4  15     0.20  -0.20   0.17     0.12  -0.10   0.12     0.03  -0.02   0.03
   5  16     0.06  -0.20  -0.23     0.02  -0.08  -0.10     0.01  -0.03  -0.03
   6   8    -0.36   0.39   0.04    -0.07   0.13  -0.02    -0.00   0.03  -0.01
   7   6     0.19   0.00   0.25     0.04   0.00   0.06     0.01   0.00   0.01
   8   6     0.05  -0.19  -0.16     0.01  -0.04  -0.04     0.00  -0.01  -0.00
   9  16    -0.14   0.20  -0.06    -0.08   0.15  -0.04    -0.02   0.07  -0.01
  10   6     0.02   0.06   0.05     0.02  -0.01   0.01    -0.00  -0.04   0.03
  11  16    -0.11   0.04   0.08     0.21  -0.24  -0.18     0.15  -0.21  -0.17
  12  15     0.10  -0.08  -0.14    -0.23   0.11   0.24    -0.07   0.28   0.49
  13  16     0.04  -0.08   0.07    -0.09   0.27  -0.17    -0.06   0.10  -0.13
  14   8    -0.04   0.04  -0.02     0.01  -0.10   0.04     0.29   0.02   0.07
  15   6     0.01   0.01   0.03    -0.01  -0.03  -0.03    -0.06   0.01  -0.05
  16   6     0.02   0.01   0.03    -0.02  -0.01  -0.03    -0.06  -0.05  -0.11
  17   8    -0.02   0.02  -0.14     0.06  -0.02   0.48    -0.05  -0.26  -0.35
  18   6    -0.08   0.01   0.03     0.28  -0.01  -0.10    -0.31  -0.00   0.06
  19   6     0.04   0.03   0.05    -0.14  -0.08  -0.16     0.09   0.05   0.11
  20   1     0.00   0.01  -0.01     0.00   0.01  -0.01     0.00   0.00  -0.00
  21   1    -0.01   0.01   0.00     0.00   0.00   0.01     0.00   0.00   0.00
  22   1    -0.00  -0.01  -0.00    -0.00   0.00  -0.01    -0.00   0.00  -0.00
  23   1     0.00  -0.03  -0.03    -0.01  -0.02  -0.01    -0.00  -0.01  -0.00
  24   1     0.04   0.03  -0.02     0.01   0.01  -0.01    -0.00   0.00  -0.00
  25   1     0.08  -0.01   0.07     0.01  -0.01   0.01     0.00  -0.00   0.00
  26   1     0.06  -0.00   0.01     0.01  -0.00   0.01     0.00   0.00   0.01
  27   1    -0.13   0.06  -0.11    -0.03   0.02  -0.03    -0.00   0.01  -0.01
  28   1     0.06  -0.14  -0.09     0.01  -0.04  -0.02     0.00  -0.01  -0.01
  29   1     0.05  -0.15  -0.13     0.01  -0.04  -0.03     0.00  -0.01  -0.00
  30   1     0.03  -0.00   0.06     0.02   0.03  -0.01     0.00   0.03  -0.02
  31   1     0.02  -0.02  -0.03    -0.01  -0.02   0.01    -0.02  -0.01   0.03
  32   1     0.00   0.01   0.02     0.01  -0.01  -0.02    -0.03  -0.00  -0.02
  33   1     0.00   0.00   0.01    -0.01   0.00  -0.01    -0.02  -0.03  -0.04
  34   1     0.01   0.00   0.01    -0.01  -0.00  -0.01    -0.03  -0.03  -0.06
  35   1     0.00   0.01   0.00    -0.01  -0.00  -0.01     0.03  -0.02  -0.01
  36   1     0.00   0.01   0.02    -0.00  -0.00  -0.01    -0.02  -0.03  -0.06
  37   1     0.01  -0.01   0.02    -0.01   0.04  -0.07    -0.05  -0.02   0.03
  38   1    -0.04  -0.01   0.02     0.14   0.02  -0.07    -0.09   0.00   0.04
  39   1     0.02   0.02   0.04    -0.07  -0.06  -0.12     0.08   0.06   0.11
  40   1     0.03  -0.01  -0.03    -0.11   0.03   0.10     0.10  -0.06  -0.10
  41   1     0.04   0.02   0.04    -0.13  -0.06  -0.13     0.09   0.05   0.10
                     40                     41                     42
                        a                      a                      a 
 Frequencies --   623.7361               632.3921               667.2157
 Red. masses --    25.5947                24.0004                18.2634
 Frc consts  --     0.0000                 0.0000                 0.0000
 IR Inten    --   209.6735                62.8578                10.8472
 Raman Activ --     0.0000                 0.0000                 0.0000
 Depolar     --     0.0000                 0.0000                 0.0000
 Atom AN      X      Y      Z        X      Y      Z        X      Y      Z
   1   6     0.00  -0.00  -0.00    -0.00  -0.01   0.00     0.00  -0.00  -0.00
   2   6    -0.06  -0.08   0.01    -0.14  -0.20   0.03     0.00   0.00  -0.00
   3   8    -0.01  -0.00   0.15    -0.02  -0.01   0.36     0.01   0.01  -0.01
   4  15    -0.12   0.15   0.02    -0.32   0.39   0.01     0.01   0.03   0.02
   5  16     0.07  -0.15  -0.14     0.17  -0.33  -0.30     0.01  -0.01  -0.01
   6   8     0.12   0.06  -0.04     0.27   0.11  -0.08    -0.02  -0.03   0.01
   7   6     0.02   0.03   0.04     0.04   0.06   0.09    -0.01  -0.01  -0.01
   8   6    -0.01   0.01   0.01    -0.01   0.02   0.01     0.00  -0.00   0.00
   9  16     0.02   0.02   0.02     0.07  -0.04   0.04    -0.14  -0.18  -0.22
  10   6    -0.07  -0.15   0.05    -0.03  -0.05  -0.06    -0.09  -0.21   0.73
  11  16     0.10  -0.01  -0.10    -0.04   0.05   0.04     0.18   0.34  -0.28
  12  15    -0.40   0.38   0.06     0.18  -0.17  -0.05     0.04  -0.11  -0.00
  13  16     0.22  -0.41   0.22    -0.09   0.17  -0.09    -0.04   0.06  -0.03
  14   8    -0.19  -0.00  -0.17     0.08   0.00   0.08     0.02  -0.01   0.02
  15   6     0.06  -0.08  -0.06    -0.03   0.04   0.03    -0.02   0.03   0.02
  16   6     0.00   0.00   0.01     0.00   0.00  -0.00     0.00   0.00   0.00
  17   8     0.12   0.18  -0.19    -0.05  -0.07   0.08     0.00   0.03  -0.00
  18   6     0.18   0.04   0.01    -0.08  -0.02  -0.00     0.00   0.00  -0.01
  19   6     0.01   0.02   0.03    -0.01  -0.01  -0.01    -0.00   0.00   0.00
  20   1     0.00   0.02  -0.02     0.00   0.06  -0.04     0.00  -0.00   0.00
  21   1     0.04  -0.00   0.03     0.09  -0.01   0.09    -0.00   0.00  -0.00
  22   1    -0.01   0.02  -0.02    -0.02   0.06  -0.05     0.00  -0.00   0.00
  23   1    -0.02  -0.04  -0.01    -0.05  -0.09  -0.02     0.00   0.00  -0.00
  24   1     0.00  -0.00  -0.01     0.01  -0.00  -0.02     0.00  -0.00   0.00
  25   1    -0.02  -0.01  -0.01    -0.04  -0.02  -0.02     0.00   0.00   0.00
  26   1     0.00   0.01   0.05     0.01   0.01   0.10    -0.00  -0.00  -0.01
  27   1    -0.01   0.02  -0.01    -0.03   0.03  -0.01     0.01  -0.00   0.00
  28   1    -0.00  -0.01  -0.00    -0.01  -0.01  -0.01    -0.00   0.00   0.00
  29   1     0.00  -0.01   0.00     0.00  -0.02   0.00    -0.00   0.00   0.00
  30   1    -0.02  -0.01  -0.01    -0.01  -0.02  -0.02    -0.03  -0.05   0.18
  31   1    -0.02  -0.02   0.03    -0.00   0.01  -0.00     0.01  -0.05   0.15
  32   1     0.02  -0.01   0.00    -0.01   0.01  -0.00    -0.00   0.00   0.00
  33   1     0.02  -0.01   0.00    -0.01   0.01   0.00    -0.01   0.01   0.00
  34   1     0.01   0.02   0.04    -0.00  -0.01  -0.02    -0.00  -0.00  -0.01
  35   1    -0.06   0.02  -0.03     0.03  -0.01   0.02     0.01  -0.00   0.01
  36   1     0.01   0.02   0.04    -0.00  -0.01  -0.02    -0.00  -0.00  -0.01
  37   1     0.10  -0.01   0.02    -0.04   0.00  -0.01     0.01  -0.00   0.00
  38   1     0.00  -0.01   0.02    -0.00   0.00  -0.01    -0.00  -0.00   0.00
  39   1    -0.02  -0.01  -0.01     0.01   0.00   0.00    -0.00   0.00   0.00
  40   1    -0.02   0.04   0.06     0.01  -0.01  -0.02    -0.00   0.00   0.00
  41   1    -0.01  -0.02  -0.02     0.00   0.01   0.01    -0.00  -0.00  -0.00
                     43                     44                     45
                        a                      a                      a 
 Frequencies --   701.1121               736.4954               740.2997
 Red. masses --    16.5385                19.1417                20.4798
 Frc consts  --     0.0000                 0.0000                 0.0000
 IR Inten    --    35.7690               362.3974                74.1991
 Raman Activ --     0.0000                 0.0000                 0.0000
 Depolar     --     0.0000                 0.0000                 0.0000
 Atom AN      X      Y      Z        X      Y      Z        X      Y      Z
   1   6    -0.00   0.01  -0.01     0.01  -0.03   0.02     0.00  -0.02   0.01
   2   6     0.03   0.04  -0.01    -0.10  -0.09   0.03    -0.05  -0.05   0.01
   3   8     0.00  -0.00  -0.08    -0.04   0.02   0.25    -0.02   0.01   0.12
   4  15     0.02  -0.11   0.03     0.38   0.38  -0.11     0.18   0.17  -0.06
   5  16    -0.02   0.04   0.03     0.00  -0.04  -0.03    -0.00  -0.02  -0.01
   6   8    -0.00   0.03  -0.00    -0.37  -0.16   0.18    -0.17  -0.07   0.09
   7   6     0.01   0.00   0.01    -0.14  -0.15  -0.24    -0.07  -0.07  -0.12
   8   6    -0.00  -0.00  -0.00     0.03  -0.09  -0.05     0.02  -0.04  -0.02
   9  16     0.17   0.30   0.26     0.01   0.02   0.03     0.02   0.02   0.03
  10   6    -0.45  -0.63  -0.22    -0.04  -0.06  -0.01    -0.01   0.00  -0.09
  11  16     0.08   0.19  -0.10     0.01   0.01  -0.01    -0.02  -0.00   0.03
  12  15     0.05  -0.06  -0.04     0.15   0.23  -0.07    -0.30  -0.48   0.17
  13  16    -0.02   0.03  -0.01     0.03  -0.06   0.03    -0.06   0.13  -0.07
  14   8     0.04  -0.00   0.03    -0.10   0.00  -0.05     0.19  -0.00   0.08
  15   6    -0.02   0.02   0.02     0.03  -0.04  -0.03    -0.05   0.07   0.05
  16   6     0.00   0.00   0.01     0.00  -0.01  -0.01    -0.01   0.02   0.02
  17   8    -0.01  -0.01   0.03    -0.05  -0.14   0.17     0.10   0.30  -0.35
  18   6    -0.03  -0.01  -0.00    -0.12  -0.04   0.01     0.25   0.08  -0.02
  19   6    -0.00  -0.00  -0.01    -0.02  -0.02  -0.03     0.04   0.05   0.07
  20   1    -0.00  -0.01   0.01     0.02   0.03  -0.02     0.01   0.01  -0.01
  21   1    -0.02   0.00  -0.02     0.07  -0.01   0.06     0.04  -0.01   0.03
  22   1     0.00  -0.01   0.01    -0.01   0.04  -0.05    -0.01   0.02  -0.02
  23   1     0.01   0.02   0.01    -0.04  -0.08  -0.04    -0.02  -0.04  -0.02
  24   1    -0.01   0.00   0.00     0.04   0.01  -0.01     0.02   0.01  -0.01
  25   1     0.00  -0.00   0.00     0.07   0.01   0.01     0.03   0.01   0.01
  26   1     0.00   0.00   0.00    -0.03  -0.01  -0.20    -0.02  -0.00  -0.10
  27   1    -0.01   0.00  -0.00     0.11  -0.12   0.04     0.05  -0.06   0.02
  28   1     0.00  -0.00  -0.00     0.04   0.03   0.03     0.02   0.01   0.01
  29   1    -0.00  -0.00  -0.00    -0.02   0.08   0.01    -0.01   0.04   0.00
  30   1    -0.04  -0.17   0.02    -0.01  -0.01  -0.00     0.01  -0.01  -0.01
  31   1    -0.05  -0.15  -0.13    -0.01  -0.01  -0.00     0.00  -0.00  -0.03
  32   1    -0.00   0.00   0.00     0.01  -0.01   0.00    -0.01   0.01  -0.00
  33   1    -0.00   0.00   0.00     0.01  -0.01   0.00    -0.02   0.01  -0.00
  34   1    -0.00  -0.00  -0.01     0.01   0.01   0.02    -0.02  -0.02  -0.04
  35   1     0.02  -0.00   0.01    -0.04   0.01  -0.02     0.07  -0.01   0.04
  36   1    -0.00  -0.00  -0.01     0.00   0.01   0.02    -0.00  -0.02  -0.04
  37   1    -0.01   0.00  -0.00    -0.09   0.03  -0.01     0.20  -0.06   0.03
  38   1    -0.00   0.00  -0.00     0.02   0.01  -0.03    -0.05  -0.03   0.06
  39   1     0.00   0.00   0.00     0.02   0.01  -0.01    -0.04  -0.02   0.02
  40   1     0.00  -0.00  -0.01     0.02  -0.03  -0.05    -0.04   0.06   0.11
  41   1     0.00   0.00   0.00     0.01   0.03   0.02    -0.01  -0.05  -0.04
                     46                     47                     48
                        a                      a                      a 
 Frequencies --   760.7610               786.0584               801.2148
 Red. masses --    23.1280                19.3623                 5.9656
 Frc consts  --     0.0000                 0.0000                 0.0000
 IR Inten    --   222.5017               254.0045                 7.2213
 Raman Activ --     0.0000                 0.0000                 0.0000
 Depolar     --     0.0000                 0.0000                 0.0000
 Atom AN      X      Y      Z        X      Y      Z        X      Y      Z
   1   6    -0.01  -0.06   0.03     0.00  -0.00   0.00    -0.00   0.00   0.00
   2   6    -0.15  -0.16   0.05    -0.01  -0.01   0.01    -0.00   0.00   0.00
   3   8    -0.03   0.10   0.40    -0.01   0.00   0.03     0.00   0.00   0.01
   4  15     0.12  -0.31  -0.61     0.02  -0.01  -0.04     0.01  -0.04  -0.02
   5  16    -0.11   0.23   0.21    -0.01   0.01   0.01    -0.00   0.00   0.00
   6   8     0.09   0.04  -0.07    -0.00  -0.00   0.00    -0.02   0.02   0.01
   7   6     0.08   0.09   0.17     0.00   0.00   0.00    -0.00  -0.01  -0.00
   8   6    -0.01   0.05   0.03     0.00   0.00  -0.00     0.00  -0.00  -0.00
   9  16    -0.02   0.03   0.00    -0.01  -0.01  -0.01    -0.09   0.12   0.03
  10   6    -0.01  -0.01   0.04     0.01   0.02   0.02     0.42  -0.35  -0.04
  11  16     0.01   0.01  -0.02     0.02  -0.02   0.01    -0.09   0.12   0.00
  12  15     0.02  -0.00   0.03    -0.32   0.19  -0.46    -0.00  -0.04  -0.01
  13  16    -0.00   0.01  -0.00     0.08  -0.15   0.08     0.00  -0.00   0.00
  14   8    -0.03   0.01  -0.02     0.49  -0.17   0.27     0.01   0.00   0.01
  15   6     0.01  -0.02  -0.01    -0.16   0.22   0.18     0.00   0.00  -0.00
  16   6    -0.00  -0.00  -0.00    -0.01   0.07   0.08     0.00   0.00   0.00
  17   8     0.00   0.00  -0.00     0.02  -0.06   0.10     0.01   0.01   0.02
  18   6     0.00   0.00  -0.00    -0.06  -0.02   0.00    -0.02   0.00  -0.01
  19   6     0.00   0.00   0.00    -0.01  -0.02  -0.03    -0.00  -0.00  -0.00
  20   1     0.03   0.05  -0.03     0.01   0.00   0.00     0.00  -0.00   0.00
  21   1     0.12  -0.02   0.11     0.01  -0.00   0.01     0.00  -0.00  -0.00
  22   1    -0.03   0.06  -0.09    -0.00   0.00  -0.01    -0.00   0.00  -0.00
  23   1    -0.07  -0.13  -0.09    -0.01  -0.01  -0.02    -0.00  -0.00  -0.00
  24   1     0.08   0.02  -0.02     0.01   0.00   0.00     0.00   0.00  -0.00
  25   1    -0.01  -0.00   0.02    -0.01   0.00  -0.00     0.01  -0.00   0.00
  26   1     0.02   0.00   0.07     0.00  -0.01   0.00    -0.00   0.01  -0.01
  27   1    -0.08   0.08  -0.03    -0.00  -0.00   0.00     0.00  -0.00  -0.00
  28   1    -0.01  -0.03  -0.02    -0.00   0.00   0.00     0.01  -0.00  -0.00
  29   1     0.02  -0.05  -0.02     0.00  -0.01   0.00    -0.00   0.01  -0.00
  30   1     0.01  -0.01   0.03     0.00   0.01   0.00    -0.22   0.12  -0.51
  31   1     0.01  -0.02  -0.02     0.00   0.00   0.00    -0.19   0.06   0.53
  32   1     0.00  -0.00   0.00    -0.02   0.03  -0.02    -0.00  -0.00  -0.00
  33   1     0.00  -0.00   0.00    -0.07   0.03  -0.03     0.00   0.00   0.00
  34   1     0.00   0.00   0.01    -0.06  -0.06  -0.13     0.00  -0.00   0.00
  35   1    -0.01   0.00  -0.01     0.23  -0.03   0.14     0.00  -0.00   0.00
  36   1     0.00   0.00   0.00    -0.01  -0.05  -0.11    -0.00  -0.00  -0.00
  37   1     0.00  -0.00   0.00    -0.05   0.03  -0.00    -0.00  -0.00  -0.00
  38   1    -0.00   0.00   0.00     0.02   0.01  -0.02    -0.00   0.00   0.00
  39   1    -0.00   0.00   0.00     0.01   0.00  -0.02    -0.00   0.00   0.01
  40   1    -0.00   0.00   0.00     0.01  -0.02  -0.03     0.00  -0.00  -0.00
  41   1    -0.00  -0.00  -0.00     0.00   0.01   0.01     0.00  -0.00  -0.00
                     49                     50                     51
                        a                      a                      a 
 Frequencies --   822.4083               823.6773               824.7927
 Red. masses --     2.6352                 2.8378                 2.0506
 Frc consts  --     0.0000                 0.0000                 0.0000
 IR Inten    --     1.1241                 3.1507                 4.4362
 Raman Activ --     0.0000                 0.0000                 0.0000
 Depolar     --     0.0000                 0.0000                 0.0000
 Atom AN      X      Y      Z        X      Y      Z        X      Y      Z
   1   6     0.01  -0.02  -0.01    -0.00  -0.00   0.00    -0.00   0.00   0.00
   2   6     0.02  -0.05  -0.03    -0.00  -0.00  -0.00    -0.00   0.00   0.00
   3   8    -0.01   0.04   0.01    -0.00   0.00  -0.00    -0.00  -0.00  -0.00
   4  15    -0.04  -0.04  -0.01    -0.00  -0.00   0.00     0.00  -0.00   0.00
   5  16     0.00   0.01   0.01     0.00   0.00   0.00    -0.00   0.00  -0.00
   6   8     0.14   0.04  -0.11     0.01   0.00  -0.01    -0.00   0.00   0.00
   7   6    -0.17  -0.10   0.18    -0.02  -0.01   0.02     0.00   0.00  -0.00
   8   6    -0.10  -0.03   0.07    -0.01  -0.00   0.01     0.00   0.00  -0.00
   9  16    -0.00  -0.01  -0.00    -0.00  -0.00  -0.00    -0.00  -0.00  -0.00
  10   6    -0.00   0.01   0.00    -0.00   0.01   0.01    -0.00   0.00   0.00
  11  16     0.00  -0.00   0.00     0.00  -0.00  -0.00     0.00  -0.00   0.00
  12  15    -0.01  -0.00  -0.00     0.02   0.06  -0.06    -0.02  -0.00  -0.02
  13  16     0.00  -0.00   0.00     0.01  -0.01   0.01     0.00  -0.00   0.00
  14   8     0.01  -0.00   0.00    -0.01  -0.01   0.02    -0.01  -0.07   0.07
  15   6    -0.01   0.00   0.01     0.01   0.01  -0.02     0.11   0.19  -0.14
  16   6    -0.00   0.00   0.00     0.01   0.01  -0.01     0.05   0.08  -0.06
  17   8    -0.00   0.01  -0.01     0.03  -0.12   0.15    -0.01   0.01  -0.01
  18   6     0.01  -0.02   0.01    -0.06   0.21  -0.15     0.01  -0.02   0.02
  19   6     0.00  -0.01   0.01    -0.01   0.09  -0.08     0.00  -0.01   0.01
  20   1    -0.07   0.03  -0.03    -0.00   0.00  -0.00     0.00  -0.00   0.00
  21   1    -0.00   0.01   0.03     0.00  -0.00   0.00    -0.00   0.00  -0.00
  22   1     0.02  -0.00   0.07     0.00  -0.00   0.00    -0.00  -0.00  -0.01
  23   1     0.03   0.02   0.08     0.00   0.00   0.00    -0.00  -0.00  -0.01
  24   1    -0.08   0.00  -0.02    -0.00  -0.00  -0.00     0.01  -0.00   0.00
  25   1     0.44  -0.14   0.13     0.04  -0.01   0.01    -0.00  -0.00  -0.00
  26   1    -0.12   0.36  -0.28    -0.01   0.03  -0.03     0.00  -0.00   0.00
  27   1     0.09   0.11  -0.08     0.01   0.01  -0.01    -0.00  -0.00   0.00
  28   1     0.37  -0.23  -0.01     0.04  -0.02  -0.00     0.00   0.00   0.00
  29   1    -0.11   0.38  -0.14    -0.01   0.04  -0.01     0.00  -0.00   0.00
  30   1     0.00  -0.00   0.01     0.00  -0.00   0.01    -0.00  -0.00   0.00
  31   1     0.00   0.00  -0.01     0.00  -0.00  -0.01     0.00  -0.00  -0.00
  32   1     0.00   0.00   0.00    -0.05  -0.01  -0.01    -0.50  -0.04  -0.05
  33   1    -0.00   0.00  -0.00     0.03  -0.03   0.03     0.28  -0.28   0.29
  34   1    -0.00  -0.00  -0.00     0.03  -0.01   0.04     0.23  -0.14   0.33
  35   1     0.00  -0.00   0.01    -0.01  -0.01   0.01    -0.04  -0.11   0.10
  36   1    -0.00  -0.00  -0.00    -0.04  -0.01  -0.02    -0.40  -0.11  -0.17
  37   1    -0.02   0.04   0.02     0.21  -0.39  -0.19    -0.02   0.04   0.02
  38   1     0.02  -0.00  -0.04    -0.24   0.03   0.40     0.03  -0.00  -0.04
  39   1     0.01  -0.01  -0.04    -0.07   0.07   0.42     0.01  -0.01  -0.05
  40   1    -0.00   0.01  -0.01     0.00  -0.13   0.08    -0.00   0.02  -0.01
  41   1    -0.01   0.03   0.02     0.08  -0.35  -0.24    -0.01   0.04   0.03
                     52                     53                     54
                        a                      a                      a 
 Frequencies --   829.3092               911.8114               918.4745
 Red. masses --     2.7737                13.3486                13.5011
 Frc consts  --     0.0000                 0.0000                 0.0000
 IR Inten    --     1.9811               528.2561               177.7277
 Raman Activ --     0.0000                 0.0000                 0.0000
 Depolar     --     0.0000                 0.0000                 0.0000
 Atom AN      X      Y      Z        X      Y      Z        X      Y      Z
   1   6     0.07  -0.07  -0.07     0.00  -0.02   0.01    -0.00  -0.07   0.04
   2   6     0.13  -0.16  -0.17    -0.01  -0.03  -0.00    -0.05  -0.11  -0.00
   3   8    -0.05   0.11   0.14     0.01   0.05  -0.02     0.06   0.19  -0.09
   4  15     0.03  -0.00  -0.08    -0.04  -0.05  -0.01    -0.17  -0.20  -0.05
   5  16    -0.01   0.01   0.01    -0.00   0.00   0.00    -0.01   0.01   0.01
   6   8    -0.04  -0.01   0.04     0.06   0.13   0.12     0.20   0.46   0.43
   7   6     0.03   0.02  -0.03    -0.03  -0.03  -0.09    -0.09  -0.07  -0.30
   8   6     0.02   0.00  -0.01     0.02  -0.06  -0.03     0.08  -0.22  -0.12
   9  16    -0.00   0.00   0.00    -0.00  -0.00  -0.01    -0.01  -0.01  -0.00
  10   6     0.00  -0.00   0.00    -0.01   0.01   0.01     0.00   0.01   0.01
  11  16     0.00   0.00  -0.00     0.01  -0.02  -0.02     0.00   0.00   0.00
  12  15    -0.01   0.01  -0.01    -0.17  -0.09  -0.11     0.05   0.03   0.02
  13  16     0.00  -0.00   0.00     0.01  -0.01   0.01    -0.00  -0.00  -0.00
  14   8     0.01  -0.00   0.00     0.04   0.33   0.49    -0.01  -0.08  -0.12
  15   6    -0.00   0.00  -0.00     0.15  -0.24  -0.18    -0.04   0.06   0.04
  16   6     0.00   0.00  -0.00    -0.03  -0.10  -0.16     0.01   0.02   0.04
  17   8     0.00  -0.00   0.00     0.33   0.15   0.08    -0.12  -0.06  -0.03
  18   6    -0.00   0.00  -0.00    -0.22   0.01  -0.01     0.07  -0.01  -0.00
  19   6    -0.00   0.00  -0.00    -0.08  -0.08  -0.13     0.03   0.03   0.05
  20   1    -0.36   0.18  -0.19     0.00   0.01  -0.00     0.01   0.02  -0.02
  21   1    -0.06   0.05   0.14     0.02  -0.01   0.02     0.09  -0.03   0.08
  22   1     0.14  -0.02   0.38    -0.00   0.01  -0.01    -0.01   0.04  -0.04
  23   1     0.17   0.12   0.42    -0.01   0.01  -0.01    -0.02   0.02  -0.04
  24   1    -0.45   0.04  -0.14     0.00  -0.00  -0.00     0.00  -0.01  -0.01
  25   1    -0.07   0.03  -0.02    -0.00   0.02  -0.00    -0.01   0.06  -0.01
  26   1     0.02  -0.07   0.04    -0.02   0.03   0.01    -0.06   0.11   0.03
  27   1    -0.02  -0.02   0.01     0.06  -0.07   0.02     0.22  -0.25   0.07
  28   1    -0.07   0.04   0.00     0.00   0.02   0.01     0.00   0.07   0.05
  29   1     0.02  -0.07   0.03    -0.01   0.02   0.02    -0.02   0.08   0.06
  30   1    -0.00   0.00  -0.00     0.01   0.00   0.01     0.00  -0.00   0.01
  31   1    -0.00  -0.00   0.00     0.00  -0.00  -0.01     0.01   0.00  -0.01
  32   1    -0.01   0.00   0.00     0.04  -0.01   0.03    -0.01   0.00  -0.01
  33   1     0.00  -0.00   0.00     0.05   0.01   0.04    -0.01  -0.00  -0.01
  34   1     0.00   0.00   0.00     0.03   0.04   0.07    -0.01  -0.01  -0.02
  35   1     0.00  -0.01   0.01    -0.22   0.02  -0.16     0.06  -0.00   0.04
  36   1    -0.01  -0.00  -0.00     0.01   0.03   0.07     0.00  -0.01  -0.02
  37   1     0.00  -0.00  -0.00    -0.00   0.05   0.06    -0.00  -0.02  -0.02
  38   1    -0.00   0.00   0.00    -0.00   0.03   0.01    -0.00  -0.01  -0.01
  39   1    -0.00   0.00   0.01     0.04   0.03   0.02    -0.01  -0.01  -0.01
  40   1     0.00  -0.00  -0.00     0.06  -0.11  -0.18    -0.02   0.04   0.07
  41   1     0.00  -0.00  -0.00     0.04   0.03   0.04    -0.02  -0.01  -0.01
                     55                     56                     57
                        a                      a                      a 
 Frequencies --   938.2050               942.2313              1034.1923
 Red. masses --    11.7475                11.6706                 8.4243
 Frc consts  --     0.0000                 0.0000                 0.0000
 IR Inten    --   106.6175               166.2953               167.0878
 Raman Activ --     0.0000                 0.0000                 0.0000
 Depolar     --     0.0000                 0.0000                 0.0000
 Atom AN      X      Y      Z        X      Y      Z        X      Y      Z
   1   6     0.00   0.01  -0.01     0.04  -0.26   0.19     0.04  -0.10   0.09
   2   6     0.00   0.01  -0.00    -0.17  -0.26  -0.06    -0.03   0.15  -0.10
   3   8    -0.01  -0.02   0.01     0.17   0.53  -0.34    -0.03  -0.08  -0.00
   4  15     0.01   0.01  -0.00    -0.00   0.01   0.18     0.01   0.02   0.02
   5  16     0.00   0.00   0.00     0.01  -0.01  -0.01     0.00   0.01   0.00
   6   8    -0.01  -0.02  -0.02    -0.10  -0.18  -0.10    -0.08  -0.15  -0.26
   7   6     0.01   0.00   0.01     0.03  -0.00   0.08    -0.10   0.44   0.32
   8   6    -0.00   0.01   0.01    -0.02   0.09   0.05     0.12  -0.36  -0.18
   9  16    -0.00   0.00  -0.00     0.01  -0.00   0.01     0.00   0.00   0.00
  10   6    -0.00  -0.01   0.01    -0.00  -0.01  -0.01     0.00  -0.00  -0.00
  11  16     0.01   0.00  -0.02    -0.00  -0.00   0.00    -0.00   0.00  -0.00
  12  15     0.01   0.08  -0.16    -0.00   0.00  -0.00     0.00  -0.00   0.00
  13  16     0.01  -0.01   0.00     0.00  -0.00   0.00    -0.00   0.00  -0.00
  14   8     0.11   0.24   0.36     0.00   0.01   0.01    -0.01   0.02   0.01
  15   6     0.10  -0.14  -0.09     0.00  -0.00  -0.00     0.00  -0.02  -0.03
  16   6    -0.03  -0.08  -0.13     0.00  -0.00  -0.00     0.01   0.01   0.02
  17   8    -0.46  -0.23  -0.11    -0.01  -0.00  -0.00    -0.00  -0.00  -0.00
  18   6     0.26  -0.05  -0.04     0.00  -0.00  -0.00    -0.00  -0.00  -0.00
  19   6     0.16   0.14   0.23     0.00   0.00   0.00     0.00   0.00   0.00
  20   1    -0.00  -0.00   0.00     0.03   0.08  -0.06     0.01   0.03  -0.01
  21   1    -0.01   0.00  -0.01     0.29  -0.09   0.29     0.09  -0.03   0.10
  22   1     0.00  -0.00   0.01    -0.03   0.11  -0.08     0.01   0.03   0.01
  23   1     0.00  -0.00   0.00    -0.06   0.09  -0.12    -0.01   0.04  -0.04
  24   1     0.00   0.00   0.00    -0.02   0.00  -0.06    -0.02   0.05  -0.04
  25   1     0.00  -0.00   0.00     0.00  -0.00   0.02    -0.09   0.16   0.08
  26   1     0.00  -0.00  -0.00     0.03  -0.07  -0.03    -0.05   0.18   0.10
  27   1    -0.01   0.01  -0.00    -0.09   0.09  -0.03     0.30  -0.34   0.10
  28   1     0.00  -0.00  -0.00    -0.02  -0.02  -0.02     0.03   0.09   0.08
  29   1     0.00  -0.00  -0.00     0.01  -0.04  -0.02    -0.02   0.08   0.11
  30   1    -0.01  -0.01  -0.01     0.00   0.00  -0.01     0.00   0.00  -0.00
  31   1     0.00   0.00   0.01    -0.01  -0.01   0.00    -0.01  -0.01   0.00
  32   1     0.03   0.00   0.04    -0.00   0.00   0.00    -0.01  -0.01  -0.01
  33   1     0.03   0.01   0.02     0.00  -0.00   0.00    -0.00  -0.01  -0.01
  34   1     0.02   0.03   0.04     0.00   0.00   0.00    -0.00  -0.01  -0.01
  35   1    -0.16   0.02  -0.12    -0.01   0.00  -0.01     0.02  -0.00   0.02
  36   1     0.01   0.03   0.05    -0.00   0.00   0.00     0.00  -0.00  -0.01
  37   1    -0.02  -0.07  -0.10    -0.00  -0.00  -0.00     0.00  -0.00  -0.00
  38   1    -0.01  -0.06  -0.06     0.00  -0.00  -0.00    -0.00  -0.00  -0.00
  39   1    -0.07  -0.06  -0.06    -0.00  -0.00  -0.00    -0.00  -0.00  -0.00
  40   1    -0.10   0.20   0.32    -0.00   0.00   0.00    -0.00   0.00   0.00
  41   1    -0.08  -0.02  -0.06    -0.00   0.00  -0.00    -0.00   0.00   0.00
                     58                     59                     60
                        a                      a                      a 
 Frequencies --  1037.6014              1046.6898              1055.8782
 Red. masses --     8.3404                 9.6519                 9.5860
 Frc consts  --     0.0000                 0.0000                 0.0000
 IR Inten    --   138.5427               141.4459               148.4797
 Raman Activ --     0.0000                 0.0000                 0.0000
 Depolar     --     0.0000                 0.0000                 0.0000
 Atom AN      X      Y      Z        X      Y      Z        X      Y      Z
   1   6     0.00  -0.01   0.01    -0.13   0.28  -0.26    -0.00  -0.00   0.00
   2   6    -0.00   0.01  -0.01     0.06  -0.52   0.31     0.00   0.00   0.00
   3   8    -0.01  -0.01   0.00     0.14   0.34  -0.07    -0.00  -0.00  -0.00
   4  15     0.00   0.00  -0.00     0.02   0.01   0.01     0.00   0.00   0.00
   5  16    -0.00   0.00   0.00    -0.00   0.01   0.01    -0.00  -0.00  -0.00
   6   8    -0.00  -0.01  -0.01    -0.05  -0.08  -0.08     0.00  -0.00  -0.00
   7   6    -0.01   0.03   0.02    -0.05   0.13   0.11    -0.00   0.01   0.00
   8   6     0.01  -0.02  -0.01     0.05  -0.10  -0.05     0.00  -0.01   0.00
   9  16    -0.00   0.00   0.00     0.01  -0.00   0.01     0.00  -0.00  -0.00
  10   6     0.00  -0.00  -0.00     0.00   0.00  -0.01    -0.00   0.00  -0.00
  11  16    -0.00   0.01   0.01    -0.00   0.00  -0.00    -0.01  -0.00   0.01
  12  15    -0.01   0.00  -0.02    -0.00  -0.00  -0.00    -0.01  -0.02   0.02
  13  16     0.00  -0.00   0.00     0.00  -0.00   0.00     0.00  -0.00   0.00
  14   8     0.14  -0.19  -0.13     0.00   0.00   0.00    -0.01  -0.09  -0.09
  15   6     0.12   0.28   0.47     0.01   0.00   0.00     0.02   0.08   0.13
  16   6    -0.19  -0.17  -0.38    -0.01   0.00  -0.00    -0.04  -0.03  -0.08
  17   8    -0.07  -0.01  -0.01    -0.00  -0.00   0.00     0.39   0.10   0.08
  18   6     0.10   0.06   0.09     0.00   0.00  -0.00    -0.42  -0.24  -0.35
  19   6    -0.05  -0.05  -0.08    -0.00  -0.00   0.00     0.18   0.19   0.26
  20   1     0.00   0.00  -0.00    -0.04  -0.08   0.04    -0.00   0.00  -0.00
  21   1     0.01  -0.00   0.01    -0.25   0.07  -0.28     0.00  -0.00   0.00
  22   1     0.00   0.00  -0.00    -0.03  -0.09  -0.02    -0.00   0.00  -0.00
  23   1    -0.00   0.00  -0.00     0.04  -0.13   0.12    -0.00   0.00  -0.00
  24   1    -0.00   0.00  -0.00     0.06  -0.17   0.12    -0.00   0.00  -0.00
  25   1    -0.01   0.01   0.00    -0.02   0.06   0.05    -0.00   0.00   0.00
  26   1    -0.00   0.01   0.01    -0.01   0.03  -0.00    -0.00   0.00  -0.00
  27   1     0.02  -0.02   0.01     0.07  -0.09   0.03     0.00  -0.00   0.00
  28   1     0.00   0.00   0.00    -0.00   0.03   0.02     0.00  -0.00  -0.00
  29   1     0.00   0.00   0.00     0.00   0.00   0.03     0.00  -0.00  -0.00
[...]
  33   1    -0.01  -0.00   0.00    -0.01  -0.00   0.01     0.00   0.00  -0.00
  34   1    -0.01  -0.00   0.00     0.00   0.00  -0.00     0.00   0.00  -0.00
  35   1     0.00  -0.00  -0.00    -0.00  -0.00  -0.00    -0.00   0.00   0.00
  36   1    -0.00   0.00  -0.00     0.00  -0.00   0.00     0.00   0.00   0.00
  37   1    -0.00  -0.00   0.00     0.00   0.00  -0.00     0.00   0.00  -0.00
  38   1    -0.00   0.00  -0.00    -0.00   0.00  -0.00     0.00  -0.00   0.00
  39   1     0.00  -0.00   0.00     0.00  -0.00   0.00    -0.00   0.00  -0.00
  40   1    -0.00   0.00  -0.00     0.00   0.00   0.00    -0.00  -0.00  -0.00
  41   1    -0.00  -0.00   0.00     0.00   0.00  -0.00     0.00   0.00  -0.00
                    103                    104                    105
                        a                      a                      a 
 Frequencies --  2975.1081              2979.6359              2988.8555
 Red. masses --     1.7187                 1.7333                 1.9745
 Frc consts  --     0.0000                 0.0000                 0.0000
 IR Inten    --     8.6097                 8.1313                 6.0537
 Raman Activ --     0.0000                 0.0000                 0.0000
 Depolar     --     0.0000                 0.0000                 0.0000
 Atom AN      X      Y      Z        X      Y      Z        X      Y      Z
   1   6    -0.00   0.00   0.00    -0.00  -0.00   0.00     0.00  -0.00  -0.00
   2   6    -0.00   0.00   0.00    -0.00   0.00   0.00     0.00   0.00   0.00
   3   8     0.00   0.00  -0.00    -0.00  -0.00   0.00    -0.00  -0.00   0.00
   4  15     0.00   0.00   0.00    -0.00  -0.00  -0.00    -0.00  -0.00  -0.00
   5  16     0.00  -0.00  -0.00     0.00   0.00   0.00     0.00  -0.00   0.00
   6   8    -0.00  -0.01  -0.01    -0.00  -0.00  -0.00    -0.00   0.00   0.00
   7   6    -0.24  -0.06  -0.02    -0.00  -0.00  -0.00     0.00   0.00   0.00
   8   6     0.02   0.01   0.00     0.00   0.00   0.00     0.00   0.00   0.00
   9  16     0.00  -0.00   0.00     0.00   0.00   0.00    -0.00   0.00  -0.00
  10   6    -0.00   0.00  -0.00     0.00  -0.00   0.00    -0.24   0.16  -0.06
  11  16    -0.00   0.00   0.00    -0.00   0.00  -0.00    -0.00   0.00  -0.00
  12  15     0.00   0.00   0.00    -0.00  -0.00   0.00     0.00   0.00  -0.00
  13  16    -0.00  -0.00  -0.00    -0.00  -0.00   0.00     0.00  -0.00  -0.00
  14   8    -0.00   0.00   0.00    -0.00   0.00   0.00    -0.00   0.00  -0.00
  15   6     0.00   0.00  -0.00    -0.00  -0.00   0.00     0.00   0.00  -0.00
  16   6    -0.00   0.00  -0.00     0.00  -0.00  -0.00    -0.00  -0.00   0.00
  17   8    -0.00  -0.00   0.00     0.01   0.00   0.00    -0.00   0.00   0.00
  18   6    -0.00  -0.00   0.00     0.12   0.13  -0.18     0.00   0.00  -0.00
  19   6    -0.00   0.00  -0.00    -0.02  -0.02   0.02    -0.00   0.00   0.00
  20   1    -0.00   0.00  -0.00    -0.00  -0.00  -0.00    -0.00   0.00   0.00
  21   1    -0.00  -0.00   0.00     0.00   0.00  -0.00     0.00   0.00  -0.00
  22   1     0.00  -0.00  -0.00    -0.00  -0.00   0.00    -0.00  -0.00  -0.00
  23   1     0.01  -0.00  -0.00     0.00  -0.00  -0.00    -0.00   0.00   0.00
  24   1    -0.00   0.00   0.00    -0.00   0.00   0.00     0.00  -0.00  -0.00
  25   1    -0.04  -0.03   0.03    -0.00  -0.00   0.00     0.00   0.00  -0.00
  26   1     0.92   0.25   0.06     0.01   0.00   0.00    -0.00  -0.00  -0.00
  27   1     0.00  -0.01  -0.01     0.00  -0.00  -0.00    -0.00  -0.00  -0.00
  28   1     0.00  -0.01   0.02     0.00   0.00  -0.00     0.00   0.00  -0.00
  29   1    -0.11  -0.03  -0.01    -0.00  -0.00  -0.00    -0.00  -0.00  -0.00
  30   1     0.00  -0.00  -0.00     0.00  -0.00   0.00     0.23  -0.14  -0.23
  31   1     0.00  -0.00   0.00    -0.00   0.00  -0.00     0.62  -0.43   0.46
  32   1     0.00  -0.00   0.00    -0.00  -0.00   0.00     0.00   0.00  -0.00
  33   1    -0.00  -0.00   0.00     0.00   0.00  -0.00    -0.00  -0.00   0.00
  34   1     0.00   0.00  -0.00    -0.00  -0.00   0.00     0.00   0.00  -0.00
  35   1    -0.00   0.00   0.00    -0.00   0.00  -0.00    -0.00  -0.00   0.00
  36   1     0.00  -0.00   0.00     0.00   0.00  -0.00    -0.00   0.00  -0.00
  37   1     0.00   0.00  -0.01    -0.47  -0.49   0.67    -0.00  -0.00   0.00
  38   1    -0.00  -0.00   0.00     0.01   0.03  -0.03    -0.00   0.00  -0.00
  39   1     0.00  -0.00   0.00    -0.01   0.01   0.00     0.00  -0.00   0.00
  40   1     0.00   0.00   0.00     0.02   0.00   0.01     0.00   0.00   0.00
  41   1    -0.00  -0.00   0.00     0.06   0.07  -0.10     0.00   0.00  -0.00
                    106                    107                    108
                        a                      a                      a 
 Frequencies --  3019.6364              3027.2282              3036.3412
 Red. masses --     1.7623                 1.7675                 1.7707
 Frc consts  --     0.0000                 0.0000                 0.0000
 IR Inten    --    56.6785                52.8026                33.6139
 Raman Activ --     0.0000                 0.0000                 0.0000
 Depolar     --     0.0000                 0.0000                 0.0000
 Atom AN      X      Y      Z        X      Y      Z        X      Y      Z
   1   6    -0.00  -0.00  -0.00    -0.00  -0.00   0.00     0.24  -0.02  -0.10
   2   6    -0.00  -0.00   0.00     0.00   0.00   0.00     0.03  -0.00  -0.01
   3   8     0.00   0.00  -0.00     0.00   0.00  -0.00    -0.00   0.00  -0.00
   4  15     0.00  -0.00   0.00    -0.00   0.00   0.00     0.00  -0.00   0.00
   5  16     0.00   0.00   0.00    -0.00   0.00   0.00    -0.00   0.00   0.00
   6   8    -0.00  -0.00  -0.00     0.00  -0.00  -0.00    -0.00   0.00  -0.00
   7   6    -0.00   0.00  -0.00    -0.04  -0.01   0.00    -0.00   0.00  -0.00
   8   6     0.00   0.00   0.00    -0.25  -0.08   0.01    -0.00  -0.00  -0.00
   9  16    -0.00   0.00  -0.00    -0.00  -0.00  -0.00     0.00  -0.00   0.00
  10   6    -0.00   0.00   0.00     0.00  -0.00  -0.00     0.00  -0.00   0.00
  11  16     0.00   0.00   0.00     0.00   0.00  -0.00     0.00  -0.00  -0.00
  12  15    -0.00  -0.00  -0.00    -0.00  -0.00  -0.00    -0.00   0.00  -0.00
  13  16     0.00   0.00   0.00     0.00  -0.00   0.00    -0.00   0.00   0.00
  14   8    -0.00  -0.00  -0.00    -0.00  -0.00   0.00     0.00  -0.00   0.00
  15   6    -0.00   0.00   0.00     0.00  -0.00  -0.00     0.00   0.00  -0.00
  16   6    -0.00  -0.00  -0.00     0.01   0.01  -0.01     0.00   0.00  -0.00
  17   8     0.00   0.00   0.00     0.00   0.00   0.00     0.00  -0.00   0.00
  18   6     0.02   0.03  -0.03     0.00   0.00  -0.00     0.00   0.00  -0.00
  19   6     0.10   0.15  -0.18     0.00   0.00  -0.00     0.00  -0.00   0.00
  20   1    -0.00   0.00   0.00    -0.00   0.00   0.00     0.02   0.06   0.07
  21   1    -0.00  -0.00  -0.00    -0.00   0.00  -0.00     0.03   0.01  -0.02
  22   1     0.00  -0.00  -0.00     0.01  -0.00  -0.00    -0.91   0.01   0.31
  23   1     0.00   0.00  -0.00    -0.00  -0.00   0.00    -0.07   0.00   0.02
  24   1    -0.00   0.00  -0.00     0.00  -0.00  -0.00     0.00   0.01   0.01
  25   1    -0.00  -0.00   0.00     0.00   0.01  -0.02    -0.00  -0.00   0.00
  26   1     0.00   0.00   0.00     0.11   0.03   0.01     0.00   0.00   0.00
  27   1    -0.00  -0.00  -0.00    -0.03  -0.03  -0.02    -0.00  -0.00  -0.00
  28   1     0.00   0.00  -0.00    -0.00   0.05  -0.10    -0.00  -0.00   0.00
  29   1    -0.00  -0.00  -0.00     0.91   0.26   0.09     0.01   0.00   0.00
  30   1     0.00  -0.00  -0.00    -0.00   0.00   0.00     0.00   0.00  -0.00
  31   1     0.00   0.00   0.00     0.00  -0.00   0.00    -0.00   0.00  -0.00
  32   1     0.00  -0.00   0.00    -0.00   0.00  -0.00     0.00  -0.00   0.00
  33   1     0.00   0.00  -0.00    -0.00  -0.00   0.00    -0.00  -0.00   0.00
  34   1     0.00   0.00  -0.00    -0.05  -0.01   0.03    -0.01  -0.00   0.01
  35   1    -0.00   0.00   0.00     0.00  -0.00  -0.00     0.00   0.00  -0.00
  36   1     0.00  -0.00   0.00     0.00  -0.00   0.00     0.00  -0.01   0.00
  37   1    -0.07  -0.07   0.10    -0.00  -0.00   0.00    -0.00  -0.00   0.00
  38   1     0.01  -0.01   0.00     0.00  -0.00  -0.00     0.00  -0.00   0.00
  39   1     0.06  -0.04  -0.01    -0.00   0.00  -0.00    -0.00   0.00  -0.00
  40   1     0.01   0.02  -0.02     0.00   0.00   0.00    -0.00  -0.00  -0.00
  41   1    -0.44  -0.52   0.67    -0.00  -0.00   0.00    -0.00  -0.00   0.00
                    109                    110                    111
                        a                      a                      a 
 Frequencies --  3047.2551              3049.3388              3052.1352
 Red. masses --     1.6379                 1.6319                 1.9455
 Frc consts  --     0.0000                 0.0000                 0.0000
 IR Inten    --    18.4132                18.5462                24.0216
 Raman Activ --     0.0000                 0.0000                 0.0000
 Depolar     --     0.0000                 0.0000                 0.0000
 Atom AN      X      Y      Z        X      Y      Z        X      Y      Z
   1   6    -0.00   0.00   0.00     0.00   0.13   0.20     0.00  -0.01  -0.01
   2   6    -0.00   0.00   0.00    -0.00   0.01   0.02     0.00  -0.00  -0.00
   3   8    -0.00  -0.00   0.00    -0.00  -0.00   0.00    -0.00   0.00   0.00
   4  15     0.00   0.00  -0.00     0.00   0.00  -0.00     0.00   0.00   0.00
   5  16     0.00   0.00   0.00    -0.00  -0.00   0.00    -0.00  -0.00  -0.00
   6   8    -0.00  -0.00  -0.00    -0.00   0.00  -0.00    -0.00  -0.00  -0.00
   7   6    -0.00   0.00  -0.00     0.00   0.00  -0.00    -0.00  -0.00   0.00
   8   6     0.00   0.00  -0.00    -0.00   0.00  -0.00    -0.01  -0.02  -0.01
   9  16     0.00  -0.00  -0.00     0.00   0.00   0.00    -0.00  -0.00   0.00
  10   6    -0.00   0.00  -0.00    -0.00   0.00  -0.00     0.00  -0.00  -0.00
  11  16    -0.00  -0.00   0.00    -0.00   0.00   0.00    -0.00  -0.00   0.00
  12  15     0.00  -0.00  -0.00    -0.00  -0.00  -0.00    -0.00  -0.00   0.00
  13  16    -0.00  -0.00   0.00     0.00  -0.00   0.00     0.00   0.00   0.00
  14   8    -0.00  -0.00  -0.00     0.00   0.00   0.00     0.00   0.00  -0.00
  15   6    -0.00   0.00   0.00    -0.00  -0.00   0.00    -0.01  -0.02   0.01
  16   6    -0.00  -0.00   0.00    -0.00  -0.01   0.01    -0.11  -0.21   0.16
  17   8    -0.00   0.00   0.00     0.00   0.00  -0.00     0.00  -0.00  -0.00
  18   6     0.01  -0.02   0.00    -0.00   0.00  -0.00    -0.00   0.00  -0.00
  19   6     0.12  -0.20   0.03    -0.00   0.00  -0.00    -0.00   0.00  -0.00
  20   1     0.00  -0.01  -0.01     0.07  -0.57  -0.76    -0.00   0.04   0.05
  21   1    -0.00  -0.00   0.00     0.02   0.09   0.01     0.01   0.01  -0.01
  22   1     0.00   0.00  -0.00    -0.10   0.02   0.06    -0.01  -0.00   0.00
  23   1     0.00  -0.00  -0.00     0.00   0.00   0.00    -0.00   0.00   0.00
  24   1     0.00   0.00   0.00     0.01  -0.03  -0.04    -0.00   0.00   0.00
  25   1    -0.00  -0.00   0.00    -0.00  -0.00   0.00     0.00   0.00  -0.00
  26   1     0.00   0.00  -0.00     0.00   0.00  -0.00     0.01   0.00   0.00
  27   1     0.00   0.00   0.00    -0.00  -0.00  -0.00     0.01   0.03   0.05
  28   1    -0.00  -0.00   0.00    -0.00  -0.00   0.01     0.01   0.02  -0.03
  29   1     0.00   0.00  -0.00     0.01   0.00   0.00     0.03   0.01   0.00
  30   1     0.00  -0.00  -0.00     0.00  -0.00  -0.00    -0.00   0.00   0.00
  31   1     0.00  -0.00   0.00     0.00  -0.00   0.00    -0.00   0.00  -0.00
  32   1     0.00  -0.00   0.00    -0.00   0.00  -0.00    -0.00   0.03  -0.02
  33   1     0.00   0.00   0.00     0.00   0.00  -0.00     0.03   0.01  -0.02
  34   1     0.01   0.00  -0.00     0.00  -0.00   0.00     0.47   0.09  -0.24
  35   1    -0.00   0.00   0.00     0.01  -0.02  -0.02    -0.01  -0.04   0.01
  36   1    -0.00  -0.00   0.00    -0.01   0.06  -0.03    -0.08   0.70  -0.35
  37   1     0.00   0.00  -0.00    -0.00   0.00   0.00    -0.00  -0.00  -0.00
  38   1    -0.02   0.04  -0.01     0.00  -0.00   0.00     0.00  -0.00   0.00
  39   1    -0.51   0.79  -0.18     0.01  -0.01   0.00     0.00  -0.00   0.00
  40   1     0.10  -0.00   0.04    -0.00  -0.00  -0.00     0.00   0.00   0.00
  41   1    -0.02  -0.07   0.06    -0.00   0.00   0.00    -0.00   0.00  -0.00
                    112                    113                    114
                        a                      a                      a 
 Frequencies --  3052.8569              3054.1168              3056.7978
 Red. masses --     1.4986                 1.4596                 1.8055
 Frc consts  --     0.0000                 0.0000                 0.0000
 IR Inten    --    10.5042                19.0132                10.7256
 Raman Activ --     0.0000                 0.0000                 0.0000
 Depolar     --     0.0000                 0.0000                 0.0000
 Atom AN      X      Y      Z        X      Y      Z        X      Y      Z
   1   6     0.00   0.00   0.00     0.00   0.01   0.01     0.00   0.00   0.00
   2   6     0.00   0.00   0.00     0.00  -0.00  -0.00     0.00   0.00   0.00
   3   8    -0.00  -0.00  -0.00    -0.00   0.00   0.00    -0.00   0.00  -0.00
   4  15     0.00  -0.00   0.00     0.00   0.00  -0.00    -0.00  -0.00   0.00
   5  16    -0.00  -0.00  -0.00     0.00  -0.00  -0.00     0.00  -0.00  -0.00
   6   8    -0.00   0.00   0.00     0.00  -0.00   0.00    -0.00   0.00  -0.00
   7   6    -0.01  -0.01   0.01    -0.00   0.00  -0.01     0.00  -0.00   0.01
   8   6    -0.05  -0.16   0.12    -0.00   0.01  -0.12     0.02   0.10   0.24
   9  16    -0.00  -0.00  -0.00     0.00   0.00   0.00    -0.00  -0.00  -0.00
  10   6     0.00   0.00   0.00     0.00  -0.00  -0.00     0.00  -0.00   0.00
  11  16     0.00  -0.00   0.00     0.00  -0.00  -0.00     0.00   0.00   0.00
  12  15     0.00   0.00   0.00     0.00   0.00   0.00    -0.00   0.00   0.00
  13  16     0.00  -0.00  -0.00    -0.00   0.00  -0.00     0.00   0.00  -0.00
  14   8    -0.00   0.00  -0.00     0.00   0.00   0.00    -0.00   0.00  -0.00
  15   6    -0.00   0.00  -0.00    -0.01   0.00  -0.00    -0.00  -0.00   0.00
  16   6    -0.04   0.02  -0.01    -0.16   0.04  -0.00    -0.05  -0.01  -0.00
  17   8    -0.00  -0.00  -0.00    -0.00  -0.00   0.00    -0.00  -0.00  -0.00
  18   6    -0.00  -0.00   0.00     0.00   0.00  -0.00     0.00  -0.00   0.00
  19   6    -0.00  -0.00  -0.00    -0.00   0.00  -0.00     0.01   0.00   0.00
  20   1     0.00  -0.01  -0.02     0.00  -0.02  -0.03     0.00  -0.01  -0.01
  21   1     0.00   0.00   0.00    -0.00  -0.01   0.01     0.00   0.00  -0.00
  22   1    -0.01   0.00   0.00    -0.01   0.00   0.00    -0.00   0.00   0.00
  23   1    -0.00  -0.00   0.00    -0.00  -0.00   0.00    -0.00  -0.00   0.00
  24   1     0.00  -0.00  -0.00    -0.00   0.00   0.00    -0.00  -0.00   0.00
  25   1     0.02   0.03  -0.04    -0.00  -0.01   0.01     0.01   0.02  -0.02
  26   1     0.01   0.00   0.00     0.00   0.00  -0.00    -0.01  -0.00  -0.00
  27   1     0.03   0.17   0.29     0.02   0.11   0.15    -0.10  -0.50  -0.72
  28   1     0.23   0.45  -0.70    -0.09  -0.18   0.27     0.07   0.14  -0.17
  29   1    -0.09  -0.04   0.01     0.09   0.03  -0.01    -0.03   0.00   0.03
  30   1    -0.00   0.00   0.00    -0.00   0.00   0.00    -0.00   0.00   0.00
  31   1     0.00   0.00   0.00     0.00  -0.00   0.00    -0.00   0.00  -0.00
  32   1     0.00  -0.01   0.00    -0.00  -0.01   0.01     0.00  -0.00   0.00
  33   1     0.01   0.00  -0.00     0.03   0.01  -0.01     0.01   0.00  -0.00
  34   1     0.16   0.04  -0.09     0.61   0.16  -0.34     0.22   0.06  -0.12
  35   1    -0.02   0.05   0.05    -0.06   0.14   0.13    -0.03   0.09   0.08
  36   1     0.01  -0.17   0.09     0.02  -0.44   0.23     0.00  -0.10   0.05
  37   1     0.00   0.00  -0.00    -0.00  -0.00   0.00     0.00   0.00  -0.00
  38   1    -0.00   0.00  -0.00    -0.00   0.00   0.00    -0.00   0.00  -0.00
  39   1    -0.00   0.00  -0.00     0.01  -0.01   0.00    -0.00   0.00  -0.00
  40   1     0.00   0.00   0.00     0.01   0.00   0.00    -0.02  -0.01  -0.01
  41   1     0.00   0.00  -0.00     0.00   0.00  -0.00     0.00   0.00  -0.00
                    115                    116                    117
                        a                      a                      a 
 Frequencies --  3058.8540              3062.5014              3063.7138
 Red. masses --     1.7702                 1.8645                 1.7655
 Frc consts  --     0.0000                 0.0000                 0.0000
 IR Inten    --    11.4360                12.3877                 9.6143
 Raman Activ --     0.0000                 0.0000                 0.0000
 Depolar     --     0.0000                 0.0000                 0.0000
 Atom AN      X      Y      Z        X      Y      Z        X      Y      Z
   1   6     0.00   0.00  -0.00     0.00   0.01   0.00     0.08   0.25  -0.05
   2   6    -0.00   0.00  -0.00    -0.00   0.00   0.00     0.01   0.01   0.00
   3   8     0.00  -0.00   0.00     0.00  -0.00  -0.00    -0.00  -0.00  -0.00
   4  15    -0.00   0.00  -0.00    -0.00  -0.00   0.00    -0.00  -0.00   0.00
   5  16     0.00   0.00   0.00     0.00   0.00  -0.00    -0.00  -0.00   0.00
   6   8     0.00  -0.00   0.00     0.00   0.00   0.00    -0.00   0.00  -0.00
   7   6    -0.00  -0.00  -0.00     0.00   0.00  -0.00     0.00  -0.00   0.00
   8   6    -0.00  -0.00  -0.01     0.00  -0.00  -0.02    -0.00  -0.00   0.00
   9  16     0.00   0.00  -0.00     0.00  -0.00  -0.00    -0.00   0.00  -0.00
  10   6    -0.00   0.00  -0.00    -0.00   0.00   0.00    -0.00  -0.00   0.00
  11  16    -0.00  -0.00   0.00    -0.00   0.00   0.00     0.00   0.00   0.00
  12  15    -0.00  -0.00   0.00     0.00  -0.00   0.00    -0.00   0.00  -0.00
  13  16    -0.00  -0.00  -0.00    -0.00   0.00  -0.00    -0.00   0.00  -0.00
  14   8     0.00   0.00  -0.00    -0.00   0.00   0.00     0.00  -0.00   0.00
  15   6    -0.00  -0.00   0.00     0.01  -0.01  -0.00    -0.00   0.00   0.00
  16   6    -0.00   0.00   0.00     0.09  -0.20  -0.17    -0.00   0.00   0.01
  17   8    -0.00   0.00   0.00    -0.00  -0.00  -0.00     0.00  -0.00   0.00
  18   6     0.01   0.00  -0.00     0.00  -0.00  -0.00    -0.00   0.00  -0.00
  19   6     0.24   0.05   0.09     0.00   0.00   0.00    -0.00   0.00  -0.00
  20   1    -0.00   0.00   0.00     0.00  -0.01  -0.02     0.02  -0.01  -0.06
  21   1    -0.00  -0.01   0.00    -0.01  -0.03   0.01    -0.27  -0.89   0.24
  22   1     0.00   0.00  -0.00    -0.00   0.00   0.00    -0.01   0.03   0.00
  23   1     0.00  -0.00  -0.00     0.00   0.00  -0.00    -0.01   0.00   0.00
  24   1    -0.00   0.00   0.00     0.00  -0.00  -0.00     0.00  -0.01  -0.01
  25   1    -0.00  -0.00   0.00    -0.00  -0.00   0.00     0.00   0.00  -0.00
  26   1     0.00   0.00   0.00    -0.00   0.00  -0.00    -0.00  -0.00  -0.00
  27   1     0.00   0.01   0.02     0.01   0.03   0.04    -0.00  -0.00  -0.01
  28   1    -0.00  -0.00   0.00    -0.01  -0.02   0.02     0.00   0.01  -0.01
  29   1     0.00   0.00  -0.00    -0.00  -0.00  -0.00     0.00   0.00   0.00
  30   1    -0.00   0.00   0.00     0.00  -0.00  -0.00     0.00  -0.00  -0.00
  31   1     0.00  -0.00   0.00     0.00   0.00  -0.00    -0.00  -0.00   0.00
  32   1    -0.00   0.00  -0.00    -0.00   0.01  -0.01     0.00   0.00  -0.00
  33   1     0.00   0.00  -0.00    -0.01  -0.01   0.01     0.00   0.00  -0.00
  34   1     0.00   0.00  -0.00    -0.14  -0.07   0.06     0.00   0.00  -0.00
  35   1     0.00  -0.01  -0.00    -0.19   0.66   0.63     0.01  -0.03  -0.03
  36   1    -0.00   0.00  -0.00     0.00   0.10  -0.09    -0.00   0.02  -0.01
  37   1    -0.01  -0.01   0.01    -0.00  -0.00   0.00    -0.00  -0.00   0.00
  38   1    -0.00   0.01  -0.00    -0.00   0.00  -0.00     0.00  -0.00   0.00
  39   1    -0.02   0.08  -0.01     0.00   0.00   0.00     0.00  -0.00   0.00
  40   1    -0.87  -0.25  -0.31    -0.01  -0.00  -0.00     0.01   0.00   0.00
  41   1     0.03   0.00   0.01     0.00   0.00  -0.00    -0.00   0.00  -0.00
