      -----------------------------------------------------------      
     |                   =====================                   |     
     |                           x T B                           |     
     |                   =====================                   |     
     |                         S. Grimme                         |     
     |          Mulliken Center for Theoretical Chemistry        |     
     |                    University of Bonn                     |     
      -----------------------------------------------------------      

   * xtb version 6.7.1 (edcfbbe) compiled by 'albert@albert-system' on 2024-07-22

   xtb is free software: you can redistribute it and/or modify it under
   the terms of the GNU Lesser General Public License as published by
   the Free Software Foundation, either version 3 of the License, or
   (at your option) any later version.
   
   xtb is distributed in the hope that it will be useful,
   but WITHOUT ANY WARRANTY; without even the implied warranty of
   MERCHANTABILITY or FITNESS FOR A PARTICULAR PURPOSE.  See the
   GNU Lesser General Public License for more details.
   
   Cite this work as:
   * C. Bannwarth, E. Caldeweyher, S. Ehlert, A. Hansen, P. Pracht,
     J. Seibert, S. Spicher, S. Grimme, WIREs Comput. Mol. Sci., 2020, 11,
     e01493. DOI: 10.1002/wcms.1493
   
   for GFN2-xTB:
   * C. Bannwarth, S. Ehlert and S. Grimme., J. Chem. Theory Comput., 2019,
     15, 1652-1671. DOI: 10.1021/acs.jctc.8b01176
   for GFN1-xTB:
   * S. Grimme, C. Bannwarth, P. Shushkov, J. Chem. Theory Comput., 2017,
     13, 1989-2009. DOI: 10.1021/acs.jctc.7b00118
   for GFN0-xTB:
   * P. Pracht, E. Caldeweyher, S. Ehlert, S. Grimme, ChemRxiv, 2019, preprint.
     DOI: 10.26434/chemrxiv.8326202.v1
   for GFN-FF:
   * S. Spicher and S. Grimme, Angew. Chem. Int. Ed., 2020, 59, 15665-15673.
     DOI: 10.1002/anie.202004239
   
   for ALPB and GBSA implicit solvation:
   * S. Ehlert, M. Stahn, S. Spicher, S. Grimme, J. Chem. Theory Comput.,
     2021, 17, 4250-4261. DOI: 10.1021/acs.jctc.1c00471
   
   for ddCOSMO and CPCM-X implicit solvation:
   * M. Stahn, S. Ehlert, S. Grimme, J. Phys. Chem. A,
     2023, XX, XXXX-XXXX. DOI: 10.1021/acs.jpca.3c04382
   
   for DFT-D4:
   * E. Caldeweyher, C. Bannwarth and S. Grimme, J. Chem. Phys., 2017,
     147, 034112. DOI: 10.1063/1.4993215
   * E. Caldeweyher, S. Ehlert, A. Hansen, H. Neugebauer, S. Spicher,
     C. Bannwarth and S. Grimme, J. Chem. Phys., 2019, 150, 154122.
     DOI: 10.1063/1.5090222
   * E. Caldeweyher, J.-M. Mewes, S. Ehlert and S. Grimme, Phys. Chem. Chem. Phys.
     2020, 22, 8499-8512. DOI: 10.1039/D0CP00502A
   
   for sTDA-xTB:
   * S. Grimme and C. Bannwarth, J. Chem. Phys., 2016, 145, 054103.
     DOI: 10.1063/1.4959605
   
   in the mass-spec context:
   * V. Asgeirsson, C. Bauer and S. Grimme, Chem. Sci., 2017, 8, 4879.
     DOI: 10.1039/c7sc00601b
   * J. Koopman and S. Grimme, ACS Omega 2019, 4, 12, 15120-15133.
     DOI: 10.1021/acsomega.9b02011
   
   for metadynamics refer to:
   * S. Grimme, J. Chem. Theory Comput., 2019, 155, 2847-2862
     DOI: 10.1021/acs.jctc.9b00143
   
   for SPH calculations refer to:
   * S. Spicher and S. Grimme, J. Chem. Theory Comput., 2021, 17, 1701-1714
     DOI: 10.1021/acs.jctc.0c01306
   
   for ONIOM refer to:
   * C. Plett, A. Katbashev, S. Ehlert, S. Grimme, M. Bursch,
     Phys. Chem. Chem. Phys., 2023, 25, 17860-17868. DOI: 10.1039/D3CP02178E
   
   for DIPRO refer to:
   * J. Kohn, N. Gildemeister, S. Grimme, D. Fazzi, A. Hansen,
     J. Chem. Phys., 2023, just accepted.
   
   for PTB refer to:
   * S. Grimme, M. Mueller, A. Hansen, J. Chem. Phys., 2023, 158, 124111.
     DOI: 10.1063/5.0137838
   
   with help from (in alphabetical order)
   P. Atkinson, C. Bannwarth, F. Bohle, G. Brandenburg, E. Caldeweyher
   M. Checinski, S. Dohm, S. Ehlert, S. Ehrlich, I. Gerasimov, C. Hölzer
   A. Katbashev, J. Kohn, J. Koopman, C. Lavigne, S. Lehtola, F. März, M. Müller,
   F. Musil, H. Neugebauer, J. Pisarek, C. Plett, P. Pracht, F. Pultar,
   J. Seibert, P. Shushkov, S. Spicher, M. Stahn, M. Steiner, T. Strunk,
   J. Stückrath, T. Rose, and J. Unsleber
   
 * started run on 2025/04/09 at 05:20:49.117     
   ID    Z sym.   atoms
    1    6 C      1, 2, 7, 8, 10, 15, 16, 18, 19
    2    8 O      3, 6, 14, 17
    3   15 P      4, 12
    4   16 S      5, 9, 11, 13
    5    1 H      20-41

           -------------------------------------------------
          |                Calculation Setup                |
           -------------------------------------------------

          program call               : /srv/scratch/z5358697/.xtb/bin/xtb gas.coord --gfn2 --sp --chrg 0 --norestart --parallel 1
          hostname                   : k163
          coordinate file            : gas.coord
          omp threads                :                     1


           -------------------------------------------------
          |                 G F N 2 - x T B                 |
           -------------------------------------------------

        Reference                      10.1021/acs.jctc.8b01176
      * Hamiltonian:
        H0-scaling (s, p, d)           1.850000    2.230000    2.230000
        zeta-weighting                 0.500000
      * Dispersion:
        s8                             2.700000
        a1                             0.520000
        a2                             5.000000
        s9                             5.000000
      * Repulsion:
        kExp                           1.500000    1.000000
        rExp                           1.000000
      * Coulomb:
        alpha                          2.000000
        third order                    shell-resolved
        anisotropic                    true
        a3                             3.000000
        a5                             4.000000
        cn-shift                       1.200000
        cn-exp                         4.000000
        max-rad                        5.000000


          ...................................................
          :                      SETUP                      :
          :.................................................:
          :  # basis functions                 134          :
          :  # atomic orbitals                 128          :
          :  # shells                           66          :
          :  # electrons                       116          :
          :  max. iterations                   250          :
          :  Hamiltonian                  GFN2-xTB          :
          :  restarted?                      false          :
          :  GBSA solvation                  false          :
          :  PC potential                    false          :
          :  electronic temp.          300.0000000     K    :
          :  accuracy                    1.0000000          :
          :  -> integral cutoff          0.2500000E+02      :
          :  -> integral neglect         0.1000000E-07      :
          :  -> SCF convergence          0.1000000E-05 Eh   :
          :  -> wf. convergence          0.1000000E-03 e    :
          :  Broyden damping             0.4000000          :
          :  net charge                          0          :
          :  unpaired electrons                  0          :
          ...................................................

 iter      E             dE          RMSdq      gap      omega  full diag
   1    -65.3808613 -0.653809E+02  0.619E+00    4.19       0.0  T
   2    -65.5498246 -0.168963E+00  0.389E+00    3.08       1.0  T
   3    -65.5693408 -0.195162E-01  0.146E+00    3.00       1.0  T
   4    -65.5718177 -0.247687E-02  0.599E-01    2.77       1.0  T
   5    -65.5726195 -0.801850E-03  0.248E-01    2.89       1.0  T
   6    -65.5727630 -0.143437E-03  0.124E-01    2.87       1.0  T
   7    -65.5728131 -0.500931E-04  0.483E-02    2.88       1.0  T
   8    -65.5728231 -0.100179E-04  0.224E-02    2.89       1.0  T
   9    -65.5728244 -0.137481E-05  0.555E-03    2.89       2.8  T
  10    -65.5728246 -0.124851E-06  0.262E-03    2.89       6.0  T
  11    -65.5728246 -0.523025E-08  0.631E-04    2.89      24.7  T
  12    -65.5728246 -0.215596E-08  0.285E-04    2.89      54.8  T

   *** convergence criteria satisfied after 12 iterations ***

         #    Occupation            Energy/Eh            Energy/eV
      -------------------------------------------------------------
         1        2.0000           -0.7582187             -20.6322
       ...           ...                  ...                  ...
        52        2.0000           -0.4317083             -11.7474
        53        2.0000           -0.4055948             -11.0368
        54        2.0000           -0.3950410             -10.7496
        55        2.0000           -0.3724400             -10.1346
        56        2.0000           -0.3715560             -10.1106
        57        2.0000           -0.3652781              -9.9397
        58        2.0000           -0.3632954              -9.8858 (HOMO)
        59                         -0.2571127              -6.9964 (LUMO)
        60                         -0.2445806              -6.6554
        61                         -0.2044736              -5.5640
        62                         -0.1746539              -4.7526
        63                         -0.1682101              -4.5772
       ...                                ...                  ...
       128                          1.2897202              35.0951
      -------------------------------------------------------------
                  HL-Gap            0.1061827 Eh            2.8894 eV
             Fermi-level           -0.3102041 Eh           -8.4411 eV

 SCC (total)                   0 d,  0 h,  0 min,  0.063 sec
 SCC setup                      ...        0 min,  0.000 sec (  0.427%)
 Dispersion                     ...        0 min,  0.000 sec (  0.507%)
 classical contributions        ...        0 min,  0.000 sec (  0.093%)
 integral evaluation            ...        0 min,  0.014 sec ( 22.184%)
 iterations                     ...        0 min,  0.026 sec ( 40.544%)
 molecular gradient             ...        0 min,  0.023 sec ( 35.887%)
 printout                       ...        0 min,  0.000 sec (  0.327%)

         :::::::::::::::::::::::::::::::::::::::::::::::::::::
         ::                     SUMMARY                     ::
         :::::::::::::::::::::::::::::::::::::::::::::::::::::
         :: total energy             -65.010352411869 Eh    ::
         :: gradient norm              0.039255113714 Eh/a0 ::
         :: HOMO-LUMO gap              2.889378412019 eV    ::
         ::.................................................::
         :: SCC energy               -65.571501878160 Eh    ::
         :: -> isotropic ES            0.104868131051 Eh    ::
         :: -> anisotropic ES         -0.012481348913 Eh    ::
         :: -> anisotropic XC          0.031347400190 Eh    ::
         :: -> dispersion             -0.054656061046 Eh    ::
         :: repulsion energy           0.561149466291 Eh    ::
         :: add. restraining           0.000000000000 Eh    ::
         :: total charge               0.000000000000 e     ::
         :::::::::::::::::::::::::::::::::::::::::::::::::::::

           -------------------------------------------------
          |                Property Printout                |
           -------------------------------------------------

    * Orbital Energies and Occupations

         #    Occupation            Energy/Eh            Energy/eV
      -------------------------------------------------------------
         1        2.0000           -0.7582187             -20.6322
       ...           ...                  ...                  ...
        46        2.0000           -0.4664914             -12.6939
        47        2.0000           -0.4644284             -12.6377
        48        2.0000           -0.4598468             -12.5131
        49        2.0000           -0.4564630             -12.4210
        50        2.0000           -0.4498757             -12.2417
        51        2.0000           -0.4394345             -11.9576
        52        2.0000           -0.4317083             -11.7474
        53        2.0000           -0.4055948             -11.0368
        54        2.0000           -0.3950410             -10.7496
        55        2.0000           -0.3724400             -10.1346
        56        2.0000           -0.3715560             -10.1106
        57        2.0000           -0.3652781              -9.9397
        58        2.0000           -0.3632954              -9.8858 (HOMO)
        59                         -0.2571127              -6.9964 (LUMO)
        60                         -0.2445806              -6.6554
        61                         -0.2044736              -5.5640
        62                         -0.1746539              -4.7526
        63                         -0.1682101              -4.5772
        64                         -0.1627214              -4.4279
        65                         -0.1446889              -3.9372
        66                         -0.1438896              -3.9154
        67                         -0.1181505              -3.2150
        68                         -0.1089762              -2.9654
        69                         -0.0414267              -1.1273
       ...                                ...                  ...
       128                          1.2897202              35.0951
      -------------------------------------------------------------
                  HL-Gap            0.1061827 Eh            2.8894 eV
             Fermi-level           -0.3102041 Eh           -8.4411 eV

     #   Z          covCN         q      C6AA      α(0)
     1   6 C        3.751    -0.119    22.838     6.815
     2   6 C        3.857     0.084    19.159     6.225
     3   8 O        1.655    -0.253    18.216     5.762
     4  15 P        3.817     0.374   144.663    21.606
     5  16 S        0.926    -0.391   156.223    21.141
     6   8 O        1.653    -0.240    17.988     5.725
     7   6 C        3.812     0.078    19.267     6.248
     8   6 C        3.751    -0.120    22.865     6.819
     9  16 S        2.027    -0.148   147.284    20.426
    10   6 C        3.809     0.045    19.808     6.335
    11  16 S        2.041    -0.176   148.501    20.510
    12  15 P        3.791     0.372   144.765    21.613
    13  16 S        0.927    -0.372   155.310    21.079
    14   8 O        1.655    -0.246    18.087     5.741
    15   6 C        3.844     0.084    19.156     6.226
    16   6 C        3.751    -0.114    22.739     6.800
    17   8 O        1.654    -0.244    18.053     5.736
    18   6 C        3.821     0.080    19.236     6.242
    19   6 C        3.751    -0.117    22.798     6.809
    20   1 H        0.925     0.066     2.134     2.285
    21   1 H        0.925     0.061     2.184     2.311
    22   1 H        0.925     0.062     2.170     2.304
    23   1 H        0.924     0.063     2.159     2.298
    24   1 H        0.924     0.063     2.164     2.300
    25   1 H        0.924     0.060     2.195     2.317
    26   1 H        0.924     0.067     2.115     2.274
    27   1 H        0.925     0.065     2.137     2.286
    28   1 H        0.925     0.058     2.224     2.332
    29   1 H        0.925     0.067     2.124     2.279
    30   1 H        0.925     0.073     2.050     2.239
    31   1 H        0.924     0.091     1.865     2.136
    32   1 H        0.924     0.072     2.061     2.245
    33   1 H        0.924     0.059     2.213     2.326
    34   1 H        0.925     0.051     2.302     2.373
    35   1 H        0.925     0.066     2.131     2.283
    36   1 H        0.925     0.059     2.215     2.327
    37   1 H        0.924     0.060     2.198     2.318
    38   1 H        0.924     0.069     2.092     2.262
    39   1 H        0.925     0.064     2.147     2.292
    40   1 H        0.925     0.058     2.218     2.329
    41   1 H        0.925     0.063     2.159     2.298

 Mol. C6AA /au·bohr⁶  :      26538.714057
 Mol. C8AA /au·bohr⁸  :     863213.324305
 Mol. α(0) /au        :        258.271054


Wiberg/Mayer (AO) data.
largest (>0.10) Wiberg bond orders for each atom

 ---------------------------------------------------------------------------
     #   Z sym  total        # sym  WBO       # sym  WBO       # sym  WBO
 ---------------------------------------------------------------------------
     1   6 C    3.990 --     2 C    1.022    22 H    0.982    21 H    0.980
                            20 H    0.976
     2   6 C    3.908 --     1 C    1.022    24 H    0.970    23 H    0.969
                             3 O    0.904
     3   8 O    2.405 --     4 P    1.305     2 C    0.904
     4  15 P    5.282 --     5 S    1.571     6 O    1.335     3 O    1.305
                             9 S    0.939
     5  16 S    1.897 --     4 P    1.571     9 S    0.141
     6   8 O    2.414 --     4 P    1.335     7 C    0.885
     7   6 C    3.910 --     8 C    1.021    25 H    0.972    26 H    0.970
                             6 O    0.885
     8   6 C    3.988 --     7 C    1.021    29 H    0.982    27 H    0.980
                            28 H    0.979
     9  16 S    2.262 --    10 C    0.996     4 P    0.939     5 S    0.141
    10   6 C    3.955 --     9 S    0.996    11 S    0.977    30 H    0.970
                            31 H    0.941
    11  16 S    2.261 --    10 C    0.977    12 P    0.943    13 S    0.148
    12  15 P    5.286 --    13 S    1.574    17 O    1.329    14 O    1.316
                            11 S    0.943
    13  16 S    1.925 --    12 P    1.574    11 S    0.148
    14   8 O    2.417 --    12 P    1.316    15 C    0.901
    15   6 C    3.903 --    16 C    1.020    33 H    0.971    32 H    0.964
                            14 O    0.901
    16   6 C    3.990 --    15 C    1.020    34 H    0.985    36 H    0.980
                            35 H    0.977
    17   8 O    2.402 --    12 P    1.329    18 C    0.890
    18   6 C    3.913 --    19 C    1.023    37 H    0.973    38 H    0.970
                            17 O    0.890
    19   6 C    3.991 --    18 C    1.023    41 H    0.983    40 H    0.979
                            39 H    0.974
    20   1 H    0.996 --     1 C    0.976
    21   1 H    0.996 --     1 C    0.980
    22   1 H    0.996 --     1 C    0.982
    23   1 H    0.996 --     2 C    0.969
    24   1 H    0.996 --     2 C    0.970
    25   1 H    0.996 --     7 C    0.972
    26   1 H    0.995 --     7 C    0.970
    27   1 H    0.996 --     8 C    0.980
    28   1 H    0.995 --     8 C    0.979
    29   1 H    0.996 --     8 C    0.982
    30   1 H    0.994 --    10 C    0.970
    31   1 H    0.992 --    10 C    0.941
    32   1 H    0.995 --    15 C    0.964
    33   1 H    0.996 --    15 C    0.971
    34   1 H    0.997 --    16 C    0.985
    35   1 H    0.996 --    16 C    0.977
    36   1 H    0.996 --    16 C    0.980
    37   1 H    0.996 --    18 C    0.973
    38   1 H    0.995 --    18 C    0.970
    39   1 H    0.996 --    19 C    0.974
    40   1 H    0.995 --    19 C    0.979
    41   1 H    0.996 --    19 C    0.983
 ---------------------------------------------------------------------------

Topologies differ in total number of bonds
Writing topology from bond orders to xtbtopo.mol

molecular dipole:
                 x           y           z       tot (Debye)
 q only:        0.901      -1.333       2.450
   full:        0.597      -1.177       2.699       7.637
molecular quadrupole (traceless):
                xx          xy          yy          xz          yz          zz
 q only:       18.805       4.013      -9.661     -14.851       3.213      -9.144
  q+dip:       24.527       4.902     -11.437     -12.499       7.518     -13.089
   full:       25.205       5.454     -12.029     -12.459       7.217     -13.176


           -------------------------------------------------
          | TOTAL ENERGY              -65.010352411869 Eh   |
          | GRADIENT NORM               0.039255113714 Eh/α |
          | HOMO-LUMO GAP               2.889378412019 eV   |
           -------------------------------------------------

------------------------------------------------------------------------
 * finished run on 2025/04/09 at 05:20:49.256     
------------------------------------------------------------------------
 total:
 * wall-time:     0 d,  0 h,  0 min,  0.139 sec
 *  cpu-time:     0 d,  0 h,  0 min,  0.071 sec
 * ratio c/w:     0.510 speedup
 SCF:
 * wall-time:     0 d,  0 h,  0 min,  0.063 sec
 *  cpu-time:     0 d,  0 h,  0 min,  0.058 sec
 * ratio c/w:     0.907 speedup

