      -----------------------------------------------------------      
     |                   =====================                   |     
     |                           x T B                           |     
     |                   =====================                   |     
     |                         S. Grimme                         |     
     |          Mulliken Center for Theoretical Chemistry        |     
     |                    University of Bonn                     |     
      -----------------------------------------------------------      

   * xtb version 6.7.1 (edcfbbe) compiled by 'albert@albert-system' on 2024-07-22

   xtb is free software: you can redistribute it and/or modify it under
   the terms of the GNU Lesser General Public License as published by
   the Free Software Foundation, either version 3 of the License, or
   (at your option) any later version.
   
   xtb is distributed in the hope that it will be useful,
   but WITHOUT ANY WARRANTY; without even the implied warranty of
   MERCHANTABILITY or FITNESS FOR A PARTICULAR PURPOSE.  See the
   GNU Lesser General Public License for more details.
   
   Cite this work as:
   * C. Bannwarth, E. Caldeweyher, S. Ehlert, A. Hansen, P. Pracht,
     J. Seibert, S. Spicher, S. Grimme, WIREs Comput. Mol. Sci., 2020, 11,
     e01493. DOI: 10.1002/wcms.1493
   
   for GFN2-xTB:
   * C. Bannwarth, S. Ehlert and S. Grimme., J. Chem. Theory Comput., 2019,
     15, 1652-1671. DOI: 10.1021/acs.jctc.8b01176
   for GFN1-xTB:
   * S. Grimme, C. Bannwarth, P. Shushkov, J. Chem. Theory Comput., 2017,
     13, 1989-2009. DOI: 10.1021/acs.jctc.7b00118
   for GFN0-xTB:
   * P. Pracht, E. Caldeweyher, S. Ehlert, S. Grimme, ChemRxiv, 2019, preprint.
     DOI: 10.26434/chemrxiv.8326202.v1
   for GFN-FF:
   * S. Spicher and S. Grimme, Angew. Chem. Int. Ed., 2020, 59, 15665-15673.
     DOI: 10.1002/anie.202004239
   
   for ALPB and GBSA implicit solvation:
   * S. Ehlert, M. Stahn, S. Spicher, S. Grimme, J. Chem. Theory Comput.,
     2021, 17, 4250-4261. DOI: 10.1021/acs.jctc.1c00471
   
   for ddCOSMO and CPCM-X implicit solvation:
   * M. Stahn, S. Ehlert, S. Grimme, J. Phys. Chem. A,
     2023, XX, XXXX-XXXX. DOI: 10.1021/acs.jpca.3c04382
   
   for DFT-D4:
   * E. Caldeweyher, C. Bannwarth and S. Grimme, J. Chem. Phys., 2017,
     147, 034112. DOI: 10.1063/1.4993215
   * E. Caldeweyher, S. Ehlert, A. Hansen, H. Neugebauer, S. Spicher,
     C. Bannwarth and S. Grimme, J. Chem. Phys., 2019, 150, 154122.
     DOI: 10.1063/1.5090222
   * E. Caldeweyher, J.-M. Mewes, S. Ehlert and S. Grimme, Phys. Chem. Chem. Phys.
     2020, 22, 8499-8512. DOI: 10.1039/D0CP00502A
   
   for sTDA-xTB:
   * S. Grimme and C. Bannwarth, J. Chem. Phys., 2016, 145, 054103.
     DOI: 10.1063/1.4959605
   
   in the mass-spec context:
   * V. Asgeirsson, C. Bauer and S. Grimme, Chem. Sci., 2017, 8, 4879.
     DOI: 10.1039/c7sc00601b
   * J. Koopman and S. Grimme, ACS Omega 2019, 4, 12, 15120-15133.
     DOI: 10.1021/acsomega.9b02011
   
   for metadynamics refer to:
   * S. Grimme, J. Chem. Theory Comput., 2019, 155, 2847-2862
     DOI: 10.1021/acs.jctc.9b00143
   
   for SPH calculations refer to:
   * S. Spicher and S. Grimme, J. Chem. Theory Comput., 2021, 17, 1701-1714
     DOI: 10.1021/acs.jctc.0c01306
   
   for ONIOM refer to:
   * C. Plett, A. Katbashev, S. Ehlert, S. Grimme, M. Bursch,
     Phys. Chem. Chem. Phys., 2023, 25, 17860-17868. DOI: 10.1039/D3CP02178E
   
   for DIPRO refer to:
   * J. Kohn, N. Gildemeister, S. Grimme, D. Fazzi, A. Hansen,
     J. Chem. Phys., 2023, just accepted.
   
   for PTB refer to:
   * S. Grimme, M. Mueller, A. Hansen, J. Chem. Phys., 2023, 158, 124111.
     DOI: 10.1063/5.0137838
   
   with help from (in alphabetical order)
   P. Atkinson, C. Bannwarth, F. Bohle, G. Brandenburg, E. Caldeweyher
   M. Checinski, S. Dohm, S. Ehlert, S. Ehrlich, I. Gerasimov, C. Hölzer
   A. Katbashev, J. Kohn, J. Koopman, C. Lavigne, S. Lehtola, F. März, M. Müller,
   F. Musil, H. Neugebauer, J. Pisarek, C. Plett, P. Pracht, F. Pultar,
   J. Seibert, P. Shushkov, S. Spicher, M. Stahn, M. Steiner, T. Strunk,
   J. Stückrath, T. Rose, and J. Unsleber
   
 * started run on 2025/04/03 at 19:41:28.517     
   ID    Z sym.   atoms
    1    6 C      1-8
    2    8 O      9
    3    1 H      10-19

           -------------------------------------------------
          |                Calculation Setup                |
           -------------------------------------------------

          program call               : /srv/scratch/z5358697/.xtb/bin/xtb xtb_opt.coord --opt normal --orca -I xtb_opt-xcontrol-inp
          hostname                   : k161
          coordinate file            : xtb_opt.coord
          omp threads                :                     8

           -------------------------------------------------
          |                   Orca driver                   |
           -------------------------------------------------
orca executable           : /apps/z_install_tree/linux-rocky8-ivybridge/gcc-12.2.0/orca-6.0.0-srtngmq3qlimg2qxbl6avaaiffipurdx/bin/orca
orca input file           : xtb_opt.inp
orca input line           : 
orca parallel             : true
orca number of threads    : 8
                         * ORCA takes the control...
  ------------------------------------------------------------------------

                                 *****************
                                 * O   R   C   A *
                                 *****************

                                            #,                                       
                                            ###                                      
                                            ####                                     
                                            #####                                    
                                            ######                                   
                                           ########,                                 
                                     ,,################,,,,,                         
                               ,,#################################,,                 
                          ,,##########################################,,             
                       ,#########################################, ''#####,          
                    ,#############################################,,   '####,        
                  ,##################################################,,,,####,       
                ,###########''''           ''''###############################       
              ,#####''   ,,,,##########,,,,          '''####'''          '####       
            ,##' ,,,,###########################,,,                        '##       
           ' ,,###''''                  '''############,,,                           
         ,,##''                                '''############,,,,        ,,,,,,###''
      ,#''                                            '''#######################'''  
     '                                                          ''''####''''         
             ,#######,   #######,   ,#######,      ##                                
            ,#'     '#,  ##    ##  ,#'     '#,    #''#        ,####,   ,####,        
            ##       ##  ##   ,#'  ##            #'  '#       #'       #'  '#        
            ##       ##  #######   ##           ,######,      #####,   #    #        
            '#,     ,#'  ##    ##  '#,     ,#' ,#      #,     #,   #   #,  ,#        
             '#######'   ##     ##  '#######'  #'      '#     '####' # '####'        



                #########################################################
                #                        -***-                          #
                #          Department of theory and spectroscopy        #
                #                                                       #
                #                      Frank Neese                      #
                #                                                       #
                #     Directorship, Architecture, Infrastructure        #
                #                    SHARK, DRIVERS                     #
                #        Core code/Algorithms in most modules           #
                #                                                       #
                #        Max Planck Institute fuer Kohlenforschung      #
                #                Kaiser Wilhelm Platz 1                 #
                #                 D-45470 Muelheim/Ruhr                 #
                #                      Germany                          #
                #                                                       #
                #                  All rights reserved                  #
                #                        -***-                          #
                #########################################################


                         Program Version 6.0.0  -   RELEASE  -


 With contributions from (in alphabetic order):
   Daniel Aravena         : Magnetic Suceptibility
   Michael Atanasov       : Ab Initio Ligand Field Theory (pilot matlab implementation)
   Alexander A. Auer      : GIAO ZORA, VPT2 properties, NMR spectrum
   Ute Becker             : All parallelization in ORCA, NUMFREQ, NUMCALC
   Giovanni Bistoni       : ED, misc. LED, open-shell LED, HFLD
   Martin Brehm           : Molecular dynamics
   Dmytro Bykov           : pre 5.0 version of the SCF Hessian
   Marcos Casanova-Páez   : Triplet and SCS-CIS(D). UHF-(DLPNO)-IP/EA/STEOM-CCSD. UHF-CVS-IP/STEOM-CCSD
   Vijay G. Chilkuri      : MRCI spin determinant printing, contributions to CSF-ICE
   Pauline Colinet        : FMM embedding
   Dipayan Datta          : RHF DLPNO-CCSD density
   Achintya Kumar Dutta   : EOM-CC, STEOM-CC
   Nicolas Foglia         : Exact transition moments, OPA infrastructure, MCD improvements
   Dmitry Ganyushin       : Spin-Orbit,Spin-Spin,Magnetic field MRCI
   Miquel Garcia          : C-PCM and meta-GGA Hessian, CCSD/C-PCM, Gaussian charge scheme
   Tiago L. C. Gouveia    : GS-ROHF, GS-ROCIS
   Yang Guo               : DLPNO-NEVPT2, F12-NEVPT2, CIM, IAO-localization
   Andreas Hansen         : Spin unrestricted coupled pair/coupled cluster methods
   Ingolf Harden          : AUTO-CI MPn and infrastructure 
   Benjamin Helmich-Paris : MC-RPA, TRAH-(SCF,CASSCF), AVAS, COSX integrals, SCF dyn. polar.
   Lee Huntington         : MR-EOM, pCC
   Robert Izsak           : Overlap fitted RIJCOSX, COSX-SCS-MP3, EOM
   Riya Kayal             : Wick's Theorem for AUTO-CI, AUTO-CI UHF-CCSDT
   Emily Kempfer          : AUTO-CI, RHF CISDT and CCSDT
   Christian Kollmar      : KDIIS, OOCD, Brueckner-CCSD(T), CCSD density, CASPT2, CASPT2-K, improved NEVPT2
   Axel Koslowski         : Symmetry handling
   Simone Kossmann        : Meta GGA functionals, TD-DFT gradient, OOMP2, (MP2 Hessian; deprecated post 5.0)
   Lucas Lang             : DCDCAS
   Marvin Lechner         : AUTO-CI (C++ implementation), FIC-MRCC
   Spencer Leger          : CASSCF response
   Dagmar Lenk            : GEPOL surface, SMD, ORCA-2-JSON
   Dimitrios Liakos       : Extrapolation schemes; Compound Job, initial MDCI parallelization
   Dimitrios Manganas     : Further ROCIS development; embedding schemes. LFT, Crystal Embedding
   Dimitrios Pantazis     : SARC Basis sets
   Anastasios Papadopoulos: AUTO-CI, single reference methods and gradients
   Taras Petrenko         : pre 6.0 DFT Hessian and TD-DFT gradient, (ASA, deprecated), ECA, 1-Electron XAS/XES, NRVS
   Peter Pinski           : DLPNO-MP2, DLPNO-MP2 Gradient
   Christoph Reimann      : Effective Core Potentials
   Marius Retegan         : Local ZFS, SOC
   Christoph Riplinger    : Optimizer, TS searches, QM/MM, DLPNO-CCSD(T), (RO)-DLPNO pert. Triples
   Michael Roemelt        : Original ROCIS implementation
   Masaaki Saitow         : Open-shell DLPNO-CCSD energy and density
   Barbara Sandhoefer     : DKH picture change effects
   Kantharuban Sivalingam : CASSCF convergence/infrastructure, NEVPT2 and variants, FIC-MRCI
   Bernardo de Souza      : ESD, SOC TD-DFT
   Georgi Stoychev        : AutoAux, RI-MP2 NMR, DLPNO-MP2 response, X2C
   Van Anh Tran           : RI-MP2 g-tensors
   Willem Van den Heuvel  : Paramagnetic NMR
   Zikuan Wang            : NOTCH, Electric field optimization 
   Frank Wennmohs         : Technical directorship and infrastructure
   Hang Xu                : AUTO-CI-Response properties 


 We gratefully acknowledge several colleagues who have allowed us to
 interface, adapt or use parts of their codes:
   Stefan Grimme, W. Hujo, H. Kruse, P. Pracht,  : VdW corrections, initial TS optimization,
                  C. Bannwarth, S. Ehlert,         DFT functionals, gCP, sTDA/sTD-DF
                  L. Wittmann, M. Mueller
   Ed Valeev, F. Pavosevic, A. Kumar             : LibInt (2-el integral package), F12 methods
   Garnet Chan, S. Sharma, J. Yang, R. Olivares  : DMRG
   Ulf Ekstrom                                   : XCFun DFT Library
   Mihaly Kallay                                 : mrcc  (arbitrary order and MRCC methods)
   Frank Weinhold                                : gennbo (NPA and NBO analysis)
   Simon Mueller                                 : openCOSMO-RS
   Christopher J. Cramer and Donald G. Truhlar   : smd solvation model
   Lars Goerigk                                  : TD-DFT with DH, B97 family of functionals
   V. Asgeirsson, H. Jonsson                     : NEB implementation
   FAccTs GmbH                                   : IRC, NEB, NEB-TS, DLPNO-Multilevel, CI-OPT
                                                   MM, QMMM, 2- and 3-layer-ONIOM, Crystal-QMMM,
                                                   LR-CPCM, SF, NACMEs, symmetry and pop. for TD-DFT,
                                                   nearIR, NL-DFT gradient (VV10), updates on ESD,
                                                   ML-optimized integration grids, MBIS, APM,
                                                   GOAT, DOCKER, SOLVATOR, interface openCOSMO-RS
   S Lehtola, MJT Oliveira, MAL Marques          : LibXC Library
   Liviu Ungur et al                             : ANISO software


 Your calculation uses the libint2 library for the computation of 2-el integrals
 For citations please refer to: http://libint.valeyev.net

 Your ORCA version has been built with support for libXC version: 6.2.2
 For citations please refer to: https://libxc.gitlab.io

 This ORCA versions uses:
   CBLAS   interface :  Fast vector & matrix operations
   LAPACKE interface :  Fast linear algebra routines
   SCALAPACK package :  Parallel linear algebra routines
   Shared memory     :  Shared parallel matrices
   BLAS/LAPACK       :  OpenBLAS 0.3.27  USE64BITINT DYNAMIC_ARCH NO_AFFINITY SapphireRapids SINGLE_THREADED
        Core in use  :  SapphireRapids
   Copyright (c) 2011-2014, The OpenBLAS Project




***************************************
The coordinates will be read from file: xtb_opt.xyz
***************************************


Your calculation utilizes the geometrical counterpoise correction gCP
Please cite in your paper:
H.Kruse, S. Grimme J.Chem.Phys., 136, (2012), 154101 
   

Your calculation utilizes the atom-pairwise dispersion correction
based on EEQ partial charges (D4)


Your calculation utilizes the SMD solvation module
Please cite in your paper:
A.V. Marenich, C.J. Cramer, D.G. Truhlar J. Phys. Chem. B, 113, (2009), 6378 

================================================================================

----- Orbital basis set information -----
Your calculation utilizes the basis: def2-mTZVPP
   Stefan Grimme, Andreas Hansen, Sebastian Ehlert, and Jan-Michael Mewes 
   J. Chem. Phys. 154, 064103 (2021). DOI: 10.1063/5.0040021

----- AuxJ basis set information -----
Your calculation utilizes the auxiliary basis: def2/J
   F. Weigend, Phys. Chem. Chem. Phys. 8, 1057 (2006).

================================================================================
                                        WARNINGS
                       Please study these warnings very carefully!
================================================================================

Using LibXC functional ID 497 : Re-regularized SCAN exchange by Furness et al
[ 1]  J. W. Furness, A. D. Kaplan, J. Ning, J. P. Perdew, and J. Sun.,  J. Phys. Chem. Lett. 11, 8208-8215 (2020)
[ 2]  J. W. Furness, A. D. Kaplan, J. Ning, J. P. Perdew, and J. Sun.,  J. Phys. Chem. Lett. 11, 9248-9248 (2020)
Using LibXC functional ID 498 : Re-regularized SCAN correlation by Furness et al
[ 1]  J. W. Furness, A. D. Kaplan, J. Ning, J. P. Perdew, and J. Sun.,  J. Phys. Chem. Lett. 11, 8208-8215 (2020)
[ 2]  J. W. Furness, A. D. Kaplan, J. Ning, J. P. Perdew, and J. Sun.,  J. Phys. Chem. Lett. 11, 9248-9248 (2020)
Using LibXC functional ID 497 : Re-regularized SCAN exchange by Furness et al
[ 1]  J. W. Furness, A. D. Kaplan, J. Ning, J. P. Perdew, and J. Sun.,  J. Phys. Chem. Lett. 11, 8208-8215 (2020)
[ 2]  J. W. Furness, A. D. Kaplan, J. Ning, J. P. Perdew, and J. Sun.,  J. Phys. Chem. Lett. 11, 9248-9248 (2020)
Using LibXC functional ID 498 : Re-regularized SCAN correlation by Furness et al
[ 1]  J. W. Furness, A. D. Kaplan, J. Ning, J. P. Perdew, and J. Sun.,  J. Phys. Chem. Lett. 11, 8208-8215 (2020)
[ 2]  J. W. Furness, A. D. Kaplan, J. Ning, J. P. Perdew, and J. Sun.,  J. Phys. Chem. Lett. 11, 9248-9248 (2020)

================================================================================
                                       INPUT FILE
================================================================================
NAME = xtb_opt.inp
|  1> ! r2scan-3c def2/J RI DEFGRID2 scfconv7 ENGRAD tightSCF miniprint
|  2> %cpcm
|  3>     smd true
|  4>     smdsolvent "water"
|  5> end
|  6> * xyzfile 0 1 xtb_opt.xyz
|  7> 
|  8>                          ****END OF INPUT****
================================================================================

                     *******************************
                     * Energy+Gradient Calculation *
                     *******************************

---------------------------------
CARTESIAN COORDINATES (ANGSTROEM)
---------------------------------
  C     -2.616437    0.552447    0.000347
  C     -1.235578   -0.039278   -0.000188
  C     -1.148780   -1.431873   -0.000122
  C      0.068926   -2.076811   -0.000041
  C      1.238171   -1.335763    0.000073
  C      1.167806    0.047350    0.000007
  C     -0.066939    0.716024   -0.000497
  C     -0.003541    2.215677   -0.000122
  O      2.294482    0.819191    0.000237
  H     -3.160000    0.210227    0.879526
  H     -2.612659    1.635980    0.002318
  H     -3.159785    0.212912   -0.880078
  H     -2.061296   -2.009706    0.000073
  H      0.115941   -3.155324    0.000116
  H      2.199251   -1.830100    0.000289
  H      0.565312    2.553447   -0.865475
  H     -0.981670    2.680726   -0.020265
  H      0.529951    2.554960    0.887109
  H      3.082939    0.257345   -0.000911

----------------------------
CARTESIAN COORDINATES (A.U.)
----------------------------
  NO LB      ZA    FRAG     MASS         X           Y           Z
   0 C     6.0000    0    12.011   -4.944349    1.043973    0.000656
   1 C     6.0000    0    12.011   -2.334904   -0.074224   -0.000355
   2 C     6.0000    0    12.011   -2.170880   -2.705848   -0.000230
   3 C     6.0000    0    12.011    0.130252   -3.924605   -0.000078
   4 C     6.0000    0    12.011    2.339805   -2.524227    0.000139
   5 C     6.0000    0    12.011    2.206834    0.089478    0.000014
   6 C     6.0000    0    12.011   -0.126496    1.353089   -0.000939
   7 C     6.0000    0    12.011   -0.006692    4.187022   -0.000231
   8 O     8.0000    0    15.999    4.335943    1.548047    0.000448
   9 H     1.0000    0     1.008   -5.971535    0.397271    1.662063
  10 H     1.0000    0     1.008   -4.937210    3.091554    0.004379
  11 H     1.0000    0     1.008   -5.971129    0.402346   -1.663106
  12 H     1.0000    0     1.008   -3.895285   -3.797794    0.000138
  13 H     1.0000    0     1.008    0.219097   -5.962698    0.000219
  14 H     1.0000    0     1.008    4.155983   -3.458388    0.000546
  15 H     1.0000    0     1.008    1.068285    4.825316   -1.635510
  16 H     1.0000    0     1.008   -1.855087    5.065838   -0.038295
  17 H     1.0000    0     1.008    1.001462    4.828175    1.676392
  18 H     1.0000    0     1.008    5.825910    0.486311   -0.001722

------------------------------------------------------------------------------
                   ___                                                        
                  /   \      - P O W E R E D   B Y -                         
                 /     \                                                     
                 |  |  |   _    _      __       _____    __    __             
                 |  |  |  | |  | |    /  \     |  _  \  |  |  /  |          
                  \  \/   | |  | |   /    \    | | | |  |  | /  /          
                 / \  \   | |__| |  /  /\  \   | |_| |  |  |/  /          
                |  |  |   |  __  | /  /__\  \  |    /   |      \           
                |  |  |   | |  | | |   __   |  |    \   |  |\   \          
                \     /   | |  | | |  |  |  |  | |\  \  |  | \   \       
                 \___/    |_|  |_| |__|  |__|  |_| \__\ |__|  \__/        
                                                                              
                      - O R C A' S   B I G   F R I E N D -                    
                                      &                                       
                       - I N T E G R A L  F E E D E R -                       
                                                                              
 v1 FN, 2020, v2 2021, v3 2022-2024                                           
------------------------------------------------------------------------------


----------------------
SHARK INTEGRAL PACKAGE
----------------------

Number of atoms                             ...     19
Number of basis functions                   ...    226
Number of shells                            ...    112
Maximum angular momentum                    ...      2
Integral batch strategy                     ... SHARK/LIBINT Hybrid
RI-J (if used) integral strategy            ... SPLIT-RIJ (Revised 2003 algorithm where possible)
Printlevel                                  ...      1
Contraction scheme used                     ... SEGMENTED contraction
Prescreening option                         ... SCHWARTZ
   Thresh                                   ... 3.000e-11
   Tcut                                     ... 1.000e-12
   Tpresel                                  ... 1.000e-12 
Coulomb Range Separation                    ... NOT USED
Exchange Range Separation                   ... NOT USED
Multipole approximations                    ... NOT USED
Finite Nucleus Model                        ... NOT USED
CABS basis                                  ... NOT available
Auxiliary Coulomb fitting basis             ... AVAILABLE
   # of basis functions in Aux-J            ...    551
   # of shells in Aux-J                     ...    185
   Maximum angular momentum in Aux-J        ...      4
Auxiliary J/K fitting basis                 ... NOT available
Auxiliary Correlation fitting basis         ... NOT available
Auxiliary 'external' fitting basis          ... NOT available

Checking pre-screening integrals            ... done (  0.0 sec) Dimension = 112
Check shell pair data                       ... done (  0.0 sec)
Shell pair information
Shell pair cut-off parameter TPreSel        ...   1.0e-12
Total number of shell pairs                 ...      6328
Shell pairs after pre-screening             ...      5725
Total number of primitive shell pairs       ...     23019
Primitive shell pairs kept                  ...     14751
          la=0 lb=0:   1888 shell pairs
          la=1 lb=0:   2185 shell pairs
          la=1 lb=1:    650 shell pairs
          la=2 lb=0:    600 shell pairs
          la=2 lb=1:    348 shell pairs
          la=2 lb=2:     54 shell pairs

Calculating one electron integrals          ... done (  0.0 sec)
Calculating RI/J V-Matrix + Cholesky decomp.... done (  0.1 sec)
Calculating Nuclear repulsion               ... done (  0.0 sec) ENN=    432.783367008135 Eh

Diagonalization of the overlap matrix:
Smallest eigenvalue                        ... 1.846e-05
Time for diagonalization                   ...    0.004 sec
Threshold for overlap eigenvalues          ... 1.000e-07
Number of eigenvalues below threshold      ... 0
Time for construction of square roots      ...    0.018 sec
Total time needed                          ...    0.034 sec

-------------------
DFT GRID GENERATION
-------------------

General Integration Accuracy     IntAcc      ... 4.388
Radial Grid Type                 RadialGrid  ... OptM3 with GC (2021)
Angular Grid (max. ang.)         AngularGrid ... 4 (Lebedev-302)
Angular grid pruning method      GridPruning ... 4 (adaptive)
Weight generation scheme         WeightScheme... mBecke (2022)
Basis function cutoff            BFCut       ... 1.0000e-11
Integration weight cutoff        WCut        ... 1.0000e-14
Partially contracted basis set               ... off
Rotationally invariant grid construction     ... off
Angular grids for H and He will be reduced by one unit
Diffuse basis detected: some atoms will have their outermost
                        angular grid increased by 1.

Total number of grid points                  ...    86369
Total number of batches                      ...     1361
Average number of points per batch           ...       63
Average number of grid points per atom       ...     4546
Initializing property integral containers    ... done (  0.0 sec)

SHARK setup successfully completed in   1.1 seconds

Maximum memory used throughout the entire STARTUP-calculation: 38.9 MB
Occupation numbers will be reassigned to an Aufbau configuration
             **** ENERGY FILE WAS UPDATED (xtb_opt.en.tmp) ****
Finished Guess after   0.3 sec
Maximum memory used throughout the entire GUESS-calculation: 16.0 MB
--------------------
CPCM SOLVATION MODEL
--------------------
CPCM parameters:
  Epsilon                                         ...      78.3550
  Refrac                                          ...       1.3328
  Rsolv                                           ...       1.3000
  Surface type                                    ... GAUSSIAN VDW
  Discretization scheme                           ... Constant charge density
    Threshold for H atoms                         ...       5.0000 (charges/Ang^2)
    Threshold for non-H atoms                     ...       5.0000 (charges/Ang^2)
  Epsilon function type                           ...         CPCM
Solvent:                                          ... WATER
SMD-CDS solvent descriptors:
  Soln                                            ...       1.3328
  Soln25                                          ...       1.3323
  Sola                                            ...       0.0000
  Solb                                            ...       0.0000
  Solg                                            ...       0.0000
  Solc                                            ...       0.0000
  Solh                                            ...       0.0000
Radii:
  Scheme                                          ... Element-dependent radii
  Radius for C  used is    3.4960 Bohr (=   1.8500 Ang.)
  Radius for O  used is    2.8724 Bohr (=   1.5200 Ang.)
  Radius for H  used is    2.2677 Bohr (=   1.2000 Ang.)
Calculating surface                               ...        done! (  0.0s)
Cavity surface points                             ...         1411
Cavity Volume                                     ...     904.7721
Cavity Surface-area                               ...     561.5664
Calculating surface distance matrix               ...        done! (  0.0s)
Performing Cholesky decomposition & store         ...        done! (  0.1s)
Overall time for CPCM initialization              ...                 0.1s

----------------------------------------D-I-I-S--------------------------------------------
Iteration    Energy (Eh)           Delta-E    RMSDP     MaxDP     DIISErr   Damp  Time(sec)
-------------------------------------------------------------------------------------------
               ***  Starting incremental Fock matrix formation  ***
                              *** Initializing SOSCF ***
---------------------------------------S-O-S-C-F--------------------------------------
Iteration    Energy (Eh)           Delta-E    RMSDP     MaxDP     MaxGrad    Time(sec)
--------------------------------------------------------------------------------------
    1    -386.0175889115437258     0.00e+00  6.02e-06  1.20e-04  2.01e-05     2.6
               *** Restarting incremental Fock matrix formation ***
    2    -386.0175889326247898    -2.11e-08  7.55e-06  1.62e-04  4.31e-05     2.5
    3    -386.0175887672829731     1.65e-07  6.19e-06  1.32e-04  7.38e-05     1.9
    4    -386.0175890229415927    -2.56e-07  1.51e-06  3.75e-05  5.86e-06     2.1
                  *** Gradient check signals convergence ***

               *****************************************************
               *                     SUCCESS                       *
               *           SCF CONVERGED AFTER   4 CYCLES          *
               *****************************************************


SMD CDS free energy correction energy :                 4.11072     Kcal/mol
Total Energy after SMD CDS correction =              -386.011038177 Eh
             **** ENERGY FILE WAS UPDATED (xtb_opt.en.tmp) ****

----------------
TOTAL SCF ENERGY
----------------

Total Energy       :       -386.01103817737732 Eh          -10503.89436 eV

Components:
Nuclear Repulsion  :        432.78336700813520 Eh           11776.63413 eV
Electronic Energy  :       -818.78381032770722 Eh          -22280.24018 eV
One Electron Energy:      -1380.25901553164294 Eh          -37558.75726 eV
Two Electron Energy:        561.47520520393573 Eh           15278.51708 eV
CPCM Dielectric    :         -0.01714570336961 Eh              -0.46656 eV
SMD CDS (Gcds)     :          0.00655084556429 Eh               0.17826 eV

Virial components:
Potential Energy   :       -770.45858570858695 Eh          -20965.24397 eV
Kinetic Energy     :        384.44754753120964 Eh           10461.34961 eV
Virial Ratio       :          2.00406685035763

DFT components:
N(Alpha)           :       33.000028912047 electrons
N(Beta)            :       33.000028912047 electrons
N(Total)           :       66.000057824094 electrons
E(X)               :      -53.537783612552 Eh       
E(C)               :       -2.124371929526 Eh       
E(XC)              :      -55.662155542079 Eh       

CPCM Solvation Model Properties:
Surface-charge          :         -0.04657567775608
Corrected charge        :         -0.00000000000000
Outlying charge corr.   :          0.00016663234159 Eh               0.00453 eV
Free-energy (cav+disp)  :          0.00655084556429 Eh               0.17826 eV

---------------
SCF CONVERGENCE
---------------

  Last Energy change         ...    2.5566e-07  Tolerance :   1.0000e-07
  Last MAX-Density change    ...    3.7486e-05  Tolerance :   1.0000e-07
  Last RMS-Density change    ...    1.5123e-06  Tolerance :   5.0000e-09
  Last DIIS Error            ...    1.8290e-04  Tolerance :   1.0000e-07
  Last Orbital Gradient      ...    5.8624e-06  Tolerance :   1.0000e-04
  Last Orbital Rotation      ...    2.8190e-05  Tolerance :   1.0000e-04


----------------
ORBITAL ENERGIES
----------------

  NO   OCC          E(Eh)            E(eV) 
   0   2.0000     -18.980442      -516.4841 
   1   2.0000     -10.090036      -274.5638 
   2   2.0000     -10.040261      -273.2094 
   3   2.0000     -10.036758      -273.1141 
   4   2.0000     -10.028233      -272.8821 
   5   2.0000     -10.024384      -272.7774 
   6   2.0000     -10.018058      -272.6052 
   7   2.0000     -10.017197      -272.5818 
   8   2.0000     -10.016564      -272.5646 
   9   2.0000      -1.023648       -27.8549 
  10   2.0000      -0.824499       -22.4358 
  11   2.0000      -0.744096       -20.2479 
  12   2.0000      -0.724755       -19.7216 
  13   2.0000      -0.660001       -17.9595 
  14   2.0000      -0.637198       -17.3390 
  15   2.0000      -0.577745       -15.7212 
  16   2.0000      -0.546798       -14.8791 
  17   2.0000      -0.489093       -13.3089 
  18   2.0000      -0.455314       -12.3897 
  19   2.0000      -0.444693       -12.1007 
  20   2.0000      -0.405427       -11.0322 
  21   2.0000      -0.391472       -10.6525 
  22   2.0000      -0.375354       -10.2139 
  23   2.0000      -0.369329       -10.0499 
  24   2.0000      -0.365286        -9.9399 
  25   2.0000      -0.353215        -9.6115 
  26   2.0000      -0.352938        -9.6039 
  27   2.0000      -0.335132        -9.1194 
  28   2.0000      -0.311841        -8.4856 
  29   2.0000      -0.302731        -8.2377 
  30   2.0000      -0.293837        -7.9957 
  31   2.0000      -0.220958        -6.0126 
  32   2.0000      -0.200790        -5.4638 
  33   0.0000      -0.022208        -0.6043 
  34   0.0000      -0.016935        -0.4608 
  35   0.0000       0.074480         2.0267 
  36   0.0000       0.095671         2.6033 
  37   0.0000       0.108421         2.9503 
  38   0.0000       0.121060         3.2942 
  39   0.0000       0.126234         3.4350 
  40   0.0000       0.139309         3.7908 
  41   0.0000       0.149280         4.0621 
  42   0.0000       0.156982         4.2717 
  43   0.0000       0.166051         4.5185 
*Only the first 10 virtual orbitals were printed.
Total SCF time: 0 days 0 hours 0 min 9 sec 
Finished LeanSCF after   9.7 sec

Maximum memory used throughout the entire LEANSCF-calculation: 29.5 MB


-------------------------------------------------------------------------------
                          DFT DISPERSION CORRECTION                            
                                                                               
                                DFTD4 V3.4.0                                   
-------------------------------------------------------------------------------
-------------------------   ----------------
Dispersion correction           -0.006305412
-------------------------   ----------------

------------------   -----------------
gCP correction             0.007531233
------------------   -----------------

-------------------------   --------------------
FINAL SINGLE POINT ENERGY      -386.009812356835
-------------------------   --------------------

------------------------------------------------------------------------------
                         ORCA SCF GRADIENT CALCULATION
------------------------------------------------------------------------------

Nuc. rep. gradient        (SHARK) ... done (  0.0 sec)
HCore & Overlap gradient  (SHARK) ... done (  0.2 sec)
Split-RIJ-J gradient      (SHARK) ... done (  1.3 sec)
XC gradient                       ... done (  4.8 sec)
CPCM gradient                     ... done (  0.9 sec)
SMD gradient                      ... done (  0.0 sec)
Dispersion correction             ... done (  0.0 sec)

-------------------
DISPERSION GRADIENT
-------------------

   1   C   :   -0.000117212    0.000023908   -0.000000026
   2   C   :   -0.000065385   -0.000006384   -0.000000020
   3   C   :   -0.000052768   -0.000086229   -0.000000010
   4   C   :    0.000015682   -0.000115690   -0.000000007
   5   C   :    0.000075663   -0.000075355   -0.000000005
   6   C   :    0.000080423    0.000000859   -0.000000015
   7   C   :    0.000013063    0.000043297   -0.000000020
   8   C   :    0.000011619    0.000118002    0.000000011
   9   O   :    0.000111591    0.000021188   -0.000000077
  10   H   :   -0.000048420    0.000003688    0.000011254
  11   H   :   -0.000042945    0.000019615    0.000000022
  12   H   :   -0.000048394    0.000003732   -0.000011250
  13   H   :   -0.000028712   -0.000034435    0.000000000
  14   H   :    0.000003909   -0.000045795    0.000000001
  15   H   :    0.000034983   -0.000026698    0.000000009
  16   H   :    0.000015236    0.000046085   -0.000011625
  17   H   :   -0.000005620    0.000048770   -0.000000307
  18   H   :    0.000014853    0.000046407    0.000012058
  19   H   :    0.000032435    0.000015033    0.000000006

Difference to translation invariance:
           :    0.0000000000   -0.0000000000   -0.0000000000

Difference to rotation invariance:
           :    0.0000000000   -0.0000000000    0.0000000000

Norm of the Dispersion gradient    ...    0.0003336296
RMS gradient                       ...    0.0000441903
MAX gradient                       ...    0.0001180024
gCP correction                   ... done

------------------
CARTESIAN GRADIENT
------------------

   1   C   :   -0.004530357   -0.000917263    0.000010694
   2   C   :    0.004514215    0.000787996   -0.000005122
   3   C   :    0.003864959    0.003520148   -0.000002176
   4   C   :   -0.000248974    0.001762834   -0.000002328
   5   C   :   -0.005486964    0.001874482   -0.000002879
   6   C   :    0.004753562    0.007717853    0.000039076
   7   C   :   -0.005867561   -0.009183794    0.000050165
   8   C   :    0.000594166    0.004861932    0.000001438
   9   O   :   -0.007287922   -0.006998934   -0.000042665
  10   H   :    0.003331782    0.000673929   -0.002587689
  11   H   :    0.001506902   -0.003822051    0.000000616
  12   H   :    0.003325042    0.000634001    0.002571132
  13   H   :    0.004043771    0.002430875    0.000002216
  14   H   :   -0.000381951    0.004258493    0.000001751
  15   H   :   -0.004598525    0.000975871    0.000001835
  16   H   :   -0.001285010   -0.003739883    0.002629263
  17   H   :    0.002786191   -0.002137667    0.000051471
  18   H   :   -0.001239795   -0.003757019   -0.002701105
  19   H   :    0.002206468    0.001058196   -0.000015692

Difference to translation invariance:
           :    0.0000000000   -0.0000000000   -0.0000000000

Difference to rotation invariance:
           :   -0.0000249983    0.0000562825    0.0002948949

Norm of the Cartesian gradient     ...    0.0247623564
RMS gradient                       ...    0.0032798542
MAX gradient                       ...    0.0091837937

-------
TIMINGS
-------

Total SCF gradient time     ....        8.069 sec

Densities                   ....       0.000 sec  (  0.0%)
One electron gradient       ....       0.229 sec  (  2.8%)
RI-J Coulomb gradient       ....       1.337 sec  ( 16.6%)
XC gradient                 ....       4.848 sec  ( 60.1%)
CPCM gradient               ....       0.924 sec  ( 11.4%)
   A-Matrix (El+Nuc)        ....       0.044 sec  (  0.5%)
   Potential                ....       0.879 sec  ( 10.9%)
SMD gradient                ....       0.018 sec  (  0.2%)

Maximum memory used throughout the entire SCFGRAD-calculation: 36.3 MB

------------------------------------------------------------------------------
                              ORCA PROPERTY CALCULATIONS
------------------------------------------------------------------------------

GBWName                                 ... xtb_opt.gbw
Number of atoms                         ...     19
Number of basis functions               ...    226
Max core memory                         ...   1024 MB

Electric properties:
Dipole moment                           ... YES
Quadrupole moment                       ...  NO
Static polarizability (Dipole/Dipole)   ...  NO
Static polarizability (Dipole/Quad.)    ...  NO
Static polarizability (Quad./Quad.)     ...  NO
Static polarizability (Velocity)        ...  NO

Atomic electric properties:
Dipole moment                           ...  NO
Quadrupole moment                       ...  NO
Static polarizability                   ...  NO

Choice of electric origin               ... Center of mass
Position of electric origin             ...    -0.000023    -0.000000     0.000000

General magnetic properties:
Magnetizability                         ...  NO

EPR properties:
g-Tensor (aka g-matrix)                 ...  NO
Zero-Field splitting spin-orbit         ...  NO
Zero-field splitting spin-spin          ...  NO
Hyperfine couplings                     ...  NO (   0 nuclei)
Quadrupole couplings                    ...  NO (   0 nuclei)
Contact density                         ...  NO (   0 nuclei)

NMR properties:
Chemical shifts                         ...  NO (   0 nuclei)
Spin-rotation constants                 ...  NO (   0 nuclei)
Spin-spin couplings                     ...  NO (   0 nuclei,    0 pairs)

Choice of magnetic origin               ... GIAO
Position of magnetic origin             ...     0.000000     0.000000     0.000000

Properties with geometric perturbations:
SCF Hessian                             ...  NO
IR spectrum                             ...  NO
VCD spectrum                            ...  NO
X-ray spectroscopy properties:
SCF XES/XAS/RIXS spectra                ...  NO


-------------
DIPOLE MOMENT
-------------

Method             : SCF
Type of density    : Electron Density
Multiplicity       :   1
Irrep              :   0
Energy             :  -386.0110381773773156 Eh
Relativity type    : 
Basis              : AO
                                X                 Y                 Z
Electronic contribution:      5.377805038      -3.196245384      -0.002096398
Nuclear contribution   :     -5.109052244       2.930283313       0.002536836
                        -----------------------------------------
Total Dipole Moment    :      0.268752794      -0.265962071       0.000440437
                        -----------------------------------------
Magnitude (a.u.)       :      0.378105913
Magnitude (Debye)      :      0.961068854



--------------------
Rotational spectrum 
--------------------
 
Rotational constants in cm-1:             0.076409             0.058810             0.033645 
Rotational constants in MHz :          2290.676403          1763.086319          1008.638967 

Dipole components along the rotational axes: 
x,y,z [a.u.] :     0.241024    -0.291327     0.000446 
x,y,z [Debye]:     0.612635    -0.740494     0.001132 

 

Dipole moment calculation done in   0.0 sec 

Maximum memory used throughout the entire PROP-calculation: 14.8 MB

--------------------------------
SUGGESTED CITATIONS FOR THIS RUN
--------------------------------

Below you find a list of papers that are relevant to this ORCA run
We neither can nor want to force you to cite these papers, but we appreciate if you do
You receive ORCA, which is the product of decades of hard work by many enthusiastic individuals, for free
The only thing we kindly ask in return is that you cite our papers,
We deeply appreciate it, if you show your appreciation for ORCA by not just citing the generic ORCA reference.

Please note that relegating all ORCA citations to the supporting information does *not* help us.
SI sections are not indexed - citations you put there will not count into any citation statistics
But we need these citations in order to attract the funding resources that allow us to do what we are doing

Therefore, if you are a happy ORCA user, please consider citing a few of the papers listed below in the main body of your paper

In addition to the list printed below, the program has created the file xtb_opt.bibtex that contains the list in bibtex format
You can import this file easily into all common literature databanks and citation aid programs


List of essential papers. We consider these as the minimum necessary citations

  1. Neese,F.
     Software update: the ORCA program system, version 5.0
     WIRES Comput. Molec. Sci., 2022 12(1)e1606
     doi.org/10.1002/wcms.1606
  2. Grimme,S.; Hansen,A.; Ehlert,S.; Mewes,J.
     r2SCAN-3c: A 'Swiss army knife' composite electronic-structure method
     J. Chem. Phys., 2021 154 064103
     doi.org/10.1063/5.0040021

List of papers to cite with high priority. The work reported in these papers was absolutely
necessary for this run to complete.
Our perspective: the developers of density functionals and basis sets usually get cited in chemistry papers
Good! But without the algorithms to do something with them, the functionals or basis sets would not do anything.
Hence, in our opinion, the algorithm design and method developments papers are equally worthy of getting cited

  1. Neese,F.
     An improvement of the resolution of the identity approximation for the formation of the Coulomb matrix
     J. Comp. Chem., 2003 24(14)1740-1747
     doi.org/10.1002/jcc.10318
  2. Garcia-Rates,M.; Neese,F.
     Effect of the Solute Cavity on the Solvation Energy and its Derivatives within the Framework of the Gaussian Charge Scheme
     J. Comput. Chem., 2020 41 922-939
     doi.org/10.1002/jcc.26139
  3. Neese,F.
     The SHARK Integral Generation and Digestion System
     J. Comp. Chem., 2022  1-16
     doi.org/10.1002/jcc.26942
  4. Lehtola,S.; Steigemann,C.; Oliveira,M.; Marques,M.
     Recent developments in Libxc - A comprehensive library of functionals for density functional theory
     Software X, 2018 7 
     doi.org/10.1016/j.softx.2017.11.002
  5. Caldeweyher,E.; Bannwarth,C.; Grimme,S.
     Extension of the D3 dispersion coefficient model
     J. Chem. Phys., 2017 147 034112-XXXX
     doi.org/10.1063/1.4993215
  6. Caldeweyher,E.; Ehlert,S.; Hansen,A.; Neugebauer,H.; Spicher,S.; Bannwarth,C.; Grimme,S.
     A generally applicable atomic-charge dependent London dispersion correction
     J. Chem. Phys., 2019 150 154122-XXXX
     doi.org/10.1063/1.5090222
  7. Caldeweyher,E.; Mewes,J.; Ehlert,S.; Grimme,S.
     Extension and evaluation of the D4 London-dispersion model for periodic systems
     Phys. Chem. Chem. Phys., 2020 22(16)8499-8512
     doi.org/10.1039/D0CP00502A

List of suggested additional citations. These are papers that are important in the 'surrounding' of 
of this run, or papers that preceded the highly important papers. If you like your results we are grateful for a citation.

  1. Neese,F.
     The ORCA program system
     WIRES Comput. Molec. Sci., 2012 2(1)73-78
     doi.org/10.1002/wcms.81
  2. Neese,F.
     Software update: the ORCA program system, version 4.0
     WIRES Comput. Molec. Sci., 2018 8(1)1-6
     doi.org/10.1002/wcms.1327
  3. Neese,F.; Wennmohs,F.; Becker,U.; Riplinger,C.
     The ORCA quantum chemistry program package
     J. Chem. Phys., 2020 152 Art. No. L224108
     doi.org/10.1063/5.0004608

List of optional additional citations

  1. Neese,F.
     Approximate second-order SCF convergence for spin unrestricted wavefunctions
     Chem. Phys. Lett., 2000 325(1-3)93-98
     doi.org/10.1016/s0009-2614(00)00662-x

Timings for individual modules:

Sum of individual times          ...       19.377 sec (=   0.323 min)
Startup calculation              ...        1.091 sec (=   0.018 min)   5.6 %
SCF iterations                   ...       10.009 sec (=   0.167 min)  51.7 %
Property calculations            ...        0.095 sec (=   0.002 min)   0.5 %
SCF Gradient evaluation          ...        8.182 sec (=   0.136 min)  42.2 %
                             ****ORCA TERMINATED NORMALLY****
TOTAL RUN TIME: 0 days 0 hours 0 minutes 20 seconds 559 msec
  ------------------------------------------------------------------------
          * successful ORCA run, taking over control again...

         :::::::::::::::::::::::::::::::::::::::::::::::::::::
         ::                  ORCA SUMMARY                   ::
         :::::::::::::::::::::::::::::::::::::::::::::::::::::
         :: total energy            -386.009812356835 Eh    ::
         :: gradient norm              0.024762356414 Eh/a0 ::
         :: HOMO-LUMO gap              0.000000000000 eV    ::
         :::::::::::::::::::::::::::::::::::::::::::::::::::::

      ----------------------------------------------------------- 
     |                       L-ANC optimizer                     |
      ----------------------------------------------------------- 
          low memory version by Sebastian Ehlert

          ...................................................
          :                      SETUP                      :
          :.................................................:
          :   energy convergence        0.5000000E-05 Eh    :
          :   grad. convergence         0.1000000E-02 Eh/a0 :
          :   optimization log               true           :
          :   writing optlog all                1     steps :
          :   Hessian reset                     8     steps :
          :   maximium step len.        1.0000000     a0    :
          :   LBFGS images                      8           :
          ...................................................
 * calculating model hessian...
Using Lindh-Hessian (1995)
 Shifting diagonal of input Hessian by   1.000000000000000E-002
 Lowest  eigenvalues of input Hessian
    0.000000    0.000000    0.000000    0.000000    0.000000    0.000000
    0.012717    0.014511    0.017625    0.019097    0.019669    0.022439
    0.028793    0.031931    0.048053    0.049310    0.051833    0.057385
 Highest eigenvalues
    1.487985    1.647797    1.723288    1.889257    2.023523    2.077791
 

........................................................................
.............................. CYCLE    1 ..............................
........................................................................
                         * ORCA takes the control...
  ------------------------------------------------------------------------

                                 *****************
                                 * O   R   C   A *
                                 *****************

                                            #,                                       
                                            ###                                      
                                            ####                                     
                                            #####                                    
                                            ######                                   
                                           ########,                                 
                                     ,,################,,,,,                         
                               ,,#################################,,                 
                          ,,##########################################,,             
                       ,#########################################, ''#####,          
                    ,#############################################,,   '####,        
                  ,##################################################,,,,####,       
                ,###########''''           ''''###############################       
              ,#####''   ,,,,##########,,,,          '''####'''          '####       
            ,##' ,,,,###########################,,,                        '##       
           ' ,,###''''                  '''############,,,                           
         ,,##''                                '''############,,,,        ,,,,,,###''
      ,#''                                            '''#######################'''  
     '                                                          ''''####''''         
             ,#######,   #######,   ,#######,      ##                                
            ,#'     '#,  ##    ##  ,#'     '#,    #''#        ,####,   ,####,        
            ##       ##  ##   ,#'  ##            #'  '#       #'       #'  '#        
            ##       ##  #######   ##           ,######,      #####,   #    #        
            '#,     ,#'  ##    ##  '#,     ,#' ,#      #,     #,   #   #,  ,#        
             '#######'   ##     ##  '#######'  #'      '#     '####' # '####'        



                #########################################################
                #                        -***-                          #
                #          Department of theory and spectroscopy        #
                #                                                       #
                #                      Frank Neese                      #
                #                                                       #
                #     Directorship, Architecture, Infrastructure        #
                #                    SHARK, DRIVERS                     #
                #        Core code/Algorithms in most modules           #
                #                                                       #
                #        Max Planck Institute fuer Kohlenforschung      #
                #                Kaiser Wilhelm Platz 1                 #
                #                 D-45470 Muelheim/Ruhr                 #
                #                      Germany                          #
                #                                                       #
                #                  All rights reserved                  #
                #                        -***-                          #
                #########################################################


                         Program Version 6.0.0  -   RELEASE  -


 With contributions from (in alphabetic order):
   Daniel Aravena         : Magnetic Suceptibility
   Michael Atanasov       : Ab Initio Ligand Field Theory (pilot matlab implementation)
   Alexander A. Auer      : GIAO ZORA, VPT2 properties, NMR spectrum
   Ute Becker             : All parallelization in ORCA, NUMFREQ, NUMCALC
   Giovanni Bistoni       : ED, misc. LED, open-shell LED, HFLD
   Martin Brehm           : Molecular dynamics
   Dmytro Bykov           : pre 5.0 version of the SCF Hessian
   Marcos Casanova-Páez   : Triplet and SCS-CIS(D). UHF-(DLPNO)-IP/EA/STEOM-CCSD. UHF-CVS-IP/STEOM-CCSD
   Vijay G. Chilkuri      : MRCI spin determinant printing, contributions to CSF-ICE
   Pauline Colinet        : FMM embedding
   Dipayan Datta          : RHF DLPNO-CCSD density
   Achintya Kumar Dutta   : EOM-CC, STEOM-CC
   Nicolas Foglia         : Exact transition moments, OPA infrastructure, MCD improvements
   Dmitry Ganyushin       : Spin-Orbit,Spin-Spin,Magnetic field MRCI
   Miquel Garcia          : C-PCM and meta-GGA Hessian, CCSD/C-PCM, Gaussian charge scheme
   Tiago L. C. Gouveia    : GS-ROHF, GS-ROCIS
   Yang Guo               : DLPNO-NEVPT2, F12-NEVPT2, CIM, IAO-localization
   Andreas Hansen         : Spin unrestricted coupled pair/coupled cluster methods
   Ingolf Harden          : AUTO-CI MPn and infrastructure 
   Benjamin Helmich-Paris : MC-RPA, TRAH-(SCF,CASSCF), AVAS, COSX integrals, SCF dyn. polar.
   Lee Huntington         : MR-EOM, pCC
   Robert Izsak           : Overlap fitted RIJCOSX, COSX-SCS-MP3, EOM
   Riya Kayal             : Wick's Theorem for AUTO-CI, AUTO-CI UHF-CCSDT
   Emily Kempfer          : AUTO-CI, RHF CISDT and CCSDT
   Christian Kollmar      : KDIIS, OOCD, Brueckner-CCSD(T), CCSD density, CASPT2, CASPT2-K, improved NEVPT2
   Axel Koslowski         : Symmetry handling
   Simone Kossmann        : Meta GGA functionals, TD-DFT gradient, OOMP2, (MP2 Hessian; deprecated post 5.0)
   Lucas Lang             : DCDCAS
   Marvin Lechner         : AUTO-CI (C++ implementation), FIC-MRCC
   Spencer Leger          : CASSCF response
   Dagmar Lenk            : GEPOL surface, SMD, ORCA-2-JSON
   Dimitrios Liakos       : Extrapolation schemes; Compound Job, initial MDCI parallelization
   Dimitrios Manganas     : Further ROCIS development; embedding schemes. LFT, Crystal Embedding
   Dimitrios Pantazis     : SARC Basis sets
   Anastasios Papadopoulos: AUTO-CI, single reference methods and gradients
   Taras Petrenko         : pre 6.0 DFT Hessian and TD-DFT gradient, (ASA, deprecated), ECA, 1-Electron XAS/XES, NRVS
   Peter Pinski           : DLPNO-MP2, DLPNO-MP2 Gradient
   Christoph Reimann      : Effective Core Potentials
   Marius Retegan         : Local ZFS, SOC
   Christoph Riplinger    : Optimizer, TS searches, QM/MM, DLPNO-CCSD(T), (RO)-DLPNO pert. Triples
   Michael Roemelt        : Original ROCIS implementation
   Masaaki Saitow         : Open-shell DLPNO-CCSD energy and density
   Barbara Sandhoefer     : DKH picture change effects
   Kantharuban Sivalingam : CASSCF convergence/infrastructure, NEVPT2 and variants, FIC-MRCI
   Bernardo de Souza      : ESD, SOC TD-DFT
   Georgi Stoychev        : AutoAux, RI-MP2 NMR, DLPNO-MP2 response, X2C
   Van Anh Tran           : RI-MP2 g-tensors
   Willem Van den Heuvel  : Paramagnetic NMR
   Zikuan Wang            : NOTCH, Electric field optimization 
   Frank Wennmohs         : Technical directorship and infrastructure
   Hang Xu                : AUTO-CI-Response properties 


 We gratefully acknowledge several colleagues who have allowed us to
 interface, adapt or use parts of their codes:
   Stefan Grimme, W. Hujo, H. Kruse, P. Pracht,  : VdW corrections, initial TS optimization,
                  C. Bannwarth, S. Ehlert,         DFT functionals, gCP, sTDA/sTD-DF
                  L. Wittmann, M. Mueller
   Ed Valeev, F. Pavosevic, A. Kumar             : LibInt (2-el integral package), F12 methods
   Garnet Chan, S. Sharma, J. Yang, R. Olivares  : DMRG
   Ulf Ekstrom                                   : XCFun DFT Library
   Mihaly Kallay                                 : mrcc  (arbitrary order and MRCC methods)
   Frank Weinhold                                : gennbo (NPA and NBO analysis)
   Simon Mueller                                 : openCOSMO-RS
   Christopher J. Cramer and Donald G. Truhlar   : smd solvation model
   Lars Goerigk                                  : TD-DFT with DH, B97 family of functionals
   V. Asgeirsson, H. Jonsson                     : NEB implementation
   FAccTs GmbH                                   : IRC, NEB, NEB-TS, DLPNO-Multilevel, CI-OPT
                                                   MM, QMMM, 2- and 3-layer-ONIOM, Crystal-QMMM,
                                                   LR-CPCM, SF, NACMEs, symmetry and pop. for TD-DFT,
                                                   nearIR, NL-DFT gradient (VV10), updates on ESD,
                                                   ML-optimized integration grids, MBIS, APM,
                                                   GOAT, DOCKER, SOLVATOR, interface openCOSMO-RS
   S Lehtola, MJT Oliveira, MAL Marques          : LibXC Library
   Liviu Ungur et al                             : ANISO software


 Your calculation uses the libint2 library for the computation of 2-el integrals
 For citations please refer to: http://libint.valeyev.net

 Your ORCA version has been built with support for libXC version: 6.2.2
 For citations please refer to: https://libxc.gitlab.io

 This ORCA versions uses:
   CBLAS   interface :  Fast vector & matrix operations
   LAPACKE interface :  Fast linear algebra routines
   SCALAPACK package :  Parallel linear algebra routines
   Shared memory     :  Shared parallel matrices
   BLAS/LAPACK       :  OpenBLAS 0.3.27  USE64BITINT DYNAMIC_ARCH NO_AFFINITY SapphireRapids SINGLE_THREADED
        Core in use  :  SapphireRapids
   Copyright (c) 2011-2014, The OpenBLAS Project




***************************************
The coordinates will be read from file: xtb_opt.xyz
***************************************


Your calculation utilizes the geometrical counterpoise correction gCP
Please cite in your paper:
H.Kruse, S. Grimme J.Chem.Phys., 136, (2012), 154101 
   

Your calculation utilizes the atom-pairwise dispersion correction
based on EEQ partial charges (D4)


Your calculation utilizes the SMD solvation module
Please cite in your paper:
A.V. Marenich, C.J. Cramer, D.G. Truhlar J. Phys. Chem. B, 113, (2009), 6378 

================================================================================

----- Orbital basis set information -----
Your calculation utilizes the basis: def2-mTZVPP
   Stefan Grimme, Andreas Hansen, Sebastian Ehlert, and Jan-Michael Mewes 
   J. Chem. Phys. 154, 064103 (2021). DOI: 10.1063/5.0040021

----- AuxJ basis set information -----
Your calculation utilizes the auxiliary basis: def2/J
   F. Weigend, Phys. Chem. Chem. Phys. 8, 1057 (2006).

================================================================================
                                        WARNINGS
                       Please study these warnings very carefully!
================================================================================

WARNING: Old DensityContainer found on disk!
         Will remove this file - 
         If you want to keep old densities, please start your calculation with a different basename. 

Using LibXC functional ID 497 : Re-regularized SCAN exchange by Furness et al
[ 1]  J. W. Furness, A. D. Kaplan, J. Ning, J. P. Perdew, and J. Sun.,  J. Phys. Chem. Lett. 11, 8208-8215 (2020)
[ 2]  J. W. Furness, A. D. Kaplan, J. Ning, J. P. Perdew, and J. Sun.,  J. Phys. Chem. Lett. 11, 9248-9248 (2020)
Using LibXC functional ID 498 : Re-regularized SCAN correlation by Furness et al
[ 1]  J. W. Furness, A. D. Kaplan, J. Ning, J. P. Perdew, and J. Sun.,  J. Phys. Chem. Lett. 11, 8208-8215 (2020)
[ 2]  J. W. Furness, A. D. Kaplan, J. Ning, J. P. Perdew, and J. Sun.,  J. Phys. Chem. Lett. 11, 9248-9248 (2020)
Using LibXC functional ID 497 : Re-regularized SCAN exchange by Furness et al
[ 1]  J. W. Furness, A. D. Kaplan, J. Ning, J. P. Perdew, and J. Sun.,  J. Phys. Chem. Lett. 11, 8208-8215 (2020)
[ 2]  J. W. Furness, A. D. Kaplan, J. Ning, J. P. Perdew, and J. Sun.,  J. Phys. Chem. Lett. 11, 9248-9248 (2020)
Using LibXC functional ID 498 : Re-regularized SCAN correlation by Furness et al
[ 1]  J. W. Furness, A. D. Kaplan, J. Ning, J. P. Perdew, and J. Sun.,  J. Phys. Chem. Lett. 11, 8208-8215 (2020)
[ 2]  J. W. Furness, A. D. Kaplan, J. Ning, J. P. Perdew, and J. Sun.,  J. Phys. Chem. Lett. 11, 9248-9248 (2020)

================================================================================
                                       INPUT FILE
================================================================================
NAME = xtb_opt.inp
|  1> ! r2scan-3c def2/J RI DEFGRID2 scfconv7 ENGRAD tightSCF miniprint
|  2> %cpcm
|  3>     smd true
|  4>     smdsolvent "water"
|  5> end
|  6> * xyzfile 0 1 xtb_opt.xyz
|  7> 
|  8>                          ****END OF INPUT****
================================================================================

                     *******************************
                     * Energy+Gradient Calculation *
                     *******************************

---------------------------------
CARTESIAN COORDINATES (ANGSTROEM)
---------------------------------
  C     -2.615968    0.559194    0.000428
  C     -1.235204   -0.043120   -0.000271
  C     -1.151206   -1.442840   -0.000176
  C      0.072989   -2.089989   -0.000147
  C      1.249011   -1.347918   -0.000085
  C      1.172975    0.038742   -0.000208
  C     -0.060312    0.717804   -0.000723
  C     -0.005429    2.221160   -0.000187
  O      2.302673    0.817180    0.000689
  H     -3.170760    0.219544    0.879554
  H     -2.616809    1.647174    0.002429
  H     -3.170700    0.222453   -0.879889
  H     -2.069230   -2.021613    0.000068
  H      0.120224   -3.173031    0.000051
  H      2.217518   -1.838343    0.000221
  H      0.557920    2.579524   -0.866842
  H     -0.990328    2.681377   -0.020040
  H      0.523278    2.580837    0.887790
  H      3.085452    0.249296   -0.000265

----------------------------
CARTESIAN COORDINATES (A.U.)
----------------------------
  NO LB      ZA    FRAG     MASS         X           Y           Z
   0 C     6.0000    0    12.011   -4.943463    1.056723    0.000808
   1 C     6.0000    0    12.011   -2.334198   -0.081486   -0.000512
   2 C     6.0000    0    12.011   -2.175463   -2.726572   -0.000333
   3 C     6.0000    0    12.011    0.137930   -3.949507   -0.000278
   4 C     6.0000    0    12.011    2.360288   -2.547196   -0.000160
   5 C     6.0000    0    12.011    2.216602    0.073211   -0.000393
   6 C     6.0000    0    12.011   -0.113973    1.356453   -0.001367
   7 C     6.0000    0    12.011   -0.010260    4.197385   -0.000353
   8 O     8.0000    0    15.999    4.351422    1.544246    0.001302
   9 H     1.0000    0     1.008   -5.991868    0.414877    1.662116
  10 H     1.0000    0     1.008   -4.945052    3.112708    0.004590
  11 H     1.0000    0     1.008   -5.991754    0.420376   -1.662750
  12 H     1.0000    0     1.008   -3.910278   -3.820295    0.000128
  13 H     1.0000    0     1.008    0.227191   -5.996159    0.000096
  14 H     1.0000    0     1.008    4.190501   -3.473965    0.000418
  15 H     1.0000    0     1.008    1.054316    4.874595   -1.638093
  16 H     1.0000    0     1.008   -1.871448    5.067068   -0.037870
  17 H     1.0000    0     1.008    0.988852    4.877075    1.677680
  18 H     1.0000    0     1.008    5.830659    0.471101   -0.000502

------------------------------------------------------------------------------
                   ___                                                        
                  /   \      - P O W E R E D   B Y -                         
                 /     \                                                     
                 |  |  |   _    _      __       _____    __    __             
                 |  |  |  | |  | |    /  \     |  _  \  |  |  /  |          
                  \  \/   | |  | |   /    \    | | | |  |  | /  /          
                 / \  \   | |__| |  /  /\  \   | |_| |  |  |/  /          
                |  |  |   |  __  | /  /__\  \  |    /   |      \           
                |  |  |   | |  | | |   __   |  |    \   |  |\   \          
                \     /   | |  | | |  |  |  |  | |\  \  |  | \   \       
                 \___/    |_|  |_| |__|  |__|  |_| \__\ |__|  \__/        
                                                                              
                      - O R C A' S   B I G   F R I E N D -                    
                                      &                                       
                       - I N T E G R A L  F E E D E R -                       
                                                                              
 v1 FN, 2020, v2 2021, v3 2022-2024                                           
------------------------------------------------------------------------------


----------------------
SHARK INTEGRAL PACKAGE
----------------------

Number of atoms                             ...     19
Number of basis functions                   ...    226
Number of shells                            ...    112
Maximum angular momentum                    ...      2
Integral batch strategy                     ... SHARK/LIBINT Hybrid
RI-J (if used) integral strategy            ... SPLIT-RIJ (Revised 2003 algorithm where possible)
Printlevel                                  ...      1
Contraction scheme used                     ... SEGMENTED contraction
Prescreening option                         ... SCHWARTZ
   Thresh                                   ... 3.000e-11
   Tcut                                     ... 1.000e-12
   Tpresel                                  ... 1.000e-12 
Coulomb Range Separation                    ... NOT USED
Exchange Range Separation                   ... NOT USED
Multipole approximations                    ... NOT USED
Finite Nucleus Model                        ... NOT USED
CABS basis                                  ... NOT available
Auxiliary Coulomb fitting basis             ... AVAILABLE
   # of basis functions in Aux-J            ...    551
   # of shells in Aux-J                     ...    185
   Maximum angular momentum in Aux-J        ...      4
Auxiliary J/K fitting basis                 ... NOT available
Auxiliary Correlation fitting basis         ... NOT available
Auxiliary 'external' fitting basis          ... NOT available

Checking pre-screening integrals            ... done (  0.0 sec) Dimension = 112
Check shell pair data                       ... done (  0.0 sec)
Shell pair information
Shell pair cut-off parameter TPreSel        ...   1.0e-12
Total number of shell pairs                 ...      6328
Shell pairs after pre-screening             ...      5717
Total number of primitive shell pairs       ...     23019
Primitive shell pairs kept                  ...     14727
          la=0 lb=0:   1888 shell pairs
          la=1 lb=0:   2179 shell pairs
          la=1 lb=1:    648 shell pairs
          la=2 lb=0:    600 shell pairs
          la=2 lb=1:    348 shell pairs
          la=2 lb=2:     54 shell pairs

Calculating one electron integrals          ... done (  0.0 sec)
Calculating RI/J V-Matrix + Cholesky decomp.... done (  0.1 sec)
Calculating Nuclear repulsion               ... done (  0.0 sec) ENN=    431.107767691630 Eh

Diagonalization of the overlap matrix:
Smallest eigenvalue                        ... 1.934e-05
Time for diagonalization                   ...    0.004 sec
Threshold for overlap eigenvalues          ... 1.000e-07
Number of eigenvalues below threshold      ... 0
Time for construction of square roots      ...    0.014 sec
Total time needed                          ...    0.028 sec

-------------------
DFT GRID GENERATION
-------------------

General Integration Accuracy     IntAcc      ... 4.388
Radial Grid Type                 RadialGrid  ... OptM3 with GC (2021)
Angular Grid (max. ang.)         AngularGrid ... 4 (Lebedev-302)
Angular grid pruning method      GridPruning ... 4 (adaptive)
Weight generation scheme         WeightScheme... mBecke (2022)
Basis function cutoff            BFCut       ... 1.0000e-11
Integration weight cutoff        WCut        ... 1.0000e-14
Partially contracted basis set               ... off
Rotationally invariant grid construction     ... off
Angular grids for H and He will be reduced by one unit
Diffuse basis detected: some atoms will have their outermost
                        angular grid increased by 1.

Total number of grid points                  ...    86391
Total number of batches                      ...     1361
Average number of points per batch           ...       63
Average number of grid points per atom       ...     4547
Initializing property integral containers    ... done (  0.0 sec)

SHARK setup successfully completed in   1.1 seconds

Maximum memory used throughout the entire STARTUP-calculation: 38.9 MB
Occupation numbers will be reassigned to an Aufbau configuration
             **** ENERGY FILE WAS UPDATED (xtb_opt.en.tmp) ****
Finished Guess after   0.3 sec
Maximum memory used throughout the entire GUESS-calculation: 16.0 MB
--------------------
CPCM SOLVATION MODEL
--------------------
CPCM parameters:
  Epsilon                                         ...      78.3550
  Refrac                                          ...       1.3328
  Rsolv                                           ...       1.3000
  Surface type                                    ... GAUSSIAN VDW
  Discretization scheme                           ... Constant charge density
    Threshold for H atoms                         ...       5.0000 (charges/Ang^2)
    Threshold for non-H atoms                     ...       5.0000 (charges/Ang^2)
  Epsilon function type                           ...         CPCM
Solvent:                                          ... WATER
SMD-CDS solvent descriptors:
  Soln                                            ...       1.3328
  Soln25                                          ...       1.3323
  Sola                                            ...       0.0000
  Solb                                            ...       0.0000
  Solg                                            ...       0.0000
  Solc                                            ...       0.0000
  Solh                                            ...       0.0000
Radii:
  Scheme                                          ... Element-dependent radii
  Radius for C  used is    3.4960 Bohr (=   1.8500 Ang.)
  Radius for O  used is    2.8724 Bohr (=   1.5200 Ang.)
  Radius for H  used is    2.2677 Bohr (=   1.2000 Ang.)
Calculating surface                               ...        done! (  0.0s)
Cavity surface points                             ...         1414
Cavity Volume                                     ...     908.8025
Cavity Surface-area                               ...     564.1499
Calculating surface distance matrix               ...        done! (  0.0s)
Performing Cholesky decomposition & store         ...        done! (  0.1s)
Overall time for CPCM initialization              ...                 0.1s

----------------------------------------D-I-I-S--------------------------------------------
Iteration    Energy (Eh)           Delta-E    RMSDP     MaxDP     DIISErr   Damp  Time(sec)
-------------------------------------------------------------------------------------------
               ***  Starting incremental Fock matrix formation  ***
    1    -386.0183450076969507     0.00e+00  1.12e-04  3.68e-03  4.56e-03  0.700   2.7
    2    -386.0184045503044103    -5.95e-05  9.57e-05  3.15e-03  3.48e-03  0.700   2.3
                               ***Turning on AO-DIIS***
                              *** Initializing SOSCF ***
---------------------------------------S-O-S-C-F--------------------------------------
Iteration    Energy (Eh)           Delta-E    RMSDP     MaxDP     MaxGrad    Time(sec)
--------------------------------------------------------------------------------------
    3    -386.0184454864026407    -4.09e-05  2.23e-04  6.81e-03  2.51e-03     2.2
               *** Restarting incremental Fock matrix formation ***
    4    -386.0185378653577004    -9.24e-05  3.67e-05  5.76e-04  1.18e-04     2.7
    5    -386.0185369175420078     9.48e-07  1.55e-05  2.64e-04  2.73e-04     2.2
    6    -386.0185386866310751    -1.77e-06  6.93e-06  1.41e-04  4.68e-05     2.1
    7    -386.0185386445809286     4.21e-08  4.03e-06  7.66e-05  4.57e-05     2.1
                 **** Energy Check signals convergence ****

               *****************************************************
               *                     SUCCESS                       *
               *           SCF CONVERGED AFTER   7 CYCLES          *
               *****************************************************


SMD CDS free energy correction energy :                 4.08903     Kcal/mol
Total Energy after SMD CDS correction =              -386.012022367 Eh
             **** ENERGY FILE WAS UPDATED (xtb_opt.en.tmp) ****

----------------
TOTAL SCF ENERGY
----------------

Total Energy       :       -386.01202236703762 Eh          -10503.92114 eV

Components:
Nuclear Repulsion  :        431.10776769163027 Eh           11731.03875 eV
Electronic Energy  :       -817.10888966565710 Eh          -22234.66328 eV
One Electron Energy:      -1376.95066819744898 Eh          -37468.73256 eV
Two Electron Energy:        559.84177853179187 Eh           15234.06928 eV
CPCM Dielectric    :         -0.01741667055410 Eh              -0.47393 eV
SMD CDS (Gcds)     :          0.00651627754331 Eh               0.17732 eV

Virial components:
Potential Energy   :       -770.28600080382557 Eh          -20960.54770 eV
Kinetic Energy     :        384.27397843678801 Eh           10456.62656 eV
Virial Ratio       :          2.00452292902403

DFT components:
N(Alpha)           :       33.000016710384 electrons
N(Beta)            :       33.000016710384 electrons
N(Total)           :       66.000033420769 electrons
E(X)               :      -53.496700563200 Eh       
E(C)               :       -2.122220190525 Eh       
E(XC)              :      -55.618920753725 Eh       

CPCM Solvation Model Properties:
Surface-charge          :         -0.04680749652768
Corrected charge        :          0.00000000000000
Outlying charge corr.   :          0.00016796120102 Eh               0.00457 eV
Free-energy (cav+disp)  :          0.00651627754331 Eh               0.17732 eV

---------------
SCF CONVERGENCE
---------------

  Last Energy change         ...   -4.2050e-08  Tolerance :   1.0000e-07
  Last MAX-Density change    ...    7.6596e-05  Tolerance :   1.0000e-07
  Last RMS-Density change    ...    4.0348e-06  Tolerance :   5.0000e-09
  Last DIIS Error            ...    2.5054e-03  Tolerance :   1.0000e-07
  Last Orbital Gradient      ...    4.5708e-05  Tolerance :   1.0000e-04
  Last Orbital Rotation      ...    8.8643e-05  Tolerance :   1.0000e-04


----------------
ORBITAL ENERGIES
----------------

  NO   OCC          E(Eh)            E(eV) 
   0   2.0000     -18.980212      -516.4778 
   1   2.0000     -10.091761      -274.6108 
   2   2.0000     -10.043438      -273.2958 
   3   2.0000     -10.039421      -273.1865 
   4   2.0000     -10.031244      -272.9640 
   5   2.0000     -10.027158      -272.8528 
   6   2.0000     -10.021474      -272.6982 
   7   2.0000     -10.019339      -272.6401 
   8   2.0000     -10.018488      -272.6169 
   9   2.0000      -1.021959       -27.8089 
  10   2.0000      -0.822174       -22.3725 
  11   2.0000      -0.742738       -20.2109 
  12   2.0000      -0.723088       -19.6762 
  13   2.0000      -0.659235       -17.9387 
  14   2.0000      -0.636604       -17.3229 
  15   2.0000      -0.575943       -15.6722 
  16   2.0000      -0.546896       -14.8818 
  17   2.0000      -0.487563       -13.2673 
  18   2.0000      -0.454182       -12.3589 
  19   2.0000      -0.443441       -12.0666 
  20   2.0000      -0.403330       -10.9752 
  21   2.0000      -0.392093       -10.6694 
  22   2.0000      -0.373330       -10.1588 
  23   2.0000      -0.369846       -10.0640 
  24   2.0000      -0.365709        -9.9514 
  25   2.0000      -0.352393        -9.5891 
  26   2.0000      -0.352162        -9.5828 
  27   2.0000      -0.334446        -9.1007 
  28   2.0000      -0.312152        -8.4941 
  29   2.0000      -0.301730        -8.2105 
  30   2.0000      -0.295481        -8.0405 
  31   2.0000      -0.220955        -6.0125 
  32   2.0000      -0.201304        -5.4778 
  33   0.0000      -0.024664        -0.6711 
  34   0.0000      -0.018696        -0.5088 
  35   0.0000       0.074238         2.0201 
  36   0.0000       0.094643         2.5754 
  37   0.0000       0.108250         2.9456 
  38   0.0000       0.117722         3.2034 
  39   0.0000       0.125301         3.4096 
  40   0.0000       0.138380         3.7655 
  41   0.0000       0.148063         4.0290 
  42   0.0000       0.156326         4.2538 
  43   0.0000       0.164723         4.4823 
*Only the first 10 virtual orbitals were printed.
Total SCF time: 0 days 0 hours 0 min 16 sec 
Finished LeanSCF after  17.3 sec

Maximum memory used throughout the entire LEANSCF-calculation: 29.5 MB


-------------------------------------------------------------------------------
                          DFT DISPERSION CORRECTION                            
                                                                               
                                DFTD4 V3.4.0                                   
-------------------------------------------------------------------------------
-------------------------   ----------------
Dispersion correction           -0.006281471
-------------------------   ----------------

------------------   -----------------
gCP correction             0.007470954
------------------   -----------------

-------------------------   --------------------
FINAL SINGLE POINT ENERGY      -386.010832883923
[...]
  Last RMS-Density change    ...    3.5310e-06  Tolerance :   5.0000e-09
  Last DIIS Error            ...    1.0090e-04  Tolerance :   1.0000e-07
  Last Orbital Gradient      ...    2.1933e-05  Tolerance :   1.0000e-04
  Last Orbital Rotation      ...    9.6840e-05  Tolerance :   1.0000e-04


----------------
ORBITAL ENERGIES
----------------

  NO   OCC          E(Eh)            E(eV) 
   0   2.0000     -18.979783      -516.4661 
   1   2.0000     -10.092600      -274.6336 
   2   2.0000     -10.045001      -273.3384 
   3   2.0000     -10.040918      -273.2273 
   4   2.0000     -10.032671      -273.0028 
   5   2.0000     -10.028761      -272.8965 
   6   2.0000     -10.022790      -272.7340 
   7   2.0000     -10.020262      -272.6652 
   8   2.0000     -10.019344      -272.6402 
   9   2.0000      -1.018990       -27.7281 
  10   2.0000      -0.821832       -22.3632 
  11   2.0000      -0.742897       -20.2153 
  12   2.0000      -0.722832       -19.6693 
  13   2.0000      -0.659323       -17.9411 
  14   2.0000      -0.636894       -17.3308 
  15   2.0000      -0.574054       -15.6208 
  16   2.0000      -0.547310       -14.8931 
  17   2.0000      -0.486341       -13.2340 
  18   2.0000      -0.454022       -12.3546 
  19   2.0000      -0.442894       -12.0518 
  20   2.0000      -0.402465       -10.9516 
  21   2.0000      -0.392683       -10.6855 
  22   2.0000      -0.372550       -10.1376 
  23   2.0000      -0.370808       -10.0902 
  24   2.0000      -0.366244        -9.9660 
  25   2.0000      -0.352148        -9.5824 
  26   2.0000      -0.351607        -9.5677 
  27   2.0000      -0.334533        -9.1031 
  28   2.0000      -0.312178        -8.4948 
  29   2.0000      -0.301316        -8.1992 
  30   2.0000      -0.296856        -8.0779 
  31   2.0000      -0.221230        -6.0200 
  32   2.0000      -0.202065        -5.4985 
  33   0.0000      -0.026154        -0.7117 
  34   0.0000      -0.019621        -0.5339 
  35   0.0000       0.073742         2.0066 
  36   0.0000       0.093942         2.5563 
  37   0.0000       0.107962         2.9378 
  38   0.0000       0.116098         3.1592 
  39   0.0000       0.124825         3.3967 
  40   0.0000       0.137566         3.7434 
  41   0.0000       0.147557         4.0152 
  42   0.0000       0.156142         4.2488 
  43   0.0000       0.164112         4.4657 
*Only the first 10 virtual orbitals were printed.
Total SCF time: 0 days 0 hours 0 min 4 sec 
Finished LeanSCF after   5.0 sec

Maximum memory used throughout the entire LEANSCF-calculation: 29.5 MB


-------------------------------------------------------------------------------
                          DFT DISPERSION CORRECTION                            
                                                                               
                                DFTD4 V3.4.0                                   
-------------------------------------------------------------------------------
-------------------------   ----------------
Dispersion correction           -0.006272652
-------------------------   ----------------

------------------   -----------------
gCP correction             0.007464061
------------------   -----------------

-------------------------   --------------------
FINAL SINGLE POINT ENERGY      -386.010981472974
-------------------------   --------------------

------------------------------------------------------------------------------
                         ORCA SCF GRADIENT CALCULATION
------------------------------------------------------------------------------

Nuc. rep. gradient        (SHARK) ... done (  0.0 sec)
HCore & Overlap gradient  (SHARK) ... done (  0.2 sec)
Split-RIJ-J gradient      (SHARK) ... done (  1.1 sec)
XC gradient                       ... done (  4.0 sec)
CPCM gradient                     ... done (  0.8 sec)
SMD gradient                      ... done (  0.0 sec)
Dispersion correction             ... done (  0.0 sec)

-------------------
DISPERSION GRADIENT
-------------------

   1   C   :   -0.000117187    0.000024616    0.000000010
   2   C   :   -0.000065745   -0.000006495   -0.000000024
   3   C   :   -0.000052319   -0.000086708   -0.000000027
   4   C   :    0.000015446   -0.000115225   -0.000000041
   5   C   :    0.000075612   -0.000075060   -0.000000006
   6   C   :    0.000080948   -0.000000377    0.000000000
   7   C   :    0.000013729    0.000044042   -0.000000031
   8   C   :    0.000010791    0.000118738   -0.000000033
   9   O   :    0.000111429    0.000019915    0.000000008
  10   H   :   -0.000047943    0.000003923    0.000011000
  11   H   :   -0.000042609    0.000019263    0.000000049
  12   H   :   -0.000047921    0.000003976   -0.000010971
  13   H   :   -0.000028718   -0.000034594   -0.000000006
  14   H   :    0.000003717   -0.000045480   -0.000000014
  15   H   :    0.000034938   -0.000026276    0.000000008
  16   H   :    0.000014525    0.000046074   -0.000011516
  17   H   :   -0.000005453    0.000048160   -0.000000305
  18   H   :    0.000014185    0.000046355    0.000011864
  19   H   :    0.000032575    0.000015152    0.000000035

Difference to translation invariance:
           :   -0.0000000000    0.0000000000    0.0000000000

Difference to rotation invariance:
           :    0.0000000000    0.0000000000   -0.0000000000

Norm of the Dispersion gradient    ...    0.0003334674
RMS gradient                       ...    0.0000441688
MAX gradient                       ...    0.0001187377
gCP correction                   ... done

------------------
CARTESIAN GRADIENT
------------------

   1   C   :    0.000009453   -0.000046030    0.000001296
   2   C   :   -0.000165083   -0.000018574    0.000000005
   3   C   :    0.000100541   -0.000053566   -0.000000178
   4   C   :   -0.000049730    0.000110282    0.000000328
   5   C   :    0.000023456   -0.000047604   -0.000000120
   6   C   :   -0.000385416   -0.000348763   -0.000002083
   7   C   :    0.000156382    0.000215203    0.000000379
   8   C   :    0.000045950   -0.000089076   -0.000002213
   9   O   :    0.000250867    0.000287622   -0.000000475
  10   H   :    0.000028730    0.000029208   -0.000021662
  11   H   :   -0.000017931   -0.000065992   -0.000004966
  12   H   :    0.000027026    0.000018657    0.000027224
  13   H   :    0.000071156    0.000031057    0.000001733
  14   H   :    0.000027146    0.000043993    0.000001153
  15   H   :   -0.000037354    0.000075512   -0.000002717
  16   H   :   -0.000089716   -0.000019358    0.000056461
  17   H   :    0.000057289   -0.000031385   -0.000000320
  18   H   :   -0.000089722   -0.000022426   -0.000048626
  19   H   :    0.000036956   -0.000068760   -0.000005219

Difference to translation invariance:
           :   -0.0000000000   -0.0000000000    0.0000000000

Difference to rotation invariance:
           :   -0.0000042556    0.0000562688    0.0008726411

Norm of the Cartesian gradient     ...    0.0007837706
RMS gradient                       ...    0.0001038129
MAX gradient                       ...    0.0003854156

-------
TIMINGS
-------

Total SCF gradient time     ....        6.847 sec

Densities                   ....       0.000 sec  (  0.0%)
One electron gradient       ....       0.188 sec  (  2.7%)
RI-J Coulomb gradient       ....       1.090 sec  ( 15.9%)
XC gradient                 ....       4.032 sec  ( 58.9%)
CPCM gradient               ....       0.823 sec  ( 12.0%)
   A-Matrix (El+Nuc)        ....       0.041 sec  (  0.6%)
   Potential                ....       0.781 sec  ( 11.4%)
SMD gradient                ....       0.013 sec  (  0.2%)

Maximum memory used throughout the entire SCFGRAD-calculation: 36.2 MB

------------------------------------------------------------------------------
                              ORCA PROPERTY CALCULATIONS
------------------------------------------------------------------------------

GBWName                                 ... xtb_opt.gbw
Number of atoms                         ...     19
Number of basis functions               ...    226
Max core memory                         ...   1024 MB

Electric properties:
Dipole moment                           ... YES
Quadrupole moment                       ...  NO
Static polarizability (Dipole/Dipole)   ...  NO
Static polarizability (Dipole/Quad.)    ...  NO
Static polarizability (Quad./Quad.)     ...  NO
Static polarizability (Velocity)        ...  NO

Atomic electric properties:
Dipole moment                           ...  NO
Quadrupole moment                       ...  NO
Static polarizability                   ...  NO

Choice of electric origin               ... Center of mass
Position of electric origin             ...     0.010621    -0.008564     0.000135

General magnetic properties:
Magnetizability                         ...  NO

EPR properties:
g-Tensor (aka g-matrix)                 ...  NO
Zero-Field splitting spin-orbit         ...  NO
Zero-field splitting spin-spin          ...  NO
Hyperfine couplings                     ...  NO (   0 nuclei)
Quadrupole couplings                    ...  NO (   0 nuclei)
Contact density                         ...  NO (   0 nuclei)

NMR properties:
Chemical shifts                         ...  NO (   0 nuclei)
Spin-rotation constants                 ...  NO (   0 nuclei)
Spin-spin couplings                     ...  NO (   0 nuclei,    0 pairs)

Choice of magnetic origin               ... GIAO
Position of magnetic origin             ...     0.000000     0.000000     0.000000

Properties with geometric perturbations:
SCF Hessian                             ...  NO
IR spectrum                             ...  NO
VCD spectrum                            ...  NO
X-ray spectroscopy properties:
SCF XES/XAS/RIXS spectra                ...  NO


-------------
DIPOLE MOMENT
-------------

Method             : SCF
Type of density    : Electron Density
Multiplicity       :   1
Irrep              :   0
Energy             :  -386.0121728821714555 Eh
Relativity type    : 
Basis              : AO
                                X                 Y                 Z
Electronic contribution:      5.413399887      -3.310223981      -0.000961800
Nuclear contribution   :     -5.214122624       3.018519978       0.001642025
                        -----------------------------------------
Total Dipole Moment    :      0.199277263      -0.291704002       0.000680226
                        -----------------------------------------
Magnitude (a.u.)       :      0.353274844
Magnitude (Debye)      :      0.897953291



--------------------
Rotational spectrum 
--------------------
 
Rotational constants in cm-1:             0.075306             0.058384             0.033292 
Rotational constants in MHz :          2257.606123          1750.312707           998.059933 

Dipole components along the rotational axes: 
x,y,z [a.u.] :     0.174341     0.307259     0.000684 
x,y,z [Debye]:     0.443140     0.780989     0.001738 

 

Dipole moment calculation done in   0.0 sec 

Maximum memory used throughout the entire PROP-calculation: 14.8 MB

--------------------------------
SUGGESTED CITATIONS FOR THIS RUN
--------------------------------

Below you find a list of papers that are relevant to this ORCA run
We neither can nor want to force you to cite these papers, but we appreciate if you do
You receive ORCA, which is the product of decades of hard work by many enthusiastic individuals, for free
The only thing we kindly ask in return is that you cite our papers,
We deeply appreciate it, if you show your appreciation for ORCA by not just citing the generic ORCA reference.

Please note that relegating all ORCA citations to the supporting information does *not* help us.
SI sections are not indexed - citations you put there will not count into any citation statistics
But we need these citations in order to attract the funding resources that allow us to do what we are doing

Therefore, if you are a happy ORCA user, please consider citing a few of the papers listed below in the main body of your paper

In addition to the list printed below, the program has created the file xtb_opt.bibtex that contains the list in bibtex format
You can import this file easily into all common literature databanks and citation aid programs


List of essential papers. We consider these as the minimum necessary citations

  1. Neese,F.
     Software update: the ORCA program system, version 5.0
     WIRES Comput. Molec. Sci., 2022 12(1)e1606
     doi.org/10.1002/wcms.1606
  2. Grimme,S.; Hansen,A.; Ehlert,S.; Mewes,J.
     r2SCAN-3c: A 'Swiss army knife' composite electronic-structure method
     J. Chem. Phys., 2021 154 064103
     doi.org/10.1063/5.0040021

List of papers to cite with high priority. The work reported in these papers was absolutely
necessary for this run to complete.
Our perspective: the developers of density functionals and basis sets usually get cited in chemistry papers
Good! But without the algorithms to do something with them, the functionals or basis sets would not do anything.
Hence, in our opinion, the algorithm design and method developments papers are equally worthy of getting cited

  1. Neese,F.
     An improvement of the resolution of the identity approximation for the formation of the Coulomb matrix
     J. Comp. Chem., 2003 24(14)1740-1747
     doi.org/10.1002/jcc.10318
  2. Garcia-Rates,M.; Neese,F.
     Effect of the Solute Cavity on the Solvation Energy and its Derivatives within the Framework of the Gaussian Charge Scheme
     J. Comput. Chem., 2020 41 922-939
     doi.org/10.1002/jcc.26139
  3. Neese,F.
     The SHARK Integral Generation and Digestion System
     J. Comp. Chem., 2022  1-16
     doi.org/10.1002/jcc.26942
  4. Lehtola,S.; Steigemann,C.; Oliveira,M.; Marques,M.
     Recent developments in Libxc - A comprehensive library of functionals for density functional theory
     Software X, 2018 7 
     doi.org/10.1016/j.softx.2017.11.002
  5. Caldeweyher,E.; Bannwarth,C.; Grimme,S.
     Extension of the D3 dispersion coefficient model
     J. Chem. Phys., 2017 147 034112-XXXX
     doi.org/10.1063/1.4993215
  6. Caldeweyher,E.; Ehlert,S.; Hansen,A.; Neugebauer,H.; Spicher,S.; Bannwarth,C.; Grimme,S.
     A generally applicable atomic-charge dependent London dispersion correction
     J. Chem. Phys., 2019 150 154122-XXXX
     doi.org/10.1063/1.5090222
  7. Caldeweyher,E.; Mewes,J.; Ehlert,S.; Grimme,S.
     Extension and evaluation of the D4 London-dispersion model for periodic systems
     Phys. Chem. Chem. Phys., 2020 22(16)8499-8512
     doi.org/10.1039/D0CP00502A

List of suggested additional citations. These are papers that are important in the 'surrounding' of 
of this run, or papers that preceded the highly important papers. If you like your results we are grateful for a citation.

  1. Neese,F.
     The ORCA program system
     WIRES Comput. Molec. Sci., 2012 2(1)73-78
     doi.org/10.1002/wcms.81
  2. Neese,F.
     Software update: the ORCA program system, version 4.0
     WIRES Comput. Molec. Sci., 2018 8(1)1-6
     doi.org/10.1002/wcms.1327
  3. Neese,F.; Wennmohs,F.; Becker,U.; Riplinger,C.
     The ORCA quantum chemistry program package
     J. Chem. Phys., 2020 152 Art. No. L224108
     doi.org/10.1063/5.0004608

List of optional additional citations

  1. Neese,F.
     Approximate second-order SCF convergence for spin unrestricted wavefunctions
     Chem. Phys. Lett., 2000 325(1-3)93-98
     doi.org/10.1016/s0009-2614(00)00662-x

Timings for individual modules:

Sum of individual times          ...       13.272 sec (=   0.221 min)
Startup calculation              ...        0.896 sec (=   0.015 min)   6.8 %
SCF iterations                   ...        5.344 sec (=   0.089 min)  40.3 %
Property calculations            ...        0.096 sec (=   0.002 min)   0.7 %
SCF Gradient evaluation          ...        6.935 sec (=   0.116 min)  52.3 %
                             ****ORCA TERMINATED NORMALLY****
TOTAL RUN TIME: 0 days 0 hours 0 minutes 15 seconds 123 msec
  ------------------------------------------------------------------------
          * successful ORCA run, taking over control again...

         :::::::::::::::::::::::::::::::::::::::::::::::::::::
         ::                  ORCA SUMMARY                   ::
         :::::::::::::::::::::::::::::::::::::::::::::::::::::
         :: total energy            -386.010981472974 Eh    ::
         :: gradient norm              0.000783770580 Eh/a0 ::
         :: HOMO-LUMO gap              0.000000000000 eV    ::
         :::::::::::::::::::::::::::::::::::::::::::::::::::::

           -------------------------------------------------
          |                Property Printout                |
           -------------------------------------------------
           -------------------------------------------------
          |                Geometry Summary                 |
           -------------------------------------------------

      molecular mass/u    :      122.1646996
   center of mass at/Å    :        0.0056364      -0.0045279       0.0000715
  moments of inertia/u·Å² :        0.2238501E+03   0.2887328E+03   0.5063521E+03
rotational constants/cm⁻¹ :        0.7530768E-01   0.5838489E-01   0.3329231E-01

 * 17 selected distances

     #   Z          #   Z                                           value/Å
     2   6 C        3   6 C                                       1.4043271
     3   6 C        4   6 C                                       1.3869073
     4   6 C        5   6 C                                       1.3919198
     5   6 C        6   6 C                                       1.3897193
     2   6 C        7   6 C                                       1.4050502
     6   6 C        7   6 C                                       1.4075484 (max)
     6   6 C        9   8 O                                       1.3812119
     1   6 C       10   1 H                                       1.0953178
     1   6 C       11   1 H                                       1.0889110
     1   6 C       12   1 H                                       1.0953423
     3   6 C       13   1 H                                       1.0864000
     4   6 C       14   1 H                                       1.0856398
     5   6 C       15   1 H                                       1.0866586
     8   6 C       16   1 H                                       1.0954267
     8   6 C       17   1 H                                       1.0884118
     8   6 C       18   1 H                                       1.0956688
     9   8 O       19   1 H                                       0.9673947 (min)

 * 4 distinct bonds (by element types)

   Z      Z             #   av. dist./Å        max./Å        min./Å
   1 H    6 C           9     1.0908641     1.0956688     1.0856398
   6 C    6 C           6     1.3975787     1.4075484     1.3869073
   1 H    8 O           1     0.9673947     0.9673947     0.9673947
   6 C    8 O           1     1.3812119     1.3812119     1.3812119


optimized geometry written to: xtbopt.coord


           -------------------------------------------------
          | TOTAL ENERGY             -386.010981472974 Eh   |
          | GRADIENT NORM               0.000783770580 Eh/α |
           -------------------------------------------------

------------------------------------------------------------------------
 * finished run on 2025/04/03 at 19:43:32.588     
------------------------------------------------------------------------
 total:
 * wall-time:     0 d,  0 h,  2 min,  4.071 sec
 *  cpu-time:     0 d,  0 h,  0 min,  0.973 sec
 * ratio c/w:     0.008 speedup
 SCF:
 * wall-time:     0 d,  0 h,  0 min, 20.627 sec
 *  cpu-time:     0 d,  0 h,  0 min,  0.358 sec
 * ratio c/w:     0.017 speedup
 ANC optimizer:
 * wall-time:     0 d,  0 h,  1 min, 43.420 sec
 *  cpu-time:     0 d,  0 h,  0 min,  0.594 sec
 * ratio c/w:     0.006 speedup

