41
 energy: -2932.484723477796 gnorm: 0.001332653896 xtb: 6.7.1 (edcfbbe)
C            5.94300909567063       -0.02838701049002       -0.88597853282400
C            4.73309705890652       -0.82881762986365       -0.47519376185554
O            3.73732201943097        0.07722135277553        0.12208375872414
P            2.33736745992538        0.36328625351577       -0.61660642657355
S            2.36202639743791        0.90247209033485       -2.48375340694166
O            1.72650336154003        1.51149841215629        0.32026233056908
C            1.68580365110422        1.37692533384714        1.78734479226932
C            0.91301904365042        2.55497829450614        2.32012215729746
S            1.33850816514931       -1.46983714871124       -0.21029890331628
C           -0.00363707858458       -1.48788151931772       -1.48247088655510
S           -1.64714687995041       -1.88890652126525       -0.78582126258620
P           -2.21285370724637        0.01338244414079       -0.00980556258424
S           -1.89728878326802        1.52194650671654       -1.19158969294421
O           -1.48784449735528        0.21534771731478        1.40032539323736
C           -1.64060982324190       -0.74596364713091        2.50954427903109
C           -2.47882866387103       -0.12128125191437        3.59543299296832
O           -3.72394473397972       -0.30634889047892        0.43899969204118
C           -4.79680667032240       -0.47032942352824       -0.55563871717772
C           -6.10375501727335       -0.22284713400080        0.15022539983070
H            6.70450985649488       -0.71052995990725       -1.27708991106878
H            5.68633063506053        0.69197393276152       -1.66786650881718
H            6.36497012269018        0.50712863009420       -0.03070002182555
H            4.96627409128019       -1.55774018477985        0.30488778274348
H            4.28654466029287       -1.35328667997859       -1.32600492076912
H            1.20089403571383        0.42658801085243        2.03449034170068
H            2.71517191571689        1.36704712773513        2.15522190919939
H            1.40593052427275        3.49549648326838        2.05822201059126
H           -0.10873623498773        2.56549747605331        1.93149617254344
H            0.86772501704790        2.48123609700964        3.41117068731818
H            0.21744245784884       -2.28007600447410       -2.20161741842226
H           -0.03647039973098       -0.52501859301743       -2.00219422373482
H           -2.08154894499074       -1.67419144555214        2.13459992619083
H           -0.62152846440419       -0.95281634600330        2.84575889220468
H           -2.02696309197022        0.81019068437983        3.94853033718215
H           -3.49325274917478        0.08335689887435        3.24196651476464
H           -2.53925976500703       -0.81652316135315        4.43907422238160
H           -4.63256996958100        0.24574579622671       -1.36715793084367
H           -4.73318843883927       -1.48877097420956       -0.95031076614378
H           -6.14773552163740        0.79686513832330        0.54273225377628
H           -6.92079139327511       -0.35462519017446       -0.56580217731314
H           -6.24650438024183       -0.93054595824523        0.97169295928974
41
 energy: -2932.484725445527 gnorm: 0.001566853001 xtb: 6.7.1 (edcfbbe)
C            5.94285255896192       -0.02846798913799       -0.88397058971867
C            4.73297960375494       -0.82962424331923       -0.47732771803641
O            3.73517445101611        0.07466927292442        0.12037828484381
P            2.33542327906538        0.36243425093339       -0.61833159371520
S            2.36413785405846        0.90592857410020       -2.48427063993368
O            1.72666489587368        1.51121181237866        0.31948000879515
C            1.68653322442322        1.37680303118041        1.78699539607834
C            0.91397944394608        2.55466237092219        2.32034547077853
S            1.33978130714573       -1.47154355112391       -0.20552474160907
C            0.00046997267669       -1.48655520027728       -1.48142485453737
S           -1.64393240338358       -1.88713357027999       -0.78703283483707
P           -2.21593989056896        0.01250093059204       -0.01006930787942
S           -1.89928761979987        1.51731000266004       -1.19603498347687
O           -1.49144478356601        0.21692487945893        1.39998089845146
C           -1.64037423641495       -0.74478789788867        2.50942262851571
C           -2.47725112638629       -0.12020243360714        3.59623142909421
O           -3.72681136011295       -0.30875140246505        0.43774138867763
C           -4.79998006531015       -0.47052176380839       -0.55683112856420
C           -6.10600288411246       -0.22357481095093        0.15069314421624
H            6.70472849520895       -0.71026073749182       -1.27530072308209
H            5.68844525140260        0.69318777866021       -1.66526136304030
H            6.36424878554861        0.50485932524397       -0.02725554658333
H            4.96458687913439       -1.55931853777859        0.30216147240411
H            4.28799957865994       -1.35259480418351       -1.32938912049649
H            1.20160887451051        0.42659749124658        2.03442708050570
H            2.71592750490019        1.36707908226945        2.15475122167871
H            1.40785362582184        3.49526762433105        2.06061649208028
H           -0.10728405688318        2.56626834258041        1.93064277985102
H            0.86739909935561        2.47931261632920        3.41125268444260
H            0.22136269080741       -2.27849625097833       -2.20086737910438
H           -0.03304982219851       -0.52347699476106       -2.00071414082052
H           -2.08134101939893       -1.67323088652399        2.13541021988175
H           -0.62037451638816       -0.95034122124233        2.84349434998302
H           -2.02542689528316        0.81155872053716        3.94828718747330
H           -3.49224657242763        0.08365623719442        3.24413190480443
H           -2.53594438813631       -0.81522130936006        4.44016689561696
H           -4.63602908181630        0.24693231872140       -1.36709549928591
H           -4.73718917371180       -1.48822788326832       -0.95356044290012
H           -6.15000288835453        0.79616118588008        0.54302963003116
H           -6.92422839466896       -0.35633367970959       -0.56365035074197
H           -6.24683532833650       -0.93117793240707        0.97254414761402
41
 energy: -2932.484741712049 gnorm: 0.000813656047 xtb: 6.7.1 (edcfbbe)
C            5.94483381325775       -0.02848162626350       -0.88155896116991
C            4.73494210903512       -0.82986323159617       -0.47845689046130
O            3.73716895882458        0.07413639049643        0.12062824876116
P            2.33736269255697        0.36324023859164       -0.61758953583521
S            2.36355316121238        0.90407776694038       -2.48421748738246
O            1.72890953053483        1.51225953403511        0.32028428401596
C            1.68789244157162        1.37720020082118        1.78793500171002
C            0.91496661353313        2.55467860636002        2.32128925612260
S            1.33887101101706       -1.46910930269883       -0.20728198266466
C           -0.00266881312227       -1.48681700350646       -1.48074912093553
S           -1.64619781621270       -1.89111227603464       -0.78616106573343
P           -2.21764893371251        0.01041950080441       -0.01278052611509
S           -1.90322457025599        1.51601603426877       -1.19845640763182
O           -1.49475384009090        0.21822472173319        1.39765155522533
C           -1.63997438421731       -0.74312045238341        2.50813650902855
C           -2.47483359241227       -0.11868217499762        3.59649891482619
O           -3.72812663755977       -0.31270547298102        0.43437726937963
C           -4.80307234933281       -0.47093630430242       -0.55890791104416
C           -6.10780574237038       -0.22476424042339        0.15127000484727
H            6.70663167896546       -0.71005567259860       -1.27370086603371
H            5.69232513791709        0.69496019344930       -1.66173550730430
H            6.36589702298259        0.50219301113220       -0.02319904048590
H            4.96468342994585       -1.56106262961950        0.29990073394184
H            4.29020148901270       -1.35046650988460       -1.33180006660649
H            1.20299842960957        0.42682855239179        2.03465765597857
H            2.71718748788956        1.36756809259083        2.15584564101103
H            1.41003544450122        3.49543341258197        2.06439904620635
H           -0.10545941739075        2.56744235144339        1.92954209959116
H            0.86618020498277        2.47727542812776        3.41197206789036
H            0.22003919649749       -2.27776719303988       -2.20067179188428
H           -0.03716699597599       -0.52342644601378       -1.99937465985442
H           -2.08111735366016       -1.67205131188775        2.13584781448744
H           -0.61895565287935       -0.94736024606721        2.83979766158456
H           -2.02297627967221        0.81348202796112        3.94719126421077
H           -3.49067366407910        0.08423193269282        3.24641407252908
H           -2.53129547089151       -0.81328338411367        4.44095441909497
H           -4.63985363295151        0.24842609418535       -1.36754171905245
H           -4.74180665340742       -1.48764026156615       -0.95844808719220
H           -6.15188197172087        0.79495233148209        0.54356328018293
H           -6.92776023014437       -0.35853601160864       -0.56083552323627
H           -6.24624823555376       -0.93232284412610        0.97356496236839
41
 energy: -2932.484748375233 gnorm: 0.001062524280 xtb: 6.7.1 (edcfbbe)
C            5.94875351704574       -0.02877109579108       -0.87774471729648
C            4.73705877966904       -0.82970249071499       -0.47940040053909
O            3.73944985786719        0.07408937170382        0.12129212766033
P            2.33925070301492        0.36295060466995       -0.61608152866934
S            2.36197261690880        0.90168676774796       -2.48330734020749
O            1.73091536980347        1.51279413678720        0.32095651493012
C            1.68954658537161        1.37737020303413        1.78865186041633
C            0.91618520064244        2.55438171512579        2.32230966177136
S            1.33762029046925       -1.46828674590914       -0.20872652800583
C           -0.00320238180936       -1.48817843742979       -1.48262896661825
S           -1.64470863167635       -1.89281422201986       -0.78401139362256
P           -2.22222512110651        0.00882474577000       -0.01612978705626
S           -1.90912971621615        1.51494563721889       -1.20201519312265
O           -1.49995661310124        0.22026582562048        1.39406433527959
C           -1.63983632009664       -0.74064360550168        2.50581786485405
C           -2.47074207483304       -0.11608906489072        3.59717419292886
O           -3.73204764361690       -0.31661386117828        0.43089185824251
C           -4.80875283704274       -0.47115557915185       -0.56099354711622
C           -6.11193748119604       -0.22677218445680        0.15271549698112
H            6.71056228745598       -0.70960396906935       -1.27126363710735
H            5.69839163576659        0.69818069353945       -1.65545102528042
H            6.36895711616285        0.49811943135034       -0.01651401580623
H            4.96468514577209       -1.56440933165309        0.29648948801743
H            4.29253703216699       -1.34645228488284       -1.33552284433198
H            1.20495114715061        0.42664174405643        2.03450521907334
H            2.71889680927685        1.36770200837326        2.15643477221194
H            1.41276027601220        3.49537201987297        2.06922678149749
H           -0.10313771292323        2.56892381644488        1.92762706331815
H            0.86408425464564        2.47431535017209        3.41268387069391
H            0.22018510732065       -2.27847368202800       -2.20296275891638
H           -0.03928672054632       -0.52416635834480       -1.99996104701524
H           -2.08184106616377       -1.67024012680072        2.13608842953516
H           -0.61725613043476       -0.94381643828825        2.83339011877190
H           -2.01835449966191        0.81683042716086        3.94539967238026
H           -3.48818304436599        0.08561569613959        3.25080695111109
H           -2.52339090976980       -0.81006168115844        4.44241751689745
H           -4.64616312510639        0.25081370070365       -1.36748522602038
H           -4.74851183773702       -1.48656646133438       -0.96406489752807
H           -6.15637099600555        0.79291441274592        0.54509196185267
H           -6.93373709484361       -0.36198019331288       -0.55709553848270
H           -6.24681947115794       -0.93448969656473        0.97555243239131
41
 energy: -2932.484754913391 gnorm: 0.000929257916 xtb: 6.7.1 (edcfbbe)
C            5.95274695545520       -0.02901043128882       -0.87229821272533
C            4.73806192657936       -0.82977747429993       -0.48118029041960
O            3.74000546224094        0.07342471013475        0.12046830257173
P            2.33971074116624        0.36199840058392       -0.61659603285032
S            2.36286779205236        0.90223831057754       -2.48352382053509
O            1.73184509483782        1.51230600721562        0.32039867961380
C            1.69102264918663        1.37662505458719        1.78825162695946
C            0.91751809813054        2.55317214729974        2.32280526915831
S            1.33702096120586       -1.46832616808729       -0.20646590647680
C           -0.00446801524395       -1.48677904981759       -1.48004474997452
S           -1.64685751867499       -1.89576169430800       -0.78557236470556
P           -2.22559668421942        0.00678216924075       -0.02022928105560
S           -1.91587287974461        1.51242236612764       -1.20791639058757
O           -1.50478051595176        0.22276388554191        1.39003260480597
C           -1.63937198553441       -0.73757992431708        2.50294297241386
C           -2.46527630490516       -0.11248070302354        3.59785270701948
O           -3.73484050049037       -0.32151382304171        0.42633561512172
C           -4.81441187482973       -0.47155156949943       -0.56338587208732
C           -6.11593806091720       -0.22970103724472        0.15454440127329
H            6.71458911438207       -0.70898013622187       -1.26717859056714
H            5.70567356262342        0.70261794440000       -1.64681052151007
H            6.37153354388628        0.49292187316880       -0.00715113023884
H            4.96247156370163       -1.56891972199084        0.29173741569984
H            4.29493003668979       -1.34156132019680       -1.34133770689940
H            1.20680997349218        0.42566735699766        2.03393740393832
H            2.72049410404807        1.36703427629681        2.15582117116913
H            1.41581193918321        3.49440597914498        2.07401291935444
H           -0.10061175842988        2.56996196866224        1.92496802806492
H            0.86171465747199        2.47016796550969        3.41281823899012
H            0.22027140324389       -2.27599857488902       -2.20123715375078
H           -0.04093962304276       -0.52267894511472       -1.99720252893211
H           -2.08306745761973       -1.66757553325355        2.13602001947897
H           -0.61520061966343       -0.94045478367193        2.82578001552293
H           -2.01186256337965        0.82123095615135        3.94287542535334
H           -3.48470269832868        0.08806692810535        3.25633194917880
H           -2.51319261521273       -0.80564612832848        4.44406466519575
H           -4.65348052758240        0.25370405918229       -1.36733288387638
H           -4.75552567859916       -1.48532652943218       -0.97081618512888
H           -6.16119258903313        0.78973590216890        0.54754121427910
H           -6.93988006132195       -0.36624349840660       -0.55266396324779
H           -6.24686221069320       -0.93799281364209        0.97759805480829
41
 energy: -2932.484759712536 gnorm: 0.000567424670 xtb: 6.7.1 (edcfbbe)
C            5.95419173885668       -0.02893303452357       -0.86831099686342
C            4.73751458030141       -0.82978015127332       -0.48220595479658
O            3.73995674552209        0.07356928175639        0.11935128747887
P            2.33963098215969        0.36234301509299       -0.61751484016387
S            2.36311426802375        0.90060272557463       -2.48494272424066
O            1.73126708489642        1.51202839170930        0.32004659523619
C            1.69091148664415        1.37562633109853        1.78773666679795
C            0.91743211000600        2.55203114476982        2.32262194498901
S            1.33831954915374       -1.46822070358392       -0.20662028264512
C           -0.00335639777129       -1.48650277860406       -1.48018260226259
S           -1.64694549548843       -1.89414742621052       -0.78754670136922
P           -2.22763768378102        0.00721430520789       -0.02105110258927
S           -1.91784664261310        1.51056094512009       -1.21119932114222
O           -1.50624854216062        0.22399994220533        1.38873483081465
C           -1.63906495658680       -0.73644715517140        2.50146915054641
C           -2.46171793585980       -0.11007768101827        3.59805610498385
O           -3.73669534013359       -0.32180005266844        0.42578592440005
C           -4.81685689760921       -0.47141437875658       -0.56343034921814
C           -6.11797902740775       -0.23158564593470        0.15588669580272
H            6.71565303817939       -0.70892696430400       -1.26362371512341
H            5.70952523552442        0.70528691796963       -1.64107177334912
H            6.37194602267289        0.48983976776041       -0.00080544159711
H            4.95904918921455       -1.57112720834456        0.28929497362631
H            4.29608047090890       -1.33850503540941       -1.34484234454185
H            1.20677447043580        0.42465074172770        2.03360267904091
H            2.72044542320997        1.36608477438185        2.15514482590943
H            1.41642253720747        3.49323794340066        2.07522039289256
H           -0.10017943942822        2.56956861365915        1.92352116433068
H            0.86027970095579        2.46799573203919        3.41243002698210
H            0.22121272299134       -2.27547183690648       -2.20169059763131
H           -0.03934189344219       -0.52226599136142       -1.99706203069488
H           -2.08500248184368       -1.66568810272203        2.13545021066822
H           -0.61448406724499       -0.94080387788610        2.82194805124608
H           -2.00695202423049        0.82368751929771        3.94100908189372
H           -3.48208089544585        0.09060645326337        3.25951875820153
H           -2.50718217224489       -0.80266546866089        4.44481948528457
H           -4.65738777095373        0.25509651410220       -1.36647247430026
H           -4.75766674693517       -1.48453799294627       -0.97233919909628
H           -6.16415322055897        0.78740616201776        0.54989313019382
H           -6.94231308820749       -0.36841522784016       -0.55071679681506
H           -6.24746918659900       -0.94083345678083        0.97826532074673
41
 energy: -2932.484759712536 gnorm: 0.000567424670 xtb: 6.7.1 (edcfbbe)
C            5.95419173885668       -0.02893303452357       -0.86831099686342
C            4.73751458030141       -0.82978015127332       -0.48220595479658
O            3.73995674552209        0.07356928175639        0.11935128747887
P            2.33963098215969        0.36234301509299       -0.61751484016387
S            2.36311426802375        0.90060272557463       -2.48494272424066
O            1.73126708489642        1.51202839170930        0.32004659523619
C            1.69091148664415        1.37562633109853        1.78773666679795
C            0.91743211000600        2.55203114476982        2.32262194498901
S            1.33831954915374       -1.46822070358392       -0.20662028264512
C           -0.00335639777129       -1.48650277860406       -1.48018260226259
S           -1.64694549548843       -1.89414742621052       -0.78754670136922
P           -2.22763768378102        0.00721430520789       -0.02105110258927
S           -1.91784664261310        1.51056094512009       -1.21119932114222
O           -1.50624854216062        0.22399994220533        1.38873483081465
C           -1.63906495658680       -0.73644715517140        2.50146915054641
C           -2.46171793585980       -0.11007768101827        3.59805610498385
O           -3.73669534013359       -0.32180005266844        0.42578592440005
C           -4.81685689760921       -0.47141437875658       -0.56343034921814
C           -6.11797902740775       -0.23158564593470        0.15588669580272
H            6.71565303817939       -0.70892696430400       -1.26362371512341
H            5.70952523552442        0.70528691796963       -1.64107177334912
H            6.37194602267289        0.48983976776041       -0.00080544159711
H            4.95904918921455       -1.57112720834456        0.28929497362631
H            4.29608047090890       -1.33850503540941       -1.34484234454185
H            1.20677447043580        0.42465074172770        2.03360267904091
H            2.72044542320997        1.36608477438185        2.15514482590943
H            1.41642253720747        3.49323794340066        2.07522039289256
H           -0.10017943942822        2.56956861365915        1.92352116433068
H            0.86027970095579        2.46799573203919        3.41243002698210
H            0.22121272299134       -2.27547183690648       -2.20169059763131
H           -0.03934189344219       -0.52226599136142       -1.99706203069488
H           -2.08500248184368       -1.66568810272203        2.13545021066822
H           -0.61448406724499       -0.94080387788610        2.82194805124608
H           -2.00695202423049        0.82368751929771        3.94100908189372
H           -3.48208089544585        0.09060645326337        3.25951875820153
H           -2.50718217224489       -0.80266546866089        4.44481948528457
H           -4.65738777095373        0.25509651410220       -1.36647247430026
H           -4.75766674693517       -1.48453799294627       -0.97233919909628
H           -6.16415322055897        0.78740616201776        0.54989313019382
H           -6.94231308820749       -0.36841522784016       -0.55071679681506
H           -6.24746918659900       -0.94083345678083        0.97826532074673
