      -----------------------------------------------------------      
     |                   =====================                   |     
     |                           x T B                           |     
     |                   =====================                   |     
     |                         S. Grimme                         |     
     |          Mulliken Center for Theoretical Chemistry        |     
     |                    University of Bonn                     |     
      -----------------------------------------------------------      

   * xtb version 6.7.1 (edcfbbe) compiled by 'albert@albert-system' on 2024-07-22

   xtb is free software: you can redistribute it and/or modify it under
   the terms of the GNU Lesser General Public License as published by
   the Free Software Foundation, either version 3 of the License, or
   (at your option) any later version.
   
   xtb is distributed in the hope that it will be useful,
   but WITHOUT ANY WARRANTY; without even the implied warranty of
   MERCHANTABILITY or FITNESS FOR A PARTICULAR PURPOSE.  See the
   GNU Lesser General Public License for more details.
   
   Cite this work as:
   * C. Bannwarth, E. Caldeweyher, S. Ehlert, A. Hansen, P. Pracht,
     J. Seibert, S. Spicher, S. Grimme, WIREs Comput. Mol. Sci., 2020, 11,
     e01493. DOI: 10.1002/wcms.1493
   
   for GFN2-xTB:
   * C. Bannwarth, S. Ehlert and S. Grimme., J. Chem. Theory Comput., 2019,
     15, 1652-1671. DOI: 10.1021/acs.jctc.8b01176
   for GFN1-xTB:
   * S. Grimme, C. Bannwarth, P. Shushkov, J. Chem. Theory Comput., 2017,
     13, 1989-2009. DOI: 10.1021/acs.jctc.7b00118
   for GFN0-xTB:
   * P. Pracht, E. Caldeweyher, S. Ehlert, S. Grimme, ChemRxiv, 2019, preprint.
     DOI: 10.26434/chemrxiv.8326202.v1
   for GFN-FF:
   * S. Spicher and S. Grimme, Angew. Chem. Int. Ed., 2020, 59, 15665-15673.
     DOI: 10.1002/anie.202004239
   
   for ALPB and GBSA implicit solvation:
   * S. Ehlert, M. Stahn, S. Spicher, S. Grimme, J. Chem. Theory Comput.,
     2021, 17, 4250-4261. DOI: 10.1021/acs.jctc.1c00471
   
   for ddCOSMO and CPCM-X implicit solvation:
   * M. Stahn, S. Ehlert, S. Grimme, J. Phys. Chem. A,
     2023, XX, XXXX-XXXX. DOI: 10.1021/acs.jpca.3c04382
   
   for DFT-D4:
   * E. Caldeweyher, C. Bannwarth and S. Grimme, J. Chem. Phys., 2017,
     147, 034112. DOI: 10.1063/1.4993215
   * E. Caldeweyher, S. Ehlert, A. Hansen, H. Neugebauer, S. Spicher,
     C. Bannwarth and S. Grimme, J. Chem. Phys., 2019, 150, 154122.
     DOI: 10.1063/1.5090222
   * E. Caldeweyher, J.-M. Mewes, S. Ehlert and S. Grimme, Phys. Chem. Chem. Phys.
     2020, 22, 8499-8512. DOI: 10.1039/D0CP00502A
   
   for sTDA-xTB:
   * S. Grimme and C. Bannwarth, J. Chem. Phys., 2016, 145, 054103.
     DOI: 10.1063/1.4959605
   
   in the mass-spec context:
   * V. Asgeirsson, C. Bauer and S. Grimme, Chem. Sci., 2017, 8, 4879.
     DOI: 10.1039/c7sc00601b
   * J. Koopman and S. Grimme, ACS Omega 2019, 4, 12, 15120-15133.
     DOI: 10.1021/acsomega.9b02011
   
   for metadynamics refer to:
   * S. Grimme, J. Chem. Theory Comput., 2019, 155, 2847-2862
     DOI: 10.1021/acs.jctc.9b00143
   
   for SPH calculations refer to:
   * S. Spicher and S. Grimme, J. Chem. Theory Comput., 2021, 17, 1701-1714
     DOI: 10.1021/acs.jctc.0c01306
   
   for ONIOM refer to:
   * C. Plett, A. Katbashev, S. Ehlert, S. Grimme, M. Bursch,
     Phys. Chem. Chem. Phys., 2023, 25, 17860-17868. DOI: 10.1039/D3CP02178E
   
   for DIPRO refer to:
   * J. Kohn, N. Gildemeister, S. Grimme, D. Fazzi, A. Hansen,
     J. Chem. Phys., 2023, just accepted.
   
   for PTB refer to:
   * S. Grimme, M. Mueller, A. Hansen, J. Chem. Phys., 2023, 158, 124111.
     DOI: 10.1063/5.0137838
   
   with help from (in alphabetical order)
   P. Atkinson, C. Bannwarth, F. Bohle, G. Brandenburg, E. Caldeweyher
   M. Checinski, S. Dohm, S. Ehlert, S. Ehrlich, I. Gerasimov, C. Hölzer
   A. Katbashev, J. Kohn, J. Koopman, C. Lavigne, S. Lehtola, F. März, M. Müller,
   F. Musil, H. Neugebauer, J. Pisarek, C. Plett, P. Pracht, F. Pultar,
   J. Seibert, P. Shushkov, S. Spicher, M. Stahn, M. Steiner, T. Strunk,
   J. Stückrath, T. Rose, and J. Unsleber
   
 * started run on 2025/04/03 at 20:24:22.661     
   ID    Z sym.   atoms
    1    6 C      1-3, 6
    2    8 O      4, 7
    3    7 N      5, 8
    4    9 F      9
    5    1 H      10-12

           -------------------------------------------------
          |                Calculation Setup                |
           -------------------------------------------------

          program call               : /srv/scratch/z5358697/.xtb/bin/xtb xtb_opt.coord --opt normal --orca -I xtb_opt-xcontrol-inp
          hostname                   : k163
          coordinate file            : xtb_opt.coord
          omp threads                :                     1

           -------------------------------------------------
          |                   Orca driver                   |
           -------------------------------------------------
orca executable           : /apps/z_install_tree/linux-rocky8-ivybridge/gcc-12.2.0/orca-6.0.0-srtngmq3qlimg2qxbl6avaaiffipurdx/bin/orca
orca input file           : xtb_opt.inp
orca input line           : 
orca parallel             : false
orca number of threads    : 1
                         * ORCA takes the control...
  ------------------------------------------------------------------------

                                 *****************
                                 * O   R   C   A *
                                 *****************

                                            #,                                       
                                            ###                                      
                                            ####                                     
                                            #####                                    
                                            ######                                   
                                           ########,                                 
                                     ,,################,,,,,                         
                               ,,#################################,,                 
                          ,,##########################################,,             
                       ,#########################################, ''#####,          
                    ,#############################################,,   '####,        
                  ,##################################################,,,,####,       
                ,###########''''           ''''###############################       
              ,#####''   ,,,,##########,,,,          '''####'''          '####       
            ,##' ,,,,###########################,,,                        '##       
           ' ,,###''''                  '''############,,,                           
         ,,##''                                '''############,,,,        ,,,,,,###''
      ,#''                                            '''#######################'''  
     '                                                          ''''####''''         
             ,#######,   #######,   ,#######,      ##                                
            ,#'     '#,  ##    ##  ,#'     '#,    #''#        ,####,   ,####,        
            ##       ##  ##   ,#'  ##            #'  '#       #'       #'  '#        
            ##       ##  #######   ##           ,######,      #####,   #    #        
            '#,     ,#'  ##    ##  '#,     ,#' ,#      #,     #,   #   #,  ,#        
             '#######'   ##     ##  '#######'  #'      '#     '####' # '####'        



                #########################################################
                #                        -***-                          #
                #          Department of theory and spectroscopy        #
                #                                                       #
                #                      Frank Neese                      #
                #                                                       #
                #     Directorship, Architecture, Infrastructure        #
                #                    SHARK, DRIVERS                     #
                #        Core code/Algorithms in most modules           #
                #                                                       #
                #        Max Planck Institute fuer Kohlenforschung      #
                #                Kaiser Wilhelm Platz 1                 #
                #                 D-45470 Muelheim/Ruhr                 #
                #                      Germany                          #
                #                                                       #
                #                  All rights reserved                  #
                #                        -***-                          #
                #########################################################


                         Program Version 6.0.0  -   RELEASE  -


 With contributions from (in alphabetic order):
   Daniel Aravena         : Magnetic Suceptibility
   Michael Atanasov       : Ab Initio Ligand Field Theory (pilot matlab implementation)
   Alexander A. Auer      : GIAO ZORA, VPT2 properties, NMR spectrum
   Ute Becker             : All parallelization in ORCA, NUMFREQ, NUMCALC
   Giovanni Bistoni       : ED, misc. LED, open-shell LED, HFLD
   Martin Brehm           : Molecular dynamics
   Dmytro Bykov           : pre 5.0 version of the SCF Hessian
   Marcos Casanova-Páez   : Triplet and SCS-CIS(D). UHF-(DLPNO)-IP/EA/STEOM-CCSD. UHF-CVS-IP/STEOM-CCSD
   Vijay G. Chilkuri      : MRCI spin determinant printing, contributions to CSF-ICE
   Pauline Colinet        : FMM embedding
   Dipayan Datta          : RHF DLPNO-CCSD density
   Achintya Kumar Dutta   : EOM-CC, STEOM-CC
   Nicolas Foglia         : Exact transition moments, OPA infrastructure, MCD improvements
   Dmitry Ganyushin       : Spin-Orbit,Spin-Spin,Magnetic field MRCI
   Miquel Garcia          : C-PCM and meta-GGA Hessian, CCSD/C-PCM, Gaussian charge scheme
   Tiago L. C. Gouveia    : GS-ROHF, GS-ROCIS
   Yang Guo               : DLPNO-NEVPT2, F12-NEVPT2, CIM, IAO-localization
   Andreas Hansen         : Spin unrestricted coupled pair/coupled cluster methods
   Ingolf Harden          : AUTO-CI MPn and infrastructure 
   Benjamin Helmich-Paris : MC-RPA, TRAH-(SCF,CASSCF), AVAS, COSX integrals, SCF dyn. polar.
   Lee Huntington         : MR-EOM, pCC
   Robert Izsak           : Overlap fitted RIJCOSX, COSX-SCS-MP3, EOM
   Riya Kayal             : Wick's Theorem for AUTO-CI, AUTO-CI UHF-CCSDT
   Emily Kempfer          : AUTO-CI, RHF CISDT and CCSDT
   Christian Kollmar      : KDIIS, OOCD, Brueckner-CCSD(T), CCSD density, CASPT2, CASPT2-K, improved NEVPT2
   Axel Koslowski         : Symmetry handling
   Simone Kossmann        : Meta GGA functionals, TD-DFT gradient, OOMP2, (MP2 Hessian; deprecated post 5.0)
   Lucas Lang             : DCDCAS
   Marvin Lechner         : AUTO-CI (C++ implementation), FIC-MRCC
   Spencer Leger          : CASSCF response
   Dagmar Lenk            : GEPOL surface, SMD, ORCA-2-JSON
   Dimitrios Liakos       : Extrapolation schemes; Compound Job, initial MDCI parallelization
   Dimitrios Manganas     : Further ROCIS development; embedding schemes. LFT, Crystal Embedding
   Dimitrios Pantazis     : SARC Basis sets
   Anastasios Papadopoulos: AUTO-CI, single reference methods and gradients
   Taras Petrenko         : pre 6.0 DFT Hessian and TD-DFT gradient, (ASA, deprecated), ECA, 1-Electron XAS/XES, NRVS
   Peter Pinski           : DLPNO-MP2, DLPNO-MP2 Gradient
   Christoph Reimann      : Effective Core Potentials
   Marius Retegan         : Local ZFS, SOC
   Christoph Riplinger    : Optimizer, TS searches, QM/MM, DLPNO-CCSD(T), (RO)-DLPNO pert. Triples
   Michael Roemelt        : Original ROCIS implementation
   Masaaki Saitow         : Open-shell DLPNO-CCSD energy and density
   Barbara Sandhoefer     : DKH picture change effects
   Kantharuban Sivalingam : CASSCF convergence/infrastructure, NEVPT2 and variants, FIC-MRCI
   Bernardo de Souza      : ESD, SOC TD-DFT
   Georgi Stoychev        : AutoAux, RI-MP2 NMR, DLPNO-MP2 response, X2C
   Van Anh Tran           : RI-MP2 g-tensors
   Willem Van den Heuvel  : Paramagnetic NMR
   Zikuan Wang            : NOTCH, Electric field optimization 
   Frank Wennmohs         : Technical directorship and infrastructure
   Hang Xu                : AUTO-CI-Response properties 


 We gratefully acknowledge several colleagues who have allowed us to
 interface, adapt or use parts of their codes:
   Stefan Grimme, W. Hujo, H. Kruse, P. Pracht,  : VdW corrections, initial TS optimization,
                  C. Bannwarth, S. Ehlert,         DFT functionals, gCP, sTDA/sTD-DF
                  L. Wittmann, M. Mueller
   Ed Valeev, F. Pavosevic, A. Kumar             : LibInt (2-el integral package), F12 methods
   Garnet Chan, S. Sharma, J. Yang, R. Olivares  : DMRG
   Ulf Ekstrom                                   : XCFun DFT Library
   Mihaly Kallay                                 : mrcc  (arbitrary order and MRCC methods)
   Frank Weinhold                                : gennbo (NPA and NBO analysis)
   Simon Mueller                                 : openCOSMO-RS
   Christopher J. Cramer and Donald G. Truhlar   : smd solvation model
   Lars Goerigk                                  : TD-DFT with DH, B97 family of functionals
   V. Asgeirsson, H. Jonsson                     : NEB implementation
   FAccTs GmbH                                   : IRC, NEB, NEB-TS, DLPNO-Multilevel, CI-OPT
                                                   MM, QMMM, 2- and 3-layer-ONIOM, Crystal-QMMM,
                                                   LR-CPCM, SF, NACMEs, symmetry and pop. for TD-DFT,
                                                   nearIR, NL-DFT gradient (VV10), updates on ESD,
                                                   ML-optimized integration grids, MBIS, APM,
                                                   GOAT, DOCKER, SOLVATOR, interface openCOSMO-RS
   S Lehtola, MJT Oliveira, MAL Marques          : LibXC Library
   Liviu Ungur et al                             : ANISO software


 Your calculation uses the libint2 library for the computation of 2-el integrals
 For citations please refer to: http://libint.valeyev.net

 Your ORCA version has been built with support for libXC version: 6.2.2
 For citations please refer to: https://libxc.gitlab.io

 This ORCA versions uses:
   CBLAS   interface :  Fast vector & matrix operations
   LAPACKE interface :  Fast linear algebra routines
   SCALAPACK package :  Parallel linear algebra routines
   Shared memory     :  Shared parallel matrices
   BLAS/LAPACK       :  OpenBLAS 0.3.27  USE64BITINT DYNAMIC_ARCH NO_AFFINITY SapphireRapids SINGLE_THREADED
        Core in use  :  SapphireRapids
   Copyright (c) 2011-2014, The OpenBLAS Project




***************************************
The coordinates will be read from file: xtb_opt.xyz
***************************************


Your calculation utilizes the geometrical counterpoise correction gCP
Please cite in your paper:
H.Kruse, S. Grimme J.Chem.Phys., 136, (2012), 154101 
   

Your calculation utilizes the atom-pairwise dispersion correction
based on EEQ partial charges (D4)


Your calculation utilizes the SMD solvation module
Please cite in your paper:
A.V. Marenich, C.J. Cramer, D.G. Truhlar J. Phys. Chem. B, 113, (2009), 6378 

================================================================================

----- Orbital basis set information -----
Your calculation utilizes the basis: def2-mTZVPP
   Stefan Grimme, Andreas Hansen, Sebastian Ehlert, and Jan-Michael Mewes 
   J. Chem. Phys. 154, 064103 (2021). DOI: 10.1063/5.0040021

----- AuxJ basis set information -----
Your calculation utilizes the auxiliary basis: def2/J
   F. Weigend, Phys. Chem. Chem. Phys. 8, 1057 (2006).

================================================================================
                                        WARNINGS
                       Please study these warnings very carefully!
================================================================================

Using LibXC functional ID 497 : Re-regularized SCAN exchange by Furness et al
[ 1]  J. W. Furness, A. D. Kaplan, J. Ning, J. P. Perdew, and J. Sun.,  J. Phys. Chem. Lett. 11, 8208-8215 (2020)
[ 2]  J. W. Furness, A. D. Kaplan, J. Ning, J. P. Perdew, and J. Sun.,  J. Phys. Chem. Lett. 11, 9248-9248 (2020)
Using LibXC functional ID 498 : Re-regularized SCAN correlation by Furness et al
[ 1]  J. W. Furness, A. D. Kaplan, J. Ning, J. P. Perdew, and J. Sun.,  J. Phys. Chem. Lett. 11, 8208-8215 (2020)
[ 2]  J. W. Furness, A. D. Kaplan, J. Ning, J. P. Perdew, and J. Sun.,  J. Phys. Chem. Lett. 11, 9248-9248 (2020)
Using LibXC functional ID 497 : Re-regularized SCAN exchange by Furness et al
[ 1]  J. W. Furness, A. D. Kaplan, J. Ning, J. P. Perdew, and J. Sun.,  J. Phys. Chem. Lett. 11, 8208-8215 (2020)
[ 2]  J. W. Furness, A. D. Kaplan, J. Ning, J. P. Perdew, and J. Sun.,  J. Phys. Chem. Lett. 11, 9248-9248 (2020)
Using LibXC functional ID 498 : Re-regularized SCAN correlation by Furness et al
[ 1]  J. W. Furness, A. D. Kaplan, J. Ning, J. P. Perdew, and J. Sun.,  J. Phys. Chem. Lett. 11, 8208-8215 (2020)
[ 2]  J. W. Furness, A. D. Kaplan, J. Ning, J. P. Perdew, and J. Sun.,  J. Phys. Chem. Lett. 11, 9248-9248 (2020)

================================================================================
                                       INPUT FILE
================================================================================
NAME = xtb_opt.inp
|  1> ! r2scan-3c def2/J RI DEFGRID2 scfconv7 ENGRAD tightSCF miniprint
|  2> %cpcm
|  3>     smd true
|  4>     smdsolvent "water"
|  5> end
|  6> * xyzfile 0 1 xtb_opt.xyz
|  7> 
|  8>                          ****END OF INPUT****
================================================================================

                     *******************************
                     * Energy+Gradient Calculation *
                     *******************************

---------------------------------
CARTESIAN COORDINATES (ANGSTROEM)
---------------------------------
  C      0.189152    1.517335   -0.000231
  C      1.093534    0.516749   -0.000098
  C      0.695153   -0.881263   -0.000081
  O      1.437896   -1.845979    0.000003
  N     -0.680575   -1.030541   -0.000124
  C     -1.635228   -0.040027    0.000187
  O     -2.825453   -0.277395    0.000071
  N     -1.138482    1.239133   -0.000007
  F      2.418176    0.795110    0.000193
  H      0.490952    2.553605   -0.000568
  H     -1.030049   -1.985589   -0.000226
  H     -1.819600    1.991395    0.000441

----------------------------
CARTESIAN COORDINATES (A.U.)
----------------------------
  NO LB      ZA    FRAG     MASS         X           Y           Z
   0 C     6.0000    0    12.011    0.357445    2.867348   -0.000437
   1 C     6.0000    0    12.011    2.066479    0.976515   -0.000185
   2 C     6.0000    0    12.011    1.313649   -1.665346   -0.000153
   3 O     8.0000    0    15.999    2.717229   -3.488395    0.000006
   4 N     7.0000    0    14.007   -1.286100   -1.947439   -0.000234
   5 C     6.0000    0    12.011   -3.090133   -0.075640    0.000353
   6 O     8.0000    0    15.999   -5.339332   -0.524200    0.000135
   7 N     7.0000    0    14.007   -2.151419    2.341622   -0.000012
   8 F     9.0000    0    18.998    4.569691    1.502540    0.000366
   9 H     1.0000    0     1.008    0.927765    4.825614   -0.001074
  10 H     1.0000    0     1.008   -1.946511   -3.752220   -0.000426
  11 H     1.0000    0     1.008   -3.438546    3.763191    0.000834

------------------------------------------------------------------------------
                   ___                                                        
                  /   \      - P O W E R E D   B Y -                         
                 /     \                                                     
                 |  |  |   _    _      __       _____    __    __             
                 |  |  |  | |  | |    /  \     |  _  \  |  |  /  |          
                  \  \/   | |  | |   /    \    | | | |  |  | /  /          
                 / \  \   | |__| |  /  /\  \   | |_| |  |  |/  /          
                |  |  |   |  __  | /  /__\  \  |    /   |      \           
                |  |  |   | |  | | |   __   |  |    \   |  |\   \          
                \     /   | |  | | |  |  |  |  | |\  \  |  | \   \       
                 \___/    |_|  |_| |__|  |__|  |_| \__\ |__|  \__/        
                                                                              
                      - O R C A' S   B I G   F R I E N D -                    
                                      &                                       
                       - I N T E G R A L  F E E D E R -                       
                                                                              
 v1 FN, 2020, v2 2021, v3 2022-2024                                           
------------------------------------------------------------------------------


----------------------
SHARK INTEGRAL PACKAGE
----------------------

Number of atoms                             ...     12
Number of basis functions                   ...    211
Number of shells                            ...     95
Maximum angular momentum                    ...      2
Integral batch strategy                     ... SHARK/LIBINT Hybrid
RI-J (if used) integral strategy            ... SPLIT-RIJ (Revised 2003 algorithm where possible)
Printlevel                                  ...      1
Contraction scheme used                     ... SEGMENTED contraction
Prescreening option                         ... SCHWARTZ
   Thresh                                   ... 3.000e-11
   Tcut                                     ... 1.000e-12
   Tpresel                                  ... 1.000e-12 
Coulomb Range Separation                    ... NOT USED
Exchange Range Separation                   ... NOT USED
Multipole approximations                    ... NOT USED
Finite Nucleus Model                        ... NOT USED
CABS basis                                  ... NOT available
Auxiliary Coulomb fitting basis             ... AVAILABLE
   # of basis functions in Aux-J            ...    474
   # of shells in Aux-J                     ...    150
   Maximum angular momentum in Aux-J        ...      4
Auxiliary J/K fitting basis                 ... NOT available
Auxiliary Correlation fitting basis         ... NOT available
Auxiliary 'external' fitting basis          ... NOT available

Checking pre-screening integrals            ... done (  0.0 sec) Dimension = 95
Check shell pair data                       ... done (  0.0 sec)
Shell pair information
Shell pair cut-off parameter TPreSel        ...   1.0e-12
Total number of shell pairs                 ...      4560
Shell pairs after pre-screening             ...      4160
Total number of primitive shell pairs       ...     16860
Primitive shell pairs kept                  ...     11023
          la=0 lb=0:   1128 shell pairs
          la=1 lb=0:   1414 shell pairs
          la=1 lb=1:    450 shell pairs
          la=2 lb=0:    659 shell pairs
          la=2 lb=1:    406 shell pairs
          la=2 lb=2:    103 shell pairs

Calculating one electron integrals          ... done (  0.0 sec)
Calculating RI/J V-Matrix + Cholesky decomp.... done (  0.2 sec)
Calculating Nuclear repulsion               ... done (  0.0 sec) ENN=    442.003111511883 Eh

Diagonalization of the overlap matrix:
Smallest eigenvalue                        ... 9.724e-05
Time for diagonalization                   ...    0.003 sec
Threshold for overlap eigenvalues          ... 1.000e-07
Number of eigenvalues below threshold      ... 0
Time for construction of square roots      ...    0.013 sec
Total time needed                          ...    0.024 sec

-------------------
DFT GRID GENERATION
-------------------

General Integration Accuracy     IntAcc      ... 4.388
Radial Grid Type                 RadialGrid  ... OptM3 with GC (2021)
Angular Grid (max. ang.)         AngularGrid ... 4 (Lebedev-302)
Angular grid pruning method      GridPruning ... 4 (adaptive)
Weight generation scheme         WeightScheme... mBecke (2022)
Basis function cutoff            BFCut       ... 1.0000e-11
Integration weight cutoff        WCut        ... 1.0000e-14
Partially contracted basis set               ... off
Rotationally invariant grid construction     ... off
Angular grids for H and He will be reduced by one unit
Diffuse basis detected: some atoms will have their outermost
                        angular grid increased by 1.

Total number of grid points                  ...    64738
Total number of batches                      ...     1017
Average number of points per batch           ...       63
Average number of grid points per atom       ...     5395
Initializing property integral containers    ... done (  0.0 sec)

SHARK setup successfully completed in   1.7 seconds

Maximum memory used throughout the entire STARTUP-calculation: 31.3 MB
Occupation numbers will be reassigned to an Aufbau configuration
             **** ENERGY FILE WAS UPDATED (xtb_opt.en.tmp) ****
Finished Guess after   1.0 sec
Maximum memory used throughout the entire GUESS-calculation: 14.7 MB
--------------------
CPCM SOLVATION MODEL
--------------------
CPCM parameters:
  Epsilon                                         ...      78.3550
  Refrac                                          ...       1.3328
  Rsolv                                           ...       1.3000
  Surface type                                    ... GAUSSIAN VDW
  Discretization scheme                           ... Constant charge density
    Threshold for H atoms                         ...       5.0000 (charges/Ang^2)
    Threshold for non-H atoms                     ...       5.0000 (charges/Ang^2)
  Epsilon function type                           ...         CPCM
Solvent:                                          ... WATER
SMD-CDS solvent descriptors:
  Soln                                            ...       1.3328
  Soln25                                          ...       1.3323
  Sola                                            ...       0.0000
  Solb                                            ...       0.0000
  Solg                                            ...       0.0000
  Solc                                            ...       0.0000
  Solh                                            ...       0.0000
Radii:
  Scheme                                          ... Element-dependent radii
  Radius for C  used is    3.4960 Bohr (=   1.8500 Ang.)
  Radius for O  used is    2.8724 Bohr (=   1.5200 Ang.)
  Radius for N  used is    3.5716 Bohr (=   1.8900 Ang.)
  Radius for F  used is    3.2692 Bohr (=   1.7300 Ang.)
  Radius for H  used is    2.2677 Bohr (=   1.2000 Ang.)
Calculating surface                               ...        done! (  0.0s)
Cavity surface points                             ...         1026
Cavity Volume                                     ...     747.3565
Cavity Surface-area                               ...     469.6406
Calculating surface distance matrix               ...        done! (  0.0s)
Performing Cholesky decomposition & store         ...        done! (  0.1s)
Overall time for CPCM initialization              ...                 0.1s

----------------------------------------D-I-I-S--------------------------------------------
Iteration    Energy (Eh)           Delta-E    RMSDP     MaxDP     DIISErr   Damp  Time(sec)
-------------------------------------------------------------------------------------------
               ***  Starting incremental Fock matrix formation  ***
                              *** Initializing SOSCF ***
---------------------------------------S-O-S-C-F--------------------------------------
Iteration    Energy (Eh)           Delta-E    RMSDP     MaxDP     MaxGrad    Time(sec)
--------------------------------------------------------------------------------------
    1    -514.0220134038816013     0.00e+00  6.52e-06  2.33e-04  4.63e-05     3.1
               *** Restarting incremental Fock matrix formation ***
    2    -514.0220133962661748     7.62e-09  1.00e-05  3.59e-04  7.77e-05     3.4
    3    -514.0220127358322770     6.60e-07  7.55e-06  2.43e-04  1.94e-04     3.9
    4    -514.0220136201180594    -8.84e-07  3.20e-06  1.01e-04  2.51e-05     2.5
    5    -514.0220135741340073     4.60e-08  2.20e-06  6.94e-05  4.23e-05     2.7
                 **** Energy Check signals convergence ****

               *****************************************************
               *                     SUCCESS                       *
               *           SCF CONVERGED AFTER   5 CYCLES          *
               *****************************************************


SMD CDS free energy correction energy :                 5.85151     Kcal/mol
Total Energy after SMD CDS correction =              -514.012688607 Eh
             **** ENERGY FILE WAS UPDATED (xtb_opt.en.tmp) ****

----------------
TOTAL SCF ENERGY
----------------

Total Energy       :       -514.01268860677692 Eh          -13986.99634 eV

Components:
Nuclear Repulsion  :        442.00311151188288 Eh           12027.51613 eV
Electronic Energy  :       -955.98350969358683 Eh          -26013.63381 eV
One Electron Energy:      -1579.43706966850846 Eh          -42978.66766 eV
Two Electron Energy:        623.45355997492163 Eh           16965.03385 eV
CPCM Dielectric    :         -0.04161539243007 Eh              -1.13241 eV
SMD CDS (Gcds)     :          0.00932496735711 Eh               0.25375 eV

Virial components:
Potential Energy   :      -1026.13726649208047 Eh          -27922.61458 eV
Kinetic Energy     :        512.12457788530344 Eh           13935.61824 eV
Virial Ratio       :          2.00368681919011

DFT components:
N(Alpha)           :       32.999991827194 electrons
N(Beta)            :       32.999991827194 electrons
N(Total)           :       65.999983654387 electrons
E(X)               :      -61.947056772746 Eh       
E(C)               :       -2.234818620945 Eh       
E(XC)              :      -64.181875393691 Eh       

CPCM Solvation Model Properties:
Surface-charge          :         -0.02938748648083
Corrected charge        :         -0.00000000000000
Outlying charge corr.   :          0.00007144510852 Eh               0.00194 eV
Free-energy (cav+disp)  :          0.00932496735711 Eh               0.25375 eV

---------------
SCF CONVERGENCE
---------------

  Last Energy change         ...   -4.5984e-08  Tolerance :   1.0000e-07
  Last MAX-Density change    ...    6.9398e-05  Tolerance :   1.0000e-07
  Last RMS-Density change    ...    2.2035e-06  Tolerance :   5.0000e-09
  Last DIIS Error            ...    2.8627e-04  Tolerance :   1.0000e-07
  Last Orbital Gradient      ...    4.2259e-05  Tolerance :   1.0000e-04
  Last Orbital Rotation      ...    4.3427e-05  Tolerance :   1.0000e-04


----------------
ORBITAL ENERGIES
----------------

  NO   OCC          E(Eh)            E(eV) 
   0   2.0000     -24.515471      -667.0999 
   1   2.0000     -18.947897      -515.5985 
   2   2.0000     -18.943808      -515.4872 
   3   2.0000     -14.236026      -387.3820 
   4   2.0000     -14.227409      -387.1475 
   5   2.0000     -10.191293      -277.3192 
   6   2.0000     -10.166998      -276.6581 
   7   2.0000     -10.133397      -275.7438 
   8   2.0000     -10.110475      -275.1200 
   9   2.0000      -1.200772       -32.6747 
  10   2.0000      -1.059636       -28.8342 
  11   2.0000      -1.030962       -28.0539 
  12   2.0000      -0.958517       -26.0826 
  13   2.0000      -0.909225       -24.7413 
  14   2.0000      -0.768957       -20.9244 
  15   2.0000      -0.669466       -18.2171 
  16   2.0000      -0.647706       -17.6250 
  17   2.0000      -0.576679       -15.6922 
  18   2.0000      -0.557530       -15.1712 
  19   2.0000      -0.495514       -13.4836 
  20   2.0000      -0.483371       -13.1532 
  21   2.0000      -0.470892       -12.8136 
  22   2.0000      -0.456053       -12.4098 
  23   2.0000      -0.432516       -11.7694 
  24   2.0000      -0.422963       -11.5094 
  25   2.0000      -0.421515       -11.4700 
  26   2.0000      -0.390738       -10.6325 
  27   2.0000      -0.368193       -10.0191 
  28   2.0000      -0.341177        -9.2839 
  29   2.0000      -0.281733        -7.6663 
  30   2.0000      -0.279648        -7.6096 
  31   2.0000      -0.257960        -7.0194 
  32   2.0000      -0.225733        -6.1425 
  33   0.0000      -0.075623        -2.0578 
  34   0.0000      -0.026291        -0.7154 
  35   0.0000       0.039487         1.0745 
  36   0.0000       0.066683         1.8145 
  37   0.0000       0.089393         2.4325 
  38   0.0000       0.103466         2.8154 
  39   0.0000       0.118355         3.2206 
  40   0.0000       0.147247         4.0068 
  41   0.0000       0.159807         4.3486 
  42   0.0000       0.163726         4.4552 
  43   0.0000       0.169852         4.6219 
*Only the first 10 virtual orbitals were printed.
Total SCF time: 0 days 0 hours 0 min 16 sec 
Finished LeanSCF after  16.6 sec

Maximum memory used throughout the entire LEANSCF-calculation: 21.9 MB


-------------------------------------------------------------------------------
                          DFT DISPERSION CORRECTION                            
                                                                               
                                DFTD4 V3.4.0                                   
-------------------------------------------------------------------------------
-------------------------   ----------------
Dispersion correction           -0.003778639
-------------------------   ----------------

------------------   -----------------
gCP correction             0.012531481
------------------   -----------------

-------------------------   --------------------
FINAL SINGLE POINT ENERGY      -514.003935764425
-------------------------   --------------------

------------------------------------------------------------------------------
                         ORCA SCF GRADIENT CALCULATION
------------------------------------------------------------------------------

Nuc. rep. gradient        (SHARK) ... done (  0.0 sec)
HCore & Overlap gradient  (SHARK) ... done (  0.1 sec)
Split-RIJ-J gradient      (SHARK) ... done (  1.1 sec)
XC gradient                       ... done (  3.8 sec)
CPCM gradient                     ... done (  0.6 sec)
SMD gradient                      ... done (  0.0 sec)
Dispersion correction             ... done (  0.0 sec)

-------------------
DISPERSION GRADIENT
-------------------

   1   C   :    0.000017473    0.000055343   -0.000000006
   2   C   :    0.000048356    0.000012438   -0.000000002
   3   C   :    0.000037564   -0.000035803   -0.000000001
   4   O   :    0.000053269   -0.000067907    0.000000001
   5   N   :   -0.000021165   -0.000047880   -0.000000003
   6   C   :   -0.000053796   -0.000003795    0.000000006
   7   O   :   -0.000084279   -0.000012764    0.000000005
   8   N   :   -0.000041895    0.000048981    0.000000003
   9   F   :    0.000062508    0.000018946    0.000000005
  10   H   :    0.000011671    0.000038422   -0.000000008
  11   H   :   -0.000009936   -0.000026386   -0.000000002
  12   H   :   -0.000019768    0.000020407    0.000000004

Difference to translation invariance:
           :   -0.0000000000   -0.0000000000    0.0000000000

Difference to rotation invariance:
           :    0.0000000000   -0.0000000000    0.0000000000

Norm of the Dispersion gradient    ...    0.0002013773
RMS gradient                       ...    0.0000335629
MAX gradient                       ...    0.0000842789
gCP correction                   ... done

------------------
CARTESIAN GRADIENT
------------------

   1   C   :   -0.010965614    0.002088714   -0.000006991
   2   C   :   -0.001453062    0.002759192   -0.000008310
   3   C   :    0.002194762   -0.021351669   -0.000018829
   4   O   :   -0.014443791    0.013564641    0.000006128
   5   N   :    0.002777659    0.004222130   -0.000012485
   6   C   :   -0.010332039   -0.003931736    0.000069019
   7   O   :    0.023480793    0.005448504   -0.000029962
   8   N   :    0.004827486   -0.002385881   -0.000013229
   9   F   :    0.005362483    0.003552647    0.000019632
  10   H   :    0.000434044   -0.003605090   -0.000014011
  11   H   :    0.000131930   -0.001707516   -0.000003303
  12   H   :   -0.002014651    0.001346065    0.000012341

Difference to translation invariance:
           :    0.0000000000    0.0000000000    0.0000000000

Difference to rotation invariance:
           :   -0.0000009597   -0.0000009513   -0.0007082424

Norm of the Cartesian gradient     ...    0.0425302367
RMS gradient                       ...    0.0070883728
MAX gradient                       ...    0.0234807926

-------
TIMINGS
-------

Total SCF gradient time     ....        6.158 sec

Densities                   ....       0.000 sec  (  0.0%)
One electron gradient       ....       0.141 sec  (  2.3%)
RI-J Coulomb gradient       ....       1.124 sec  ( 18.2%)
XC gradient                 ....       3.800 sec  ( 61.7%)
CPCM gradient               ....       0.577 sec  (  9.4%)
   A-Matrix (El+Nuc)        ....       0.027 sec  (  0.4%)
   Potential                ....       0.550 sec  (  8.9%)
SMD gradient                ....       0.012 sec  (  0.2%)

Maximum memory used throughout the entire SCFGRAD-calculation: 34.9 MB

------------------------------------------------------------------------------
                              ORCA PROPERTY CALCULATIONS
------------------------------------------------------------------------------

GBWName                                 ... xtb_opt.gbw
Number of atoms                         ...     12
Number of basis functions               ...    211
Max core memory                         ...   1024 MB

Electric properties:
Dipole moment                           ... YES
Quadrupole moment                       ...  NO
Static polarizability (Dipole/Dipole)   ...  NO
Static polarizability (Dipole/Quad.)    ...  NO
Static polarizability (Quad./Quad.)     ...  NO
Static polarizability (Velocity)        ...  NO

Atomic electric properties:
Dipole moment                           ...  NO
Quadrupole moment                       ...  NO
Static polarizability                   ...  NO

Choice of electric origin               ... Center of mass
Position of electric origin             ...    -0.000015     0.000015    -0.000000

General magnetic properties:
Magnetizability                         ...  NO

EPR properties:
g-Tensor (aka g-matrix)                 ...  NO
Zero-Field splitting spin-orbit         ...  NO
Zero-field splitting spin-spin          ...  NO
Hyperfine couplings                     ...  NO (   0 nuclei)
Quadrupole couplings                    ...  NO (   0 nuclei)
Contact density                         ...  NO (   0 nuclei)

NMR properties:
Chemical shifts                         ...  NO (   0 nuclei)
Spin-rotation constants                 ...  NO (   0 nuclei)
Spin-spin couplings                     ...  NO (   0 nuclei,    0 pairs)

Choice of magnetic origin               ... GIAO
Position of magnetic origin             ...     0.000000     0.000000     0.000000

Properties with geometric perturbations:
SCF Hessian                             ...  NO
IR spectrum                             ...  NO
VCD spectrum                            ...  NO
X-ray spectroscopy properties:
SCF XES/XAS/RIXS spectra                ...  NO


-------------
DIPOLE MOMENT
-------------

Method             : SCF
Type of density    : Electron Density
Multiplicity       :   1
Irrep              :   0
Energy             :  -514.0126886067769192 Eh
Relativity type    : 
Basis              : AO
                                X                 Y                 Z
Electronic contribution:      3.735013807       0.726157446       0.000506165
Nuclear contribution   :     -4.483919885       1.634212611      -0.000509625
                        -----------------------------------------
Total Dipole Moment    :     -0.748906078       2.360370057      -0.000003460
                        -----------------------------------------
Magnitude (a.u.)       :      2.476329364
Magnitude (Debye)      :      6.294329026



--------------------
Rotational spectrum 
--------------------
 
Rotational constants in cm-1:             0.106093             0.047634             0.032874 
Rotational constants in MHz :          3180.582670          1428.027015           985.537578 

Dipole components along the rotational axes: 
x,y,z [a.u.] :    -0.748908    -2.360369    -0.000003 
x,y,z [Debye]:    -1.903573    -5.999582    -0.000009 

 

Dipole moment calculation done in   0.0 sec 

Maximum memory used throughout the entire PROP-calculation: 13.4 MB

--------------------------------
SUGGESTED CITATIONS FOR THIS RUN
--------------------------------

Below you find a list of papers that are relevant to this ORCA run
We neither can nor want to force you to cite these papers, but we appreciate if you do
You receive ORCA, which is the product of decades of hard work by many enthusiastic individuals, for free
The only thing we kindly ask in return is that you cite our papers,
We deeply appreciate it, if you show your appreciation for ORCA by not just citing the generic ORCA reference.

Please note that relegating all ORCA citations to the supporting information does *not* help us.
SI sections are not indexed - citations you put there will not count into any citation statistics
But we need these citations in order to attract the funding resources that allow us to do what we are doing

Therefore, if you are a happy ORCA user, please consider citing a few of the papers listed below in the main body of your paper

In addition to the list printed below, the program has created the file xtb_opt.bibtex that contains the list in bibtex format
You can import this file easily into all common literature databanks and citation aid programs


List of essential papers. We consider these as the minimum necessary citations

  1. Neese,F.
     Software update: the ORCA program system, version 5.0
     WIRES Comput. Molec. Sci., 2022 12(1)e1606
     doi.org/10.1002/wcms.1606
  2. Grimme,S.; Hansen,A.; Ehlert,S.; Mewes,J.
     r2SCAN-3c: A 'Swiss army knife' composite electronic-structure method
     J. Chem. Phys., 2021 154 064103
     doi.org/10.1063/5.0040021

List of papers to cite with high priority. The work reported in these papers was absolutely
necessary for this run to complete.
Our perspective: the developers of density functionals and basis sets usually get cited in chemistry papers
Good! But without the algorithms to do something with them, the functionals or basis sets would not do anything.
Hence, in our opinion, the algorithm design and method developments papers are equally worthy of getting cited

  1. Neese,F.
     An improvement of the resolution of the identity approximation for the formation of the Coulomb matrix
     J. Comp. Chem., 2003 24(14)1740-1747
     doi.org/10.1002/jcc.10318
  2. Garcia-Rates,M.; Neese,F.
     Effect of the Solute Cavity on the Solvation Energy and its Derivatives within the Framework of the Gaussian Charge Scheme
     J. Comput. Chem., 2020 41 922-939
     doi.org/10.1002/jcc.26139
  3. Neese,F.
     The SHARK Integral Generation and Digestion System
     J. Comp. Chem., 2022  1-16
     doi.org/10.1002/jcc.26942
  4. Lehtola,S.; Steigemann,C.; Oliveira,M.; Marques,M.
     Recent developments in Libxc - A comprehensive library of functionals for density functional theory
     Software X, 2018 7 
     doi.org/10.1016/j.softx.2017.11.002
  5. Caldeweyher,E.; Bannwarth,C.; Grimme,S.
     Extension of the D3 dispersion coefficient model
     J. Chem. Phys., 2017 147 034112-XXXX
     doi.org/10.1063/1.4993215
  6. Caldeweyher,E.; Ehlert,S.; Hansen,A.; Neugebauer,H.; Spicher,S.; Bannwarth,C.; Grimme,S.
     A generally applicable atomic-charge dependent London dispersion correction
     J. Chem. Phys., 2019 150 154122-XXXX
     doi.org/10.1063/1.5090222
  7. Caldeweyher,E.; Mewes,J.; Ehlert,S.; Grimme,S.
     Extension and evaluation of the D4 London-dispersion model for periodic systems
     Phys. Chem. Chem. Phys., 2020 22(16)8499-8512
     doi.org/10.1039/D0CP00502A

List of suggested additional citations. These are papers that are important in the 'surrounding' of 
of this run, or papers that preceded the highly important papers. If you like your results we are grateful for a citation.

  1. Neese,F.
     The ORCA program system
     WIRES Comput. Molec. Sci., 2012 2(1)73-78
     doi.org/10.1002/wcms.81
  2. Neese,F.
     Software update: the ORCA program system, version 4.0
     WIRES Comput. Molec. Sci., 2018 8(1)1-6
     doi.org/10.1002/wcms.1327
  3. Neese,F.; Wennmohs,F.; Becker,U.; Riplinger,C.
     The ORCA quantum chemistry program package
     J. Chem. Phys., 2020 152 Art. No. L224108
     doi.org/10.1063/5.0004608

List of optional additional citations

  1. Neese,F.
     Approximate second-order SCF convergence for spin unrestricted wavefunctions
     Chem. Phys. Lett., 2000 325(1-3)93-98
     doi.org/10.1016/s0009-2614(00)00662-x

Timings for individual modules:

Sum of individual times          ...       25.676 sec (=   0.428 min)
Startup calculation              ...        1.741 sec (=   0.029 min)   6.8 %
SCF iterations                   ...       17.601 sec (=   0.293 min)  68.6 %
Property calculations            ...        0.091 sec (=   0.002 min)   0.4 %
SCF Gradient evaluation          ...        6.243 sec (=   0.104 min)  24.3 %
                             ****ORCA TERMINATED NORMALLY****
TOTAL RUN TIME: 0 days 0 hours 0 minutes 27 seconds 66 msec
  ------------------------------------------------------------------------
          * successful ORCA run, taking over control again...

         :::::::::::::::::::::::::::::::::::::::::::::::::::::
         ::                  ORCA SUMMARY                   ::
         :::::::::::::::::::::::::::::::::::::::::::::::::::::
         :: total energy            -514.003935764425 Eh    ::
         :: gradient norm              0.042530236712 Eh/a0 ::
         :: HOMO-LUMO gap              0.000000000000 eV    ::
         :::::::::::::::::::::::::::::::::::::::::::::::::::::

      ----------------------------------------------------------- 
     |                       L-ANC optimizer                     |
      ----------------------------------------------------------- 
          low memory version by Sebastian Ehlert

          ...................................................
          :                      SETUP                      :
          :.................................................:
          :   energy convergence        0.5000000E-05 Eh    :
          :   grad. convergence         0.1000000E-02 Eh/a0 :
          :   optimization log               true           :
          :   writing optlog all                1     steps :
          :   Hessian reset                    20     steps :
          :   maximium step len.        1.0000000     a0    :
          :   LBFGS images                     20           :
          ...................................................
 * calculating model hessian...
Using Lindh-Hessian (1995)
 Shifting diagonal of input Hessian by   1.000000000000000E-002
 Lowest  eigenvalues of input Hessian
    0.000000    0.000000    0.000000    0.000000    0.000000    0.000000
    0.026892    0.031565    0.043171    0.050662    0.114436    0.115451
    0.126572    0.126602    0.148200    0.152692    0.165377    0.169939
 Highest eigenvalues
    1.769590    1.925262    2.093732    2.116623    2.408943    2.587989
 

........................................................................
.............................. CYCLE    1 ..............................
........................................................................
                         * ORCA takes the control...
  ------------------------------------------------------------------------

                                 *****************
                                 * O   R   C   A *
                                 *****************

                                            #,                                       
                                            ###                                      
                                            ####                                     
                                            #####                                    
                                            ######                                   
                                           ########,                                 
                                     ,,################,,,,,                         
                               ,,#################################,,                 
                          ,,##########################################,,             
                       ,#########################################, ''#####,          
                    ,#############################################,,   '####,        
                  ,##################################################,,,,####,       
                ,###########''''           ''''###############################       
              ,#####''   ,,,,##########,,,,          '''####'''          '####       
            ,##' ,,,,###########################,,,                        '##       
           ' ,,###''''                  '''############,,,                           
         ,,##''                                '''############,,,,        ,,,,,,###''
      ,#''                                            '''#######################'''  
     '                                                          ''''####''''         
             ,#######,   #######,   ,#######,      ##                                
            ,#'     '#,  ##    ##  ,#'     '#,    #''#        ,####,   ,####,        
            ##       ##  ##   ,#'  ##            #'  '#       #'       #'  '#        
            ##       ##  #######   ##           ,######,      #####,   #    #        
            '#,     ,#'  ##    ##  '#,     ,#' ,#      #,     #,   #   #,  ,#        
             '#######'   ##     ##  '#######'  #'      '#     '####' # '####'        



                #########################################################
                #                        -***-                          #
                #          Department of theory and spectroscopy        #
                #                                                       #
                #                      Frank Neese                      #
                #                                                       #
                #     Directorship, Architecture, Infrastructure        #
                #                    SHARK, DRIVERS                     #
                #        Core code/Algorithms in most modules           #
                #                                                       #
                #        Max Planck Institute fuer Kohlenforschung      #
                #                Kaiser Wilhelm Platz 1                 #
                #                 D-45470 Muelheim/Ruhr                 #
                #                      Germany                          #
                #                                                       #
                #                  All rights reserved                  #
                #                        -***-                          #
                #########################################################


                         Program Version 6.0.0  -   RELEASE  -


 With contributions from (in alphabetic order):
   Daniel Aravena         : Magnetic Suceptibility
   Michael Atanasov       : Ab Initio Ligand Field Theory (pilot matlab implementation)
   Alexander A. Auer      : GIAO ZORA, VPT2 properties, NMR spectrum
   Ute Becker             : All parallelization in ORCA, NUMFREQ, NUMCALC
   Giovanni Bistoni       : ED, misc. LED, open-shell LED, HFLD
   Martin Brehm           : Molecular dynamics
   Dmytro Bykov           : pre 5.0 version of the SCF Hessian
   Marcos Casanova-Páez   : Triplet and SCS-CIS(D). UHF-(DLPNO)-IP/EA/STEOM-CCSD. UHF-CVS-IP/STEOM-CCSD
   Vijay G. Chilkuri      : MRCI spin determinant printing, contributions to CSF-ICE
   Pauline Colinet        : FMM embedding
   Dipayan Datta          : RHF DLPNO-CCSD density
   Achintya Kumar Dutta   : EOM-CC, STEOM-CC
   Nicolas Foglia         : Exact transition moments, OPA infrastructure, MCD improvements
   Dmitry Ganyushin       : Spin-Orbit,Spin-Spin,Magnetic field MRCI
   Miquel Garcia          : C-PCM and meta-GGA Hessian, CCSD/C-PCM, Gaussian charge scheme
   Tiago L. C. Gouveia    : GS-ROHF, GS-ROCIS
   Yang Guo               : DLPNO-NEVPT2, F12-NEVPT2, CIM, IAO-localization
   Andreas Hansen         : Spin unrestricted coupled pair/coupled cluster methods
   Ingolf Harden          : AUTO-CI MPn and infrastructure 
   Benjamin Helmich-Paris : MC-RPA, TRAH-(SCF,CASSCF), AVAS, COSX integrals, SCF dyn. polar.
   Lee Huntington         : MR-EOM, pCC
   Robert Izsak           : Overlap fitted RIJCOSX, COSX-SCS-MP3, EOM
   Riya Kayal             : Wick's Theorem for AUTO-CI, AUTO-CI UHF-CCSDT
   Emily Kempfer          : AUTO-CI, RHF CISDT and CCSDT
   Christian Kollmar      : KDIIS, OOCD, Brueckner-CCSD(T), CCSD density, CASPT2, CASPT2-K, improved NEVPT2
   Axel Koslowski         : Symmetry handling
   Simone Kossmann        : Meta GGA functionals, TD-DFT gradient, OOMP2, (MP2 Hessian; deprecated post 5.0)
   Lucas Lang             : DCDCAS
   Marvin Lechner         : AUTO-CI (C++ implementation), FIC-MRCC
   Spencer Leger          : CASSCF response
   Dagmar Lenk            : GEPOL surface, SMD, ORCA-2-JSON
   Dimitrios Liakos       : Extrapolation schemes; Compound Job, initial MDCI parallelization
   Dimitrios Manganas     : Further ROCIS development; embedding schemes. LFT, Crystal Embedding
   Dimitrios Pantazis     : SARC Basis sets
   Anastasios Papadopoulos: AUTO-CI, single reference methods and gradients
   Taras Petrenko         : pre 6.0 DFT Hessian and TD-DFT gradient, (ASA, deprecated), ECA, 1-Electron XAS/XES, NRVS
   Peter Pinski           : DLPNO-MP2, DLPNO-MP2 Gradient
   Christoph Reimann      : Effective Core Potentials
   Marius Retegan         : Local ZFS, SOC
   Christoph Riplinger    : Optimizer, TS searches, QM/MM, DLPNO-CCSD(T), (RO)-DLPNO pert. Triples
   Michael Roemelt        : Original ROCIS implementation
   Masaaki Saitow         : Open-shell DLPNO-CCSD energy and density
   Barbara Sandhoefer     : DKH picture change effects
   Kantharuban Sivalingam : CASSCF convergence/infrastructure, NEVPT2 and variants, FIC-MRCI
   Bernardo de Souza      : ESD, SOC TD-DFT
   Georgi Stoychev        : AutoAux, RI-MP2 NMR, DLPNO-MP2 response, X2C
   Van Anh Tran           : RI-MP2 g-tensors
   Willem Van den Heuvel  : Paramagnetic NMR
   Zikuan Wang            : NOTCH, Electric field optimization 
   Frank Wennmohs         : Technical directorship and infrastructure
   Hang Xu                : AUTO-CI-Response properties 


 We gratefully acknowledge several colleagues who have allowed us to
 interface, adapt or use parts of their codes:
   Stefan Grimme, W. Hujo, H. Kruse, P. Pracht,  : VdW corrections, initial TS optimization,
                  C. Bannwarth, S. Ehlert,         DFT functionals, gCP, sTDA/sTD-DF
                  L. Wittmann, M. Mueller
   Ed Valeev, F. Pavosevic, A. Kumar             : LibInt (2-el integral package), F12 methods
   Garnet Chan, S. Sharma, J. Yang, R. Olivares  : DMRG
   Ulf Ekstrom                                   : XCFun DFT Library
   Mihaly Kallay                                 : mrcc  (arbitrary order and MRCC methods)
   Frank Weinhold                                : gennbo (NPA and NBO analysis)
   Simon Mueller                                 : openCOSMO-RS
   Christopher J. Cramer and Donald G. Truhlar   : smd solvation model
   Lars Goerigk                                  : TD-DFT with DH, B97 family of functionals
   V. Asgeirsson, H. Jonsson                     : NEB implementation
   FAccTs GmbH                                   : IRC, NEB, NEB-TS, DLPNO-Multilevel, CI-OPT
                                                   MM, QMMM, 2- and 3-layer-ONIOM, Crystal-QMMM,
                                                   LR-CPCM, SF, NACMEs, symmetry and pop. for TD-DFT,
                                                   nearIR, NL-DFT gradient (VV10), updates on ESD,
                                                   ML-optimized integration grids, MBIS, APM,
                                                   GOAT, DOCKER, SOLVATOR, interface openCOSMO-RS
   S Lehtola, MJT Oliveira, MAL Marques          : LibXC Library
   Liviu Ungur et al                             : ANISO software


 Your calculation uses the libint2 library for the computation of 2-el integrals
 For citations please refer to: http://libint.valeyev.net

 Your ORCA version has been built with support for libXC version: 6.2.2
 For citations please refer to: https://libxc.gitlab.io

 This ORCA versions uses:
   CBLAS   interface :  Fast vector & matrix operations
   LAPACKE interface :  Fast linear algebra routines
   SCALAPACK package :  Parallel linear algebra routines
   Shared memory     :  Shared parallel matrices
   BLAS/LAPACK       :  OpenBLAS 0.3.27  USE64BITINT DYNAMIC_ARCH NO_AFFINITY SapphireRapids SINGLE_THREADED
        Core in use  :  SapphireRapids
   Copyright (c) 2011-2014, The OpenBLAS Project




***************************************
The coordinates will be read from file: xtb_opt.xyz
***************************************


Your calculation utilizes the geometrical counterpoise correction gCP
Please cite in your paper:
H.Kruse, S. Grimme J.Chem.Phys., 136, (2012), 154101 
   

Your calculation utilizes the atom-pairwise dispersion correction
based on EEQ partial charges (D4)


Your calculation utilizes the SMD solvation module
Please cite in your paper:
A.V. Marenich, C.J. Cramer, D.G. Truhlar J. Phys. Chem. B, 113, (2009), 6378 

================================================================================

----- Orbital basis set information -----
Your calculation utilizes the basis: def2-mTZVPP
   Stefan Grimme, Andreas Hansen, Sebastian Ehlert, and Jan-Michael Mewes 
   J. Chem. Phys. 154, 064103 (2021). DOI: 10.1063/5.0040021

----- AuxJ basis set information -----
Your calculation utilizes the auxiliary basis: def2/J
   F. Weigend, Phys. Chem. Chem. Phys. 8, 1057 (2006).

================================================================================
                                        WARNINGS
                       Please study these warnings very carefully!
================================================================================

WARNING: Old DensityContainer found on disk!
         Will remove this file - 
         If you want to keep old densities, please start your calculation with a different basename. 

Using LibXC functional ID 497 : Re-regularized SCAN exchange by Furness et al
[ 1]  J. W. Furness, A. D. Kaplan, J. Ning, J. P. Perdew, and J. Sun.,  J. Phys. Chem. Lett. 11, 8208-8215 (2020)
[ 2]  J. W. Furness, A. D. Kaplan, J. Ning, J. P. Perdew, and J. Sun.,  J. Phys. Chem. Lett. 11, 9248-9248 (2020)
Using LibXC functional ID 498 : Re-regularized SCAN correlation by Furness et al
[ 1]  J. W. Furness, A. D. Kaplan, J. Ning, J. P. Perdew, and J. Sun.,  J. Phys. Chem. Lett. 11, 8208-8215 (2020)
[ 2]  J. W. Furness, A. D. Kaplan, J. Ning, J. P. Perdew, and J. Sun.,  J. Phys. Chem. Lett. 11, 9248-9248 (2020)
Using LibXC functional ID 497 : Re-regularized SCAN exchange by Furness et al
[ 1]  J. W. Furness, A. D. Kaplan, J. Ning, J. P. Perdew, and J. Sun.,  J. Phys. Chem. Lett. 11, 8208-8215 (2020)
[ 2]  J. W. Furness, A. D. Kaplan, J. Ning, J. P. Perdew, and J. Sun.,  J. Phys. Chem. Lett. 11, 9248-9248 (2020)
Using LibXC functional ID 498 : Re-regularized SCAN correlation by Furness et al
[ 1]  J. W. Furness, A. D. Kaplan, J. Ning, J. P. Perdew, and J. Sun.,  J. Phys. Chem. Lett. 11, 8208-8215 (2020)
[ 2]  J. W. Furness, A. D. Kaplan, J. Ning, J. P. Perdew, and J. Sun.,  J. Phys. Chem. Lett. 11, 9248-9248 (2020)

================================================================================
                                       INPUT FILE
================================================================================
NAME = xtb_opt.inp
|  1> ! r2scan-3c def2/J RI DEFGRID2 scfconv7 ENGRAD tightSCF miniprint
|  2> %cpcm
|  3>     smd true
|  4>     smdsolvent "water"
|  5> end
|  6> * xyzfile 0 1 xtb_opt.xyz
|  7> 
|  8>                          ****END OF INPUT****
================================================================================

                     *******************************
                     * Energy+Gradient Calculation *
                     *******************************

---------------------------------
CARTESIAN COORDINATES (ANGSTROEM)
---------------------------------
  C      0.194685    1.517524   -0.000152
  C      1.095225    0.515874   -0.000092
  C      0.699911   -0.874875    0.000004
  O      1.456948   -1.842231    0.000028
  N     -0.682688   -1.029792   -0.000102
  C     -1.645746   -0.040762   -0.000051
  O     -2.848075   -0.282080    0.000110
  N     -1.140094    1.239138   -0.000063
  F      2.417759    0.782094   -0.000065
  H      0.493325    2.558629   -0.000298
  H     -1.029804   -1.983983   -0.000112
  H     -1.815970    1.992998    0.000354

----------------------------
CARTESIAN COORDINATES (A.U.)
----------------------------
  NO LB      ZA    FRAG     MASS         X           Y           Z
   0 C     6.0000    0    12.011    0.367901    2.867705   -0.000287
   1 C     6.0000    0    12.011    2.069676    0.974861   -0.000174
   2 C     6.0000    0    12.011    1.322641   -1.653274    0.000008
   3 O     8.0000    0    15.999    2.753233   -3.481312    0.000053
   4 N     7.0000    0    14.007   -1.290094   -1.946025   -0.000194
   5 C     6.0000    0    12.011   -3.110009   -0.077029   -0.000095
   6 O     8.0000    0    15.999   -5.382083   -0.533053    0.000207
   7 N     7.0000    0    14.007   -2.154466    2.341632   -0.000118
   8 F     9.0000    0    18.998    4.568902    1.477943   -0.000123
   9 H     1.0000    0     1.008    0.932249    4.835108   -0.000563
  10 H     1.0000    0     1.008   -1.946047   -3.749185   -0.000211
  11 H     1.0000    0     1.008   -3.431686    3.766220    0.000668

------------------------------------------------------------------------------
                   ___                                                        
                  /   \      - P O W E R E D   B Y -                         
                 /     \                                                     
                 |  |  |   _    _      __       _____    __    __             
                 |  |  |  | |  | |    /  \     |  _  \  |  |  /  |          
                  \  \/   | |  | |   /    \    | | | |  |  | /  /          
                 / \  \   | |__| |  /  /\  \   | |_| |  |  |/  /          
                |  |  |   |  __  | /  /__\  \  |    /   |      \           
                |  |  |   | |  | | |   __   |  |    \   |  |\   \          
                \     /   | |  | | |  |  |  |  | |\  \  |  | \   \       
                 \___/    |_|  |_| |__|  |__|  |_| \__\ |__|  \__/        
                                                                              
                      - O R C A' S   B I G   F R I E N D -                    
                                      &                                       
                       - I N T E G R A L  F E E D E R -                       
                                                                              
 v1 FN, 2020, v2 2021, v3 2022-2024                                           
------------------------------------------------------------------------------


----------------------
SHARK INTEGRAL PACKAGE
----------------------

Number of atoms                             ...     12
Number of basis functions                   ...    211
Number of shells                            ...     95
Maximum angular momentum                    ...      2
Integral batch strategy                     ... SHARK/LIBINT Hybrid
RI-J (if used) integral strategy            ... SPLIT-RIJ (Revised 2003 algorithm where possible)
Printlevel                                  ...      1
Contraction scheme used                     ... SEGMENTED contraction
Prescreening option                         ... SCHWARTZ
   Thresh                                   ... 3.000e-11
   Tcut                                     ... 1.000e-12
   Tpresel                                  ... 1.000e-12 
Coulomb Range Separation                    ... NOT USED
Exchange Range Separation                   ... NOT USED
Multipole approximations                    ... NOT USED
Finite Nucleus Model                        ... NOT USED
CABS basis                                  ... NOT available
Auxiliary Coulomb fitting basis             ... AVAILABLE
   # of basis functions in Aux-J            ...    474
   # of shells in Aux-J                     ...    150
   Maximum angular momentum in Aux-J        ...      4
Auxiliary J/K fitting basis                 ... NOT available
Auxiliary Correlation fitting basis         ... NOT available
Auxiliary 'external' fitting basis          ... NOT available

Checking pre-screening integrals            ... done (  0.0 sec) Dimension = 95
Check shell pair data                       ... done (  0.0 sec)
Shell pair information
Shell pair cut-off parameter TPreSel        ...   1.0e-12
Total number of shell pairs                 ...      4560
Shell pairs after pre-screening             ...      4159
Total number of primitive shell pairs       ...     16860
Primitive shell pairs kept                  ...     11017
          la=0 lb=0:   1128 shell pairs
          la=1 lb=0:   1414 shell pairs
          la=1 lb=1:    450 shell pairs
          la=2 lb=0:    658 shell pairs
          la=2 lb=1:    406 shell pairs
          la=2 lb=2:    103 shell pairs

Calculating one electron integrals          ... done (  0.0 sec)
Calculating RI/J V-Matrix + Cholesky decomp.... done (  0.1 sec)
Calculating Nuclear repulsion               ... done (  0.0 sec) ENN=    440.914388615496 Eh

Diagonalization of the overlap matrix:
Smallest eigenvalue                        ... 9.728e-05
Time for diagonalization                   ...    0.004 sec
Threshold for overlap eigenvalues          ... 1.000e-07
Number of eigenvalues below threshold      ... 0
Time for construction of square roots      ...    0.016 sec
Total time needed                          ...    0.026 sec

-------------------
DFT GRID GENERATION
-------------------

General Integration Accuracy     IntAcc      ... 4.388
Radial Grid Type                 RadialGrid  ... OptM3 with GC (2021)
Angular Grid (max. ang.)         AngularGrid ... 4 (Lebedev-302)
Angular grid pruning method      GridPruning ... 4 (adaptive)
Weight generation scheme         WeightScheme... mBecke (2022)
Basis function cutoff            BFCut       ... 1.0000e-11
Integration weight cutoff        WCut        ... 1.0000e-14
Partially contracted basis set               ... off
Rotationally invariant grid construction     ... off
Angular grids for H and He will be reduced by one unit
Diffuse basis detected: some atoms will have their outermost
                        angular grid increased by 1.

Total number of grid points                  ...    64739
Total number of batches                      ...     1017
Average number of points per batch           ...       63
Average number of grid points per atom       ...     5395
Initializing property integral containers    ... done (  0.0 sec)

SHARK setup successfully completed in   2.3 seconds

Maximum memory used throughout the entire STARTUP-calculation: 31.3 MB
Occupation numbers will be reassigned to an Aufbau configuration
             **** ENERGY FILE WAS UPDATED (xtb_opt.en.tmp) ****
Finished Guess after   0.5 sec
Maximum memory used throughout the entire GUESS-calculation: 14.7 MB
--------------------
CPCM SOLVATION MODEL
--------------------
CPCM parameters:
  Epsilon                                         ...      78.3550
  Refrac                                          ...       1.3328
  Rsolv                                           ...       1.3000
  Surface type                                    ... GAUSSIAN VDW
  Discretization scheme                           ... Constant charge density
    Threshold for H atoms                         ...       5.0000 (charges/Ang^2)
    Threshold for non-H atoms                     ...       5.0000 (charges/Ang^2)
  Epsilon function type                           ...         CPCM
Solvent:                                          ... WATER
SMD-CDS solvent descriptors:
  Soln                                            ...       1.3328
  Soln25                                          ...       1.3323
  Sola                                            ...       0.0000
  Solb                                            ...       0.0000
  Solg                                            ...       0.0000
  Solc                                            ...       0.0000
  Solh                                            ...       0.0000
Radii:
  Scheme                                          ... Element-dependent radii
  Radius for C  used is    3.4960 Bohr (=   1.8500 Ang.)
  Radius for O  used is    2.8724 Bohr (=   1.5200 Ang.)
  Radius for N  used is    3.5716 Bohr (=   1.8900 Ang.)
  Radius for F  used is    3.2692 Bohr (=   1.7300 Ang.)
  Radius for H  used is    2.2677 Bohr (=   1.2000 Ang.)
Calculating surface                               ...        done! (  0.0s)
Cavity surface points                             ...         1022
Cavity Volume                                     ...     748.8447
Cavity Surface-area                               ...     470.4292
Calculating surface distance matrix               ...        done! (  0.0s)
Performing Cholesky decomposition & store         ...        done! (  0.4s)
Overall time for CPCM initialization              ...                 0.4s

----------------------------------------D-I-I-S--------------------------------------------
Iteration    Energy (Eh)           Delta-E    RMSDP     MaxDP     DIISErr   Damp  Time(sec)
-------------------------------------------------------------------------------------------
               ***  Starting incremental Fock matrix formation  ***
    1    -514.0225014810964694     0.00e+00  7.68e-05  2.59e-03  6.09e-03  0.700   3.3
    2    -514.0226145335204819    -1.13e-04  6.42e-05  2.04e-03  4.23e-03  0.700   3.5
                               ***Turning on AO-DIIS***
                              *** Initializing SOSCF ***
---------------------------------------S-O-S-C-F--------------------------------------
Iteration    Energy (Eh)           Delta-E    RMSDP     MaxDP     MaxGrad    Time(sec)
--------------------------------------------------------------------------------------
    3    -514.0226937866050321    -7.93e-05  1.53e-04  4.56e-03  2.92e-03     3.6
               *** Restarting incremental Fock matrix formation ***
    4    -514.0228732060327275    -1.79e-04  5.90e-05  1.93e-03  3.65e-04     3.8
    5    -514.0228615721680399     1.16e-05  4.31e-05  1.76e-03  8.44e-04     2.3
    6    -514.0228772517752986    -1.57e-05  1.03e-05  2.54e-04  8.66e-05     2.0
    7    -514.0228767637540841     4.88e-07  6.63e-06  1.69e-04  1.49e-04     2.8
    8    -514.0228774444847204    -6.81e-07  4.05e-06  1.37e-04  2.17e-05     3.6
                  *** Gradient check signals convergence ***

               *****************************************************
               *                     SUCCESS                       *
               *           SCF CONVERGED AFTER   8 CYCLES          *
               *****************************************************


SMD CDS free energy correction energy :                 5.81075     Kcal/mol
Total Energy after SMD CDS correction =              -514.013617428 Eh
             **** ENERGY FILE WAS UPDATED (xtb_opt.en.tmp) ****

----------------
TOTAL SCF ENERGY
----------------

Total Energy       :       -514.01361742832137 Eh          -13987.02162 eV

Components:
Nuclear Repulsion  :        440.91438861549619 Eh           11997.89048 eV
Electronic Energy  :       -954.89493147127587 Eh          -25984.01209 eV
One Electron Energy:      -1577.26244085987537 Eh          -42919.49300 eV
Two Electron Energy:        622.36750938859950 Eh           16935.48091 eV
CPCM Dielectric    :         -0.04233458870497 Eh              -1.15198 eV
SMD CDS (Gcds)     :          0.00926001616336 Eh               0.25198 eV

Virial components:
Potential Energy   :      -1026.01635845416831 Eh          -27919.32450 eV
Kinetic Energy     :        512.00274102584706 Eh           13932.30289 eV
Virial Ratio       :          2.00392747194760

DFT components:
N(Alpha)           :       32.999996513245 electrons
N(Beta)            :       32.999996513245 electrons
N(Total)           :       65.999993026489 electrons
E(X)               :      -61.920499581363 Eh       
E(C)               :       -2.233561745225 Eh       
E(XC)              :      -64.154061326587 Eh       

CPCM Solvation Model Properties:
Surface-charge          :         -0.02949744248330
Corrected charge        :         -0.00000000000000
Outlying charge corr.   :          0.00007190891202 Eh               0.00196 eV
Free-energy (cav+disp)  :          0.00926001616336 Eh               0.25198 eV

---------------
SCF CONVERGENCE
---------------

  Last Energy change         ...    6.8073e-07  Tolerance :   1.0000e-07
  Last MAX-Density change    ...    1.3658e-04  Tolerance :   1.0000e-07
  Last RMS-Density change    ...    4.0469e-06  Tolerance :   5.0000e-09
  Last DIIS Error            ...    2.9182e-03  Tolerance :   1.0000e-07
  Last Orbital Gradient      ...    2.1734e-05  Tolerance :   1.0000e-04
  Last Orbital Rotation      ...    1.0843e-04  Tolerance :   1.0000e-04


----------------
ORBITAL ENERGIES
----------------

  NO   OCC          E(Eh)            E(eV) 
   0   2.0000     -24.516844      -667.1372 
   1   2.0000     -18.949022      -515.6291 
   2   2.0000     -18.945558      -515.5348 
   3   2.0000     -14.237860      -387.4319 
   4   2.0000     -14.229355      -387.2004 
   5   2.0000     -10.194197      -277.3982 
   6   2.0000     -10.168456      -276.6978 
   7   2.0000     -10.134649      -275.7778 
   8   2.0000     -10.112379      -275.1718 
   9   2.0000      -1.203717       -32.7548 
  10   2.0000      -1.054475       -28.6937 
  11   2.0000      -1.025414       -27.9029 
  12   2.0000      -0.956438       -26.0260 
  13   2.0000      -0.907610       -24.6973 
  14   2.0000      -0.771280       -20.9876 
  15   2.0000      -0.669905       -18.2290 
  16   2.0000      -0.647614       -17.6225 
  17   2.0000      -0.577741       -15.7211 
  18   2.0000      -0.557384       -15.1672 
  19   2.0000      -0.494840       -13.4653 
  20   2.0000      -0.484577       -13.1860 
  21   2.0000      -0.470196       -12.7947 
  22   2.0000      -0.456526       -12.4227 
  23   2.0000      -0.432889       -11.7795 
  24   2.0000      -0.422664       -11.5013 
  25   2.0000      -0.421282       -11.4637 
  26   2.0000      -0.388177       -10.5628 
  27   2.0000      -0.368547       -10.0287 
  28   2.0000      -0.340262        -9.2590 
  29   2.0000      -0.281478        -7.6594 
  30   2.0000      -0.279426        -7.6036 
  31   2.0000      -0.258345        -7.0299 
  32   2.0000      -0.227402        -6.1879 
  33   0.0000      -0.078414        -2.1337 
  34   0.0000      -0.029407        -0.8002 
  35   0.0000       0.039403         1.0722 
  36   0.0000       0.066251         1.8028 
  37   0.0000       0.087088         2.3698 
  38   0.0000       0.103975         2.8293 
  39   0.0000       0.117249         3.1905 
  40   0.0000       0.146586         3.9888 
  41   0.0000       0.158997         4.3265 
  42   0.0000       0.162236         4.4147 
  43   0.0000       0.170534         4.6405 
*Only the first 10 virtual orbitals were printed.
Total SCF time: 0 days 0 hours 0 min 25 sec 
Finished LeanSCF after  26.6 sec

Maximum memory used throughout the entire LEANSCF-calculation: 21.9 MB


-------------------------------------------------------------------------------
                          DFT DISPERSION CORRECTION                            
                                                                               
                                DFTD4 V3.4.0                                   
-------------------------------------------------------------------------------
-------------------------   ----------------
Dispersion correction           -0.003772255
-------------------------   ----------------

------------------   -----------------
gCP correction             0.012355000
------------------   -----------------

-------------------------   --------------------
FINAL SINGLE POINT ENERGY      -514.005034683643
-------------------------   --------------------

------------------------------------------------------------------------------
                         ORCA SCF GRADIENT CALCULATION
------------------------------------------------------------------------------

Nuc. rep. gradient        (SHARK) ... done (  0.0 sec)
HCore & Overlap gradient  (SHARK) ... done (  0.1 sec)
Split-RIJ-J gradient      (SHARK) ... done (  1.1 sec)
XC gradient                       ... done (  3.4 sec)
CPCM gradient                     ... done (  0.6 sec)
SMD gradient                      ... done (  0.0 sec)
Dispersion correction             ... done (  0.0 sec)

-------------------
DISPERSION GRADIENT
-------------------

   1   C   :    0.000017674    0.000055398   -0.000000004
   2   C   :    0.000048435    0.000012363   -0.000000002
   3   C   :    0.000037934   -0.000035588    0.000000001
   4   O   :    0.000053582   -0.000067342    0.000000003
   5   N   :   -0.000021220   -0.000047799   -0.000000002
   6   C   :   -0.000054290   -0.000003791    0.000000000
   7   O   :   -0.000084335   -0.000012991    0.000000005
   8   N   :   -0.000041881    0.000048907    0.000000002
   9   F   :    0.000062247    0.000018401   -0.000000000
  10   H   :    0.000011612    0.000038406   -0.000000004
  11   H   :   -0.000010047   -0.000026422   -0.000000001
  12   H   :   -0.000019713    0.000020458    0.000000002

Difference to translation invariance:
           :    0.0000000000   -0.0000000000    0.0000000000

Difference to rotation invariance:
           :   -0.0000000000   -0.0000000000   -0.0000000000

Norm of the Dispersion gradient    ...    0.0002013575
RMS gradient                       ...    0.0000335596
MAX gradient                       ...    0.0000843346
gCP correction                   ... done

------------------
CARTESIAN GRADIENT
------------------

   1   C   :   -0.004076996   -0.000134038   -0.000002298
[...]
Two Electron Energy:        622.38462786782975 Eh           16935.94673 eV
CPCM Dielectric    :         -0.04268326475612 Eh              -1.16147 eV
SMD CDS (Gcds)     :          0.00922964449355 Eh               0.25115 eV

Virial components:
Potential Energy   :      -1026.00159910294724 Eh          -27918.92288 eV
Kinetic Energy     :        511.98786982516037 Eh           13931.89822 eV
Virial Ratio       :          2.00395685048811

DFT components:
N(Alpha)           :       32.999999501053 electrons
N(Beta)            :       32.999999501053 electrons
N(Total)           :       65.999999002106 electrons
E(X)               :      -61.916851879691 Eh       
E(C)               :       -2.233423978855 Eh       
E(XC)              :      -64.150275858547 Eh       

CPCM Solvation Model Properties:
Surface-charge          :         -0.02951737720675
Corrected charge        :          0.00000000000000
Outlying charge corr.   :          0.00007200709437 Eh               0.00196 eV
Free-energy (cav+disp)  :          0.00922964449355 Eh               0.25115 eV

---------------
SCF CONVERGENCE
---------------

  Last Energy change         ...   -8.3613e-08  Tolerance :   1.0000e-07
  Last MAX-Density change    ...    7.4370e-05  Tolerance :   1.0000e-07
  Last RMS-Density change    ...    2.5517e-06  Tolerance :   5.0000e-09
  Last DIIS Error            ...    5.3559e-05  Tolerance :   1.0000e-07
  Last Orbital Gradient      ...    7.3439e-05  Tolerance :   1.0000e-04
  Last Orbital Rotation      ...    8.6482e-05  Tolerance :   1.0000e-04


----------------
ORBITAL ENERGIES
----------------

  NO   OCC          E(Eh)            E(eV) 
   0   2.0000     -24.517717      -667.1610 
   1   2.0000     -18.948848      -515.6244 
   2   2.0000     -18.946182      -515.5518 
   3   2.0000     -14.237725      -387.4282 
   4   2.0000     -14.229466      -387.2035 
   5   2.0000     -10.194567      -277.4083 
   6   2.0000     -10.168278      -276.6929 
   7   2.0000     -10.134996      -275.7873 
   8   2.0000     -10.112836      -275.1842 
   9   2.0000      -1.206140       -32.8207 
  10   2.0000      -1.053237       -28.6600 
  11   2.0000      -1.023804       -27.8591 
  12   2.0000      -0.955608       -26.0034 
  13   2.0000      -0.906621       -24.6704 
  14   2.0000      -0.772123       -21.0105 
  15   2.0000      -0.670459       -18.2441 
  16   2.0000      -0.646723       -17.5982 
  17   2.0000      -0.578157       -15.7325 
  18   2.0000      -0.557698       -15.1757 
  19   2.0000      -0.494206       -13.4480 
  20   2.0000      -0.485762       -13.2182 
  21   2.0000      -0.470453       -12.8017 
  22   2.0000      -0.456790       -12.4299 
  23   2.0000      -0.433618       -11.7993 
  24   2.0000      -0.422946       -11.5089 
  25   2.0000      -0.421166       -11.4605 
  26   2.0000      -0.387234       -10.5372 
  27   2.0000      -0.368639       -10.0312 
  28   2.0000      -0.339763        -9.2454 
  29   2.0000      -0.281329        -7.6554 
  30   2.0000      -0.279132        -7.5956 
  31   2.0000      -0.258162        -7.0249 
  32   2.0000      -0.227847        -6.2000 
  33   0.0000      -0.079416        -2.1610 
  34   0.0000      -0.029532        -0.8036 
  35   0.0000       0.039874         1.0850 
  36   0.0000       0.066147         1.8000 
  37   0.0000       0.086895         2.3645 
  38   0.0000       0.104136         2.8337 
  39   0.0000       0.116973         3.1830 
  40   0.0000       0.146880         3.9968 
  41   0.0000       0.159004         4.3267 
  42   0.0000       0.162698         4.4272 
  43   0.0000       0.170750         4.6463 
*Only the first 10 virtual orbitals were printed.
Total SCF time: 0 days 0 hours 0 min 8 sec 
Finished LeanSCF after   8.3 sec

Maximum memory used throughout the entire LEANSCF-calculation: 21.9 MB


-------------------------------------------------------------------------------
                          DFT DISPERSION CORRECTION                            
                                                                               
                                DFTD4 V3.4.0                                   
-------------------------------------------------------------------------------
-------------------------   ----------------
Dispersion correction           -0.003771804
-------------------------   ----------------

------------------   -----------------
gCP correction             0.012335468
------------------   -----------------

-------------------------   --------------------
FINAL SINGLE POINT ENERGY      -514.005165613733
-------------------------   --------------------

------------------------------------------------------------------------------
                         ORCA SCF GRADIENT CALCULATION
------------------------------------------------------------------------------

Nuc. rep. gradient        (SHARK) ... done (  0.0 sec)
HCore & Overlap gradient  (SHARK) ... done (  0.1 sec)
Split-RIJ-J gradient      (SHARK) ... done (  1.1 sec)
XC gradient                       ... done (  3.4 sec)
CPCM gradient                     ... done (  0.6 sec)
SMD gradient                      ... done (  0.0 sec)
Dispersion correction             ... done (  0.0 sec)

-------------------
DISPERSION GRADIENT
-------------------

   1   C   :    0.000017778    0.000055481   -0.000000001
   2   C   :    0.000048506    0.000012289   -0.000000002
   3   C   :    0.000037978   -0.000035333   -0.000000001
   4   O   :    0.000053883   -0.000066849   -0.000000001
   5   N   :   -0.000021317   -0.000047857    0.000000001
   6   C   :   -0.000054432   -0.000003836    0.000000002
   7   O   :   -0.000084389   -0.000013134    0.000000004
   8   N   :   -0.000041801    0.000048881    0.000000001
   9   F   :    0.000062205    0.000017813   -0.000000002
  10   H   :    0.000011409    0.000038495   -0.000000001
  11   H   :   -0.000010159   -0.000026462    0.000000001
  12   H   :   -0.000019662    0.000020510    0.000000001

Difference to translation invariance:
           :   -0.0000000000    0.0000000000   -0.0000000000

Difference to rotation invariance:
           :   -0.0000000000    0.0000000000    0.0000000000

Norm of the Dispersion gradient    ...    0.0002013040
RMS gradient                       ...    0.0000335507
MAX gradient                       ...    0.0000843890
gCP correction                   ... done

------------------
CARTESIAN GRADIENT
------------------

   1   C   :    0.000013209    0.000071024    0.000001269
   2   C   :    0.000021109   -0.000036672   -0.000003149
   3   C   :    0.000325888   -0.000116141    0.000004979
   4   O   :   -0.000133137    0.000121280   -0.000001464
   5   N   :   -0.000109394   -0.000034905   -0.000000919
   6   C   :   -0.000220833   -0.000049331   -0.000001737
   7   O   :    0.000120500    0.000058850    0.000000998
   8   N   :    0.000056934    0.000031635   -0.000001519
   9   F   :   -0.000044418   -0.000059513    0.000000455
  10   H   :   -0.000012058   -0.000004765    0.000000252
  11   H   :   -0.000019422   -0.000028854    0.000000025
  12   H   :    0.000001624    0.000047392    0.000000809

Difference to translation invariance:
           :    0.0000000000    0.0000000000   -0.0000000000

Difference to rotation invariance:
           :    0.0000001322   -0.0000004559   -0.0006753190

Norm of the Cartesian gradient     ...    0.0005049116
RMS gradient                       ...    0.0000841519
MAX gradient                       ...    0.0003258882

-------
TIMINGS
-------

Total SCF gradient time     ....        5.652 sec

Densities                   ....       0.000 sec  (  0.0%)
One electron gradient       ....       0.128 sec  (  2.3%)
RI-J Coulomb gradient       ....       1.106 sec  ( 19.6%)
XC gradient                 ....       3.362 sec  ( 59.5%)
CPCM gradient               ....       0.555 sec  (  9.8%)
   A-Matrix (El+Nuc)        ....       0.026 sec  (  0.5%)
   Potential                ....       0.528 sec  (  9.3%)
SMD gradient                ....       0.012 sec  (  0.2%)

Maximum memory used throughout the entire SCFGRAD-calculation: 34.9 MB

------------------------------------------------------------------------------
                              ORCA PROPERTY CALCULATIONS
------------------------------------------------------------------------------

GBWName                                 ... xtb_opt.gbw
Number of atoms                         ...     12
Number of basis functions               ...    211
Max core memory                         ...   1024 MB

Electric properties:
Dipole moment                           ... YES
Quadrupole moment                       ...  NO
Static polarizability (Dipole/Dipole)   ...  NO
Static polarizability (Dipole/Quad.)    ...  NO
Static polarizability (Quad./Quad.)     ...  NO
Static polarizability (Velocity)        ...  NO

Atomic electric properties:
Dipole moment                           ...  NO
Quadrupole moment                       ...  NO
Static polarizability                   ...  NO

Choice of electric origin               ... Center of mass
Position of electric origin             ...    -0.000750    -0.004750    -0.000090

General magnetic properties:
Magnetizability                         ...  NO

EPR properties:
g-Tensor (aka g-matrix)                 ...  NO
Zero-Field splitting spin-orbit         ...  NO
Zero-field splitting spin-spin          ...  NO
Hyperfine couplings                     ...  NO (   0 nuclei)
Quadrupole couplings                    ...  NO (   0 nuclei)
Contact density                         ...  NO (   0 nuclei)

NMR properties:
Chemical shifts                         ...  NO (   0 nuclei)
Spin-rotation constants                 ...  NO (   0 nuclei)
Spin-spin couplings                     ...  NO (   0 nuclei,    0 pairs)

Choice of magnetic origin               ... GIAO
Position of magnetic origin             ...     0.000000     0.000000     0.000000

Properties with geometric perturbations:
SCF Hessian                             ...  NO
IR spectrum                             ...  NO
VCD spectrum                            ...  NO
X-ray spectroscopy properties:
SCF XES/XAS/RIXS spectra                ...  NO


-------------
DIPOLE MOMENT
-------------

Method             : SCF
Type of density    : Electron Density
Multiplicity       :   1
Irrep              :   0
Energy             :  -514.0137292777867515 Eh
Relativity type    : 
Basis              : AO
                                X                 Y                 Z
Electronic contribution:      3.794214625       0.749319445      -0.000183674
Nuclear contribution   :     -4.479769597       1.677932877       0.000211062
                        -----------------------------------------
Total Dipole Moment    :     -0.685554972       2.427252323       0.000027388
                        -----------------------------------------
Magnitude (a.u.)       :      2.522209242
Magnitude (Debye)      :      6.410946406



--------------------
Rotational spectrum 
--------------------
 
Rotational constants in cm-1:             0.107272             0.047028             0.032695 
Rotational constants in MHz :          3215.947121          1409.853248           980.157623 

Dipole components along the rotational axes: 
x,y,z [a.u.] :    -0.697632    -2.423809     0.000030 
x,y,z [Debye]:    -1.773240    -6.160832     0.000076 

 

Dipole moment calculation done in   0.0 sec 

Maximum memory used throughout the entire PROP-calculation: 13.4 MB

--------------------------------
SUGGESTED CITATIONS FOR THIS RUN
--------------------------------

Below you find a list of papers that are relevant to this ORCA run
We neither can nor want to force you to cite these papers, but we appreciate if you do
You receive ORCA, which is the product of decades of hard work by many enthusiastic individuals, for free
The only thing we kindly ask in return is that you cite our papers,
We deeply appreciate it, if you show your appreciation for ORCA by not just citing the generic ORCA reference.

Please note that relegating all ORCA citations to the supporting information does *not* help us.
SI sections are not indexed - citations you put there will not count into any citation statistics
But we need these citations in order to attract the funding resources that allow us to do what we are doing

Therefore, if you are a happy ORCA user, please consider citing a few of the papers listed below in the main body of your paper

In addition to the list printed below, the program has created the file xtb_opt.bibtex that contains the list in bibtex format
You can import this file easily into all common literature databanks and citation aid programs


List of essential papers. We consider these as the minimum necessary citations

  1. Neese,F.
     Software update: the ORCA program system, version 5.0
     WIRES Comput. Molec. Sci., 2022 12(1)e1606
     doi.org/10.1002/wcms.1606
  2. Grimme,S.; Hansen,A.; Ehlert,S.; Mewes,J.
     r2SCAN-3c: A 'Swiss army knife' composite electronic-structure method
     J. Chem. Phys., 2021 154 064103
     doi.org/10.1063/5.0040021

List of papers to cite with high priority. The work reported in these papers was absolutely
necessary for this run to complete.
Our perspective: the developers of density functionals and basis sets usually get cited in chemistry papers
Good! But without the algorithms to do something with them, the functionals or basis sets would not do anything.
Hence, in our opinion, the algorithm design and method developments papers are equally worthy of getting cited

  1. Neese,F.
     An improvement of the resolution of the identity approximation for the formation of the Coulomb matrix
     J. Comp. Chem., 2003 24(14)1740-1747
     doi.org/10.1002/jcc.10318
  2. Garcia-Rates,M.; Neese,F.
     Effect of the Solute Cavity on the Solvation Energy and its Derivatives within the Framework of the Gaussian Charge Scheme
     J. Comput. Chem., 2020 41 922-939
     doi.org/10.1002/jcc.26139
  3. Neese,F.
     The SHARK Integral Generation and Digestion System
     J. Comp. Chem., 2022  1-16
     doi.org/10.1002/jcc.26942
  4. Lehtola,S.; Steigemann,C.; Oliveira,M.; Marques,M.
     Recent developments in Libxc - A comprehensive library of functionals for density functional theory
     Software X, 2018 7 
     doi.org/10.1016/j.softx.2017.11.002
  5. Caldeweyher,E.; Bannwarth,C.; Grimme,S.
     Extension of the D3 dispersion coefficient model
     J. Chem. Phys., 2017 147 034112-XXXX
     doi.org/10.1063/1.4993215
  6. Caldeweyher,E.; Ehlert,S.; Hansen,A.; Neugebauer,H.; Spicher,S.; Bannwarth,C.; Grimme,S.
     A generally applicable atomic-charge dependent London dispersion correction
     J. Chem. Phys., 2019 150 154122-XXXX
     doi.org/10.1063/1.5090222
  7. Caldeweyher,E.; Mewes,J.; Ehlert,S.; Grimme,S.
     Extension and evaluation of the D4 London-dispersion model for periodic systems
     Phys. Chem. Chem. Phys., 2020 22(16)8499-8512
     doi.org/10.1039/D0CP00502A

List of suggested additional citations. These are papers that are important in the 'surrounding' of 
of this run, or papers that preceded the highly important papers. If you like your results we are grateful for a citation.

  1. Neese,F.
     The ORCA program system
     WIRES Comput. Molec. Sci., 2012 2(1)73-78
     doi.org/10.1002/wcms.81
  2. Neese,F.
     Software update: the ORCA program system, version 4.0
     WIRES Comput. Molec. Sci., 2018 8(1)1-6
     doi.org/10.1002/wcms.1327
  3. Neese,F.; Wennmohs,F.; Becker,U.; Riplinger,C.
     The ORCA quantum chemistry program package
     J. Chem. Phys., 2020 152 Art. No. L224108
     doi.org/10.1063/5.0004608

List of optional additional citations

  1. Neese,F.
     Approximate second-order SCF convergence for spin unrestricted wavefunctions
     Chem. Phys. Lett., 2000 325(1-3)93-98
     doi.org/10.1016/s0009-2614(00)00662-x

Timings for individual modules:

Sum of individual times          ...       16.530 sec (=   0.276 min)
Startup calculation              ...        1.898 sec (=   0.032 min)  11.5 %
SCF iterations                   ...        8.796 sec (=   0.147 min)  53.2 %
Property calculations            ...        0.099 sec (=   0.002 min)   0.6 %
SCF Gradient evaluation          ...        5.737 sec (=   0.096 min)  34.7 %
                             ****ORCA TERMINATED NORMALLY****
TOTAL RUN TIME: 0 days 0 hours 0 minutes 17 seconds 337 msec
  ------------------------------------------------------------------------
          * successful ORCA run, taking over control again...

         :::::::::::::::::::::::::::::::::::::::::::::::::::::
         ::                  ORCA SUMMARY                   ::
         :::::::::::::::::::::::::::::::::::::::::::::::::::::
         :: total energy            -514.005165613733 Eh    ::
         :: gradient norm              0.000504911553 Eh/a0 ::
         :: HOMO-LUMO gap              0.000000000000 eV    ::
         :::::::::::::::::::::::::::::::::::::::::::::::::::::

           -------------------------------------------------
          |                Property Printout                |
           -------------------------------------------------
           -------------------------------------------------
          |                Geometry Summary                 |
           -------------------------------------------------

      molecular mass/u    :      130.0773853
   center of mass at/Å    :       -0.0003889      -0.0025215      -0.0000475
  moments of inertia/u·Å² :        0.1571471E+03   0.3584671E+03   0.5156142E+03
rotational constants/cm⁻¹ :        0.1072730E+00   0.4702700E-01   0.3269428E-01

 * 10 selected distances

     #   Z          #   Z                                           value/Å
     1   6 C        2   6 C                                       1.3465328
     3   6 C        4   8 O                                       1.2313951
     3   6 C        5   7 N                                       1.3938517 (max)
     5   7 N        6   6 C                                       1.3821877
     6   6 C        7   8 O                                       1.2287071
     1   6 C        8   7 N                                       1.3677651
     6   6 C        8   7 N                                       1.3756510
     1   6 C       10   1 H                                       1.0836979
     5   7 N       11   1 H                                       1.0150937
     8   7 N       12   1 H                                       1.0122132 (min)

 * 5 distinct bonds (by element types)

   Z      Z             #   av. dist./Å        max./Å        min./Å
   1 H    6 C           1     1.0836979     1.0836979     1.0836979
   6 C    6 C           1     1.3465328     1.3465328     1.3465328
   1 H    7 N           2     1.0136534     1.0150937     1.0122132
   6 C    7 N           4     1.3798639     1.3938517     1.3677651
   6 C    8 O           2     1.2300511     1.2313951     1.2287071


optimized geometry written to: xtbopt.coord


           -------------------------------------------------
          | TOTAL ENERGY             -514.005165613733 Eh   |
          | GRADIENT NORM               0.000504911553 Eh/α |
           -------------------------------------------------

------------------------------------------------------------------------
 * finished run on 2025/04/03 at 20:27:13.448     
------------------------------------------------------------------------
 total:
 * wall-time:     0 d,  0 h,  2 min, 50.786 sec
 *  cpu-time:     0 d,  0 h,  0 min,  0.012 sec
 * ratio c/w:     0.000 speedup
 SCF:
 * wall-time:     0 d,  0 h,  0 min, 27.116 sec
 *  cpu-time:     0 d,  0 h,  0 min,  0.001 sec
 * ratio c/w:     0.000 speedup
 ANC optimizer:
 * wall-time:     0 d,  0 h,  2 min, 23.658 sec
 *  cpu-time:     0 d,  0 h,  0 min,  0.009 sec
 * ratio c/w:     0.000 speedup

