      -----------------------------------------------------------      
     |                   =====================                   |     
     |                           x T B                           |     
     |                   =====================                   |     
     |                         S. Grimme                         |     
     |          Mulliken Center for Theoretical Chemistry        |     
     |                    University of Bonn                     |     
      -----------------------------------------------------------      

   * xtb version 6.7.1 (edcfbbe) compiled by 'albert@albert-system' on 2024-07-22

   xtb is free software: you can redistribute it and/or modify it under
   the terms of the GNU Lesser General Public License as published by
   the Free Software Foundation, either version 3 of the License, or
   (at your option) any later version.
   
   xtb is distributed in the hope that it will be useful,
   but WITHOUT ANY WARRANTY; without even the implied warranty of
   MERCHANTABILITY or FITNESS FOR A PARTICULAR PURPOSE.  See the
   GNU Lesser General Public License for more details.
   
   Cite this work as:
   * C. Bannwarth, E. Caldeweyher, S. Ehlert, A. Hansen, P. Pracht,
     J. Seibert, S. Spicher, S. Grimme, WIREs Comput. Mol. Sci., 2020, 11,
     e01493. DOI: 10.1002/wcms.1493
   
   for GFN2-xTB:
   * C. Bannwarth, S. Ehlert and S. Grimme., J. Chem. Theory Comput., 2019,
     15, 1652-1671. DOI: 10.1021/acs.jctc.8b01176
   for GFN1-xTB:
   * S. Grimme, C. Bannwarth, P. Shushkov, J. Chem. Theory Comput., 2017,
     13, 1989-2009. DOI: 10.1021/acs.jctc.7b00118
   for GFN0-xTB:
   * P. Pracht, E. Caldeweyher, S. Ehlert, S. Grimme, ChemRxiv, 2019, preprint.
     DOI: 10.26434/chemrxiv.8326202.v1
   for GFN-FF:
   * S. Spicher and S. Grimme, Angew. Chem. Int. Ed., 2020, 59, 15665-15673.
     DOI: 10.1002/anie.202004239
   
   for ALPB and GBSA implicit solvation:
   * S. Ehlert, M. Stahn, S. Spicher, S. Grimme, J. Chem. Theory Comput.,
     2021, 17, 4250-4261. DOI: 10.1021/acs.jctc.1c00471
   
   for ddCOSMO and CPCM-X implicit solvation:
   * M. Stahn, S. Ehlert, S. Grimme, J. Phys. Chem. A,
     2023, XX, XXXX-XXXX. DOI: 10.1021/acs.jpca.3c04382
   
   for DFT-D4:
   * E. Caldeweyher, C. Bannwarth and S. Grimme, J. Chem. Phys., 2017,
     147, 034112. DOI: 10.1063/1.4993215
   * E. Caldeweyher, S. Ehlert, A. Hansen, H. Neugebauer, S. Spicher,
     C. Bannwarth and S. Grimme, J. Chem. Phys., 2019, 150, 154122.
     DOI: 10.1063/1.5090222
   * E. Caldeweyher, J.-M. Mewes, S. Ehlert and S. Grimme, Phys. Chem. Chem. Phys.
     2020, 22, 8499-8512. DOI: 10.1039/D0CP00502A
   
   for sTDA-xTB:
   * S. Grimme and C. Bannwarth, J. Chem. Phys., 2016, 145, 054103.
     DOI: 10.1063/1.4959605
   
   in the mass-spec context:
   * V. Asgeirsson, C. Bauer and S. Grimme, Chem. Sci., 2017, 8, 4879.
     DOI: 10.1039/c7sc00601b
   * J. Koopman and S. Grimme, ACS Omega 2019, 4, 12, 15120-15133.
     DOI: 10.1021/acsomega.9b02011
   
   for metadynamics refer to:
   * S. Grimme, J. Chem. Theory Comput., 2019, 155, 2847-2862
     DOI: 10.1021/acs.jctc.9b00143
   
   for SPH calculations refer to:
   * S. Spicher and S. Grimme, J. Chem. Theory Comput., 2021, 17, 1701-1714
     DOI: 10.1021/acs.jctc.0c01306
   
   for ONIOM refer to:
   * C. Plett, A. Katbashev, S. Ehlert, S. Grimme, M. Bursch,
     Phys. Chem. Chem. Phys., 2023, 25, 17860-17868. DOI: 10.1039/D3CP02178E
   
   for DIPRO refer to:
   * J. Kohn, N. Gildemeister, S. Grimme, D. Fazzi, A. Hansen,
     J. Chem. Phys., 2023, just accepted.
   
   for PTB refer to:
   * S. Grimme, M. Mueller, A. Hansen, J. Chem. Phys., 2023, 158, 124111.
     DOI: 10.1063/5.0137838
   
   with help from (in alphabetical order)
   P. Atkinson, C. Bannwarth, F. Bohle, G. Brandenburg, E. Caldeweyher
   M. Checinski, S. Dohm, S. Ehlert, S. Ehrlich, I. Gerasimov, C. Hölzer
   A. Katbashev, J. Kohn, J. Koopman, C. Lavigne, S. Lehtola, F. März, M. Müller,
   F. Musil, H. Neugebauer, J. Pisarek, C. Plett, P. Pracht, F. Pultar,
   J. Seibert, P. Shushkov, S. Spicher, M. Stahn, M. Steiner, T. Strunk,
   J. Stückrath, T. Rose, and J. Unsleber
   
 * started run on 2025/04/09 at 05:21:01.696     
   ID    Z sym.   atoms
    1    6 C      1, 2, 7, 8, 10, 15, 16, 18, 19
    2    8 O      3, 6, 14, 17
    3   15 P      4, 12
    4   16 S      5, 9, 11, 13
    5    1 H      20-41

           -------------------------------------------------
          |                Calculation Setup                |
           -------------------------------------------------

          program call               : /srv/scratch/z5358697/.xtb/bin/xtb gas.coord --gfn2 --sp --chrg 0 --norestart --parallel 1
          hostname                   : k163
          coordinate file            : gas.coord
          omp threads                :                     1


           -------------------------------------------------
          |                 G F N 2 - x T B                 |
           -------------------------------------------------

        Reference                      10.1021/acs.jctc.8b01176
      * Hamiltonian:
        H0-scaling (s, p, d)           1.850000    2.230000    2.230000
        zeta-weighting                 0.500000
      * Dispersion:
        s8                             2.700000
        a1                             0.520000
        a2                             5.000000
        s9                             5.000000
      * Repulsion:
        kExp                           1.500000    1.000000
        rExp                           1.000000
      * Coulomb:
        alpha                          2.000000
        third order                    shell-resolved
        anisotropic                    true
        a3                             3.000000
        a5                             4.000000
        cn-shift                       1.200000
        cn-exp                         4.000000
        max-rad                        5.000000


          ...................................................
          :                      SETUP                      :
          :.................................................:
          :  # basis functions                 134          :
          :  # atomic orbitals                 128          :
          :  # shells                           66          :
          :  # electrons                       116          :
          :  max. iterations                   250          :
          :  Hamiltonian                  GFN2-xTB          :
          :  restarted?                      false          :
          :  GBSA solvation                  false          :
          :  PC potential                    false          :
          :  electronic temp.          300.0000000     K    :
          :  accuracy                    1.0000000          :
          :  -> integral cutoff          0.2500000E+02      :
          :  -> integral neglect         0.1000000E-07      :
          :  -> SCF convergence          0.1000000E-05 Eh   :
          :  -> wf. convergence          0.1000000E-03 e    :
          :  Broyden damping             0.4000000          :
          :  net charge                          0          :
          :  unpaired electrons                  0          :
          ...................................................

 iter      E             dE          RMSdq      gap      omega  full diag
   1    -65.3868605 -0.653869E+02  0.641E+00    4.27       0.0  T
   2    -65.5515704 -0.164710E+00  0.389E+00    3.26       1.0  T
   3    -65.5700765 -0.185061E-01  0.131E+00    3.03       1.0  T
   4    -65.5724453 -0.236877E-02  0.561E-01    2.82       1.0  T
   5    -65.5731931 -0.747882E-03  0.272E-01    2.91       1.0  T
   6    -65.5734084 -0.215250E-03  0.135E-01    2.90       1.0  T
   7    -65.5734726 -0.642270E-04  0.485E-02    2.92       1.0  T
   8    -65.5734809 -0.826867E-05  0.227E-02    2.92       1.0  T
   9    -65.5734820 -0.109451E-05  0.628E-03    2.92       2.5  T
  10    -65.5734821 -0.981449E-07  0.335E-03    2.92       4.7  T
  11    -65.5734821 -0.827568E-08  0.796E-04    2.92      19.6  T
  12    -65.5734821 -0.221249E-08  0.437E-04    2.92      35.7  T

   *** convergence criteria satisfied after 12 iterations ***

         #    Occupation            Energy/Eh            Energy/eV
      -------------------------------------------------------------
         1        2.0000           -0.7582207             -20.6322
       ...           ...                  ...                  ...
        52        2.0000           -0.4390211             -11.9464
        53        2.0000           -0.4077546             -11.0956
        54        2.0000           -0.3998956             -10.8817
        55        2.0000           -0.3769595             -10.2576
        56        2.0000           -0.3738234             -10.1723
        57        2.0000           -0.3718883             -10.1196
        58        2.0000           -0.3688006             -10.0356 (HOMO)
        59                         -0.2614503              -7.1144 (LUMO)
        60                         -0.2478600              -6.7446
        61                         -0.2044095              -5.5623
        62                         -0.1765842              -4.8051
        63                         -0.1694054              -4.6098
       ...                                ...                  ...
       128                          1.3242471              36.0346
      -------------------------------------------------------------
                  HL-Gap            0.1073503 Eh            2.9212 eV
             Fermi-level           -0.3151255 Eh           -8.5750 eV

 SCC (total)                   0 d,  0 h,  0 min,  0.057 sec
 SCC setup                      ...        0 min,  0.000 sec (  0.471%)
 Dispersion                     ...        0 min,  0.000 sec (  0.547%)
 classical contributions        ...        0 min,  0.000 sec (  0.104%)
 integral evaluation            ...        0 min,  0.008 sec ( 14.682%)
 iterations                     ...        0 min,  0.026 sec ( 45.205%)
 molecular gradient             ...        0 min,  0.022 sec ( 38.601%)
 printout                       ...        0 min,  0.000 sec (  0.364%)

         :::::::::::::::::::::::::::::::::::::::::::::::::::::
         ::                     SUMMARY                     ::
         :::::::::::::::::::::::::::::::::::::::::::::::::::::
         :: total energy             -65.011200723612 Eh    ::
         :: gradient norm              0.030844739444 Eh/a0 ::
         :: HOMO-LUMO gap              2.921150752661 eV    ::
         ::.................................................::
         :: SCC energy               -65.572613094983 Eh    ::
         :: -> isotropic ES            0.105480141625 Eh    ::
         :: -> anisotropic ES         -0.012274502039 Eh    ::
         :: -> anisotropic XC          0.031613499716 Eh    ::
         :: -> dispersion             -0.052695891997 Eh    ::
         :: repulsion energy           0.561412371371 Eh    ::
         :: add. restraining           0.000000000000 Eh    ::
         :: total charge              -0.000000000000 e     ::
         :::::::::::::::::::::::::::::::::::::::::::::::::::::

           -------------------------------------------------
          |                Property Printout                |
           -------------------------------------------------

    * Orbital Energies and Occupations

         #    Occupation            Energy/Eh            Energy/eV
      -------------------------------------------------------------
         1        2.0000           -0.7582207             -20.6322
       ...           ...                  ...                  ...
        46        2.0000           -0.4650752             -12.6553
        47        2.0000           -0.4636102             -12.6155
        48        2.0000           -0.4571353             -12.4393
        49        2.0000           -0.4546509             -12.3717
        50        2.0000           -0.4497611             -12.2386
        51        2.0000           -0.4432437             -12.0613
        52        2.0000           -0.4390211             -11.9464
        53        2.0000           -0.4077546             -11.0956
        54        2.0000           -0.3998956             -10.8817
        55        2.0000           -0.3769595             -10.2576
        56        2.0000           -0.3738234             -10.1723
        57        2.0000           -0.3718883             -10.1196
        58        2.0000           -0.3688006             -10.0356 (HOMO)
        59                         -0.2614503              -7.1144 (LUMO)
        60                         -0.2478600              -6.7446
        61                         -0.2044095              -5.5623
        62                         -0.1765842              -4.8051
        63                         -0.1694054              -4.6098
        64                         -0.1556322              -4.2350
        65                         -0.1465887              -3.9889
        66                         -0.1408880              -3.8338
        67                         -0.1242081              -3.3799
        68                         -0.1175790              -3.1995
        69                         -0.0447712              -1.2183
       ...                                ...                  ...
       128                          1.3242471              36.0346
      -------------------------------------------------------------
                  HL-Gap            0.1073503 Eh            2.9212 eV
             Fermi-level           -0.3151255 Eh           -8.5750 eV

     #   Z          covCN         q      C6AA      α(0)
     1   6 C        3.751    -0.119    22.832     6.814
     2   6 C        3.855     0.081    19.205     6.233
     3   8 O        1.653    -0.233    17.885     5.709
     4  15 P        3.855     0.374   144.671    21.606
     5  16 S        0.926    -0.385   155.914    21.120
     6   8 O        1.655    -0.255    18.247     5.767
     7   6 C        3.854     0.083    19.175     6.228
     8   6 C        3.751    -0.119    22.842     6.816
     9  16 S        2.034    -0.147   147.233    20.422
    10   6 C        3.836     0.048    19.752     6.323
    11  16 S        2.039    -0.136   146.778    20.391
    12  15 P        3.879     0.368   144.923    21.625
    13  16 S        0.926    -0.429   158.011    21.261
    14   8 O        1.655    -0.247    18.105     5.744
    15   6 C        3.867     0.083    19.167     6.226
    16   6 C        3.751    -0.116    22.780     6.807
    17   8 O        1.655    -0.238    17.957     5.721
    18   6 C        3.862     0.091    19.040     6.205
    19   6 C        3.751    -0.118    22.828     6.814
    20   1 H        0.925     0.067     2.120     2.277
    21   1 H        0.925     0.060     2.199     2.319
    22   1 H        0.925     0.066     2.128     2.281
    23   1 H        0.924     0.066     2.128     2.281
    24   1 H        0.924     0.059     2.211     2.325
    25   1 H        0.924     0.065     2.140     2.288
    26   1 H        0.924     0.063     2.163     2.300
    27   1 H        0.925     0.063     2.162     2.299
    28   1 H        0.925     0.062     2.177     2.308
    29   1 H        0.925     0.063     2.163     2.300
    30   1 H        0.925     0.079     1.995     2.209
    31   1 H        0.925     0.085     1.930     2.172
    32   1 H        0.924     0.063     2.162     2.300
    33   1 H        0.924     0.064     2.148     2.292
    34   1 H        0.925     0.061     2.189     2.314
    35   1 H        0.925     0.061     2.187     2.313
    36   1 H        0.925     0.061     2.192     2.315
    37   1 H        0.924     0.065     2.140     2.288
    38   1 H        0.924     0.046     2.365     2.405
    39   1 H        0.925     0.056     2.247     2.344
    40   1 H        0.925     0.066     2.136     2.285
    41   1 H        0.925     0.074     2.040     2.233

 Mol. C6AA /au·bohr⁶  :      26540.518396
 Mol. C8AA /au·bohr⁸  :     863312.254017
 Mol. α(0) /au        :        258.278469


Wiberg/Mayer (AO) data.
largest (>0.10) Wiberg bond orders for each atom

 ---------------------------------------------------------------------------
     #   Z sym  total        # sym  WBO       # sym  WBO       # sym  WBO
 ---------------------------------------------------------------------------
     1   6 C    3.987 --     2 C    1.022    20 H    0.983    21 H    0.979
                            22 H    0.979
     2   6 C    3.911 --     1 C    1.022    23 H    0.971    24 H    0.969
                             3 O    0.885
     3   8 O    2.415 --     4 P    1.340     2 C    0.885
     4  15 P    5.287 --     5 S    1.583     3 O    1.340     6 O    1.302
                             9 S    0.934
     5  16 S    1.913 --     4 P    1.583     9 S    0.141
     6   8 O    2.403 --     4 P    1.302     7 C    0.905
     7   6 C    3.908 --     8 C    1.022    25 H    0.970    26 H    0.969
                             6 O    0.905
     8   6 C    3.990 --     7 C    1.022    27 H    0.982    28 H    0.980
                            29 H    0.976
     9  16 S    2.260 --    10 C    1.002     4 P    0.934     5 S    0.141
    10   6 C    3.960 --     9 S    1.002    11 S    0.967    31 H    0.966
                            30 H    0.954
    11  16 S    2.269 --    12 P    0.996    10 C    0.967    13 S    0.135
    12  15 P    5.302 --    13 S    1.531    17 O    1.324    14 O    1.311
                            11 S    0.996
    13  16 S    1.856 --    12 P    1.531    11 S    0.135
    14   8 O    2.410 --    12 P    1.311    15 C    0.906
    15   6 C    3.909 --    16 C    1.022    33 H    0.970    32 H    0.967
                            14 O    0.906
    16   6 C    3.991 --    15 C    1.022    34 H    0.983    36 H    0.980
                            35 H    0.976
    17   8 O    2.411 --    12 P    1.324    18 C    0.890
    18   6 C    3.909 --    19 C    1.021    38 H    0.971    37 H    0.970
                            17 O    0.890
    19   6 C    3.986 --    18 C    1.021    40 H    0.980    39 H    0.980
                            41 H    0.979
    20   1 H    0.995 --     1 C    0.983
    21   1 H    0.995 --     1 C    0.979
    22   1 H    0.996 --     1 C    0.979
    23   1 H    0.995 --     2 C    0.971
    24   1 H    0.997 --     2 C    0.969
    25   1 H    0.996 --     7 C    0.970
    26   1 H    0.996 --     7 C    0.969
    27   1 H    0.996 --     8 C    0.982
    28   1 H    0.996 --     8 C    0.980
    29   1 H    0.996 --     8 C    0.976
    30   1 H    0.994 --    10 C    0.954
    31   1 H    0.993 --    10 C    0.966
    32   1 H    0.996 --    15 C    0.967
    33   1 H    0.995 --    15 C    0.970
    34   1 H    0.996 --    16 C    0.983
    35   1 H    0.996 --    16 C    0.976
    36   1 H    0.996 --    16 C    0.980
    37   1 H    0.996 --    18 C    0.970
    38   1 H    0.998 --    18 C    0.971
    39   1 H    0.996 --    19 C    0.980
    40   1 H    0.996 --    19 C    0.980
    41   1 H    0.994 --    19 C    0.979
 ---------------------------------------------------------------------------

Topologies differ in total number of bonds
Writing topology from bond orders to xtbtopo.mol

molecular dipole:
                 x           y           z       tot (Debye)
 q only:        1.408       0.578      -0.400
   full:        1.361       1.004       0.122       4.310
molecular quadrupole (traceless):
                xx          xy          yy          xz          yz          zz
 q only:        7.314     -12.030       9.421      -6.391     -12.401     -16.735
  q+dip:       10.832     -15.081       6.817      -3.946      -8.431     -17.648
   full:       11.576     -15.548       7.003      -4.261      -9.953     -18.579


           -------------------------------------------------
          | TOTAL ENERGY              -65.011200723612 Eh   |
          | GRADIENT NORM               0.030844739444 Eh/α |
          | HOMO-LUMO GAP               2.921150752661 eV   |
           -------------------------------------------------

------------------------------------------------------------------------
 * finished run on 2025/04/09 at 05:21:01.785     
------------------------------------------------------------------------
 total:
 * wall-time:     0 d,  0 h,  0 min,  0.089 sec
 *  cpu-time:     0 d,  0 h,  0 min,  0.068 sec
 * ratio c/w:     0.765 speedup
 SCF:
 * wall-time:     0 d,  0 h,  0 min,  0.057 sec
 *  cpu-time:     0 d,  0 h,  0 min,  0.056 sec
 * ratio c/w:     0.974 speedup

