41
 energy: -2932.481068127704 gnorm: 0.013570223022 xtb: 6.7.1 (edcfbbe)
C            6.00953461538010        0.34808656424629        0.16329464388591
C            4.91717362252340       -0.34061428567852       -0.61149641981844
O            3.87731874724762        0.66517692882031       -0.94014427884071
P            2.36316466735466        0.49432580457216       -0.45833570796901
S            1.23872866769303        2.00846266169411       -0.91217294173019
O            2.58424702939103        0.17860663361138        1.10484340375497
C            1.43515798025933       -0.12859324051816        1.96541569442511
C            1.98673538436357       -0.69355712854717        3.26164376459270
S            1.79402992139246       -1.37502826349422       -1.35621707861525
C            0.03203416949051       -1.11127358023395       -1.78195041437611
S           -1.15024839176100       -1.63140825472067       -0.45863671264362
P           -2.43880852095712        0.04026126033366       -0.31554501611984
S           -2.80493254633825        1.00767921331436       -1.96580629175745
O           -1.80753012832839        0.87348823490584        0.90548299228531
C           -2.34014335446672        2.21289572518244        1.21681687757900
C           -1.56266401872200        2.75047904934689        2.38960205969698
O           -3.69843592679943       -0.64403739103093        0.42226742892892
C           -4.69641894455622       -1.39221852886101       -0.36093308050568
C           -5.67640423640431       -1.99758077198518        0.61134200057926
H            6.80328095845540       -0.37340400732098        0.38306755863217
H            6.43933186697508        1.16989868632574       -0.41674453466275
H            5.62383159380934        0.73939328132907        1.10903046688966
H            4.47473206623851       -1.15849007616279       -0.03494883884730
H            5.26492328263078       -0.72557582521602       -1.57297859660782
H            0.86907814940617        0.80573707285930        2.12041858160422
H            0.79253093978488       -0.86299201031064        1.44683144080658
H            2.66087598943602        0.02552833113016        3.75397887394477
H            1.15009432089232       -0.89961789148715        3.93629189735222
H            2.52956381107007       -1.63575655917976        3.08084256053105
H           -0.14949807328012       -1.73853688352423       -2.65873009185009
H           -0.13917631923126       -0.06211484999036       -2.04430646741804
H           -2.21694912615394        2.84067110172988        0.32890369333455
H           -3.40681815602819        2.11408615740676        1.44632820712776
H           -0.49975232739910        2.84212626841798        2.14724772769934
H           -1.94646207703483        3.74698521454967        2.63140600947933
H           -1.67704622172648        2.11236253298071        3.27052643152485
H           -5.18336402572158       -0.69000248353694       -1.04416717772549
H           -4.17662128955926       -2.16151554365503       -0.94336789510036
H           -6.14223840789303       -1.22214944527464        1.22748201583078
H           -6.46261273693853       -2.50757297267796        0.04586835789742
H           -5.18809579759537       -2.72820549887768        1.26336383475259
41
 energy: -2932.481404515939 gnorm: 0.004914198953 xtb: 6.7.1 (edcfbbe)
C            6.01288353009382        0.34771311959139        0.16399438428164
C            4.92073361305314       -0.34015997952842       -0.61127679202622
O            3.88287028831062        0.66577404324145       -0.93924100520230
P            2.36885987889447        0.49654331186183       -0.45607402875869
S            1.23662044817613        2.00275843735681       -0.91142268038987
O            2.59011762877136        0.18058162252755        1.10744380863263
C            1.44326628085940       -0.12590520972144        1.97040799249203
C            1.98493916124702       -0.68969137705570        3.26152549954235
S            1.78081140015209       -1.36804745289080       -1.34204790439673
C            0.02656656321142       -1.11054252751943       -1.79359685354261
S           -1.15139730606499       -1.63336168352272       -0.46829368209440
P           -2.44357988372534        0.03570864111098       -0.31333911862814
S           -2.80127744882015        1.00044718143197       -1.96563914013579
O           -1.81388190840108        0.87013714317443        0.90685353960711
C           -2.34120456218539        2.21217620352093        1.21559020759793
C           -1.56150857814702        2.74558004634819        2.38846004784075
O           -3.70714745996020       -0.64497345654526        0.42194480243286
C           -4.70327667478177       -1.39071333739140       -0.36308739666608
C           -5.67759471204905       -1.99666184576985        0.61301575064885
H            6.80588976026318       -0.37516372519907        0.38045959760064
H            6.44248099899436        1.16996937908672       -0.41500009836786
H            5.62926061069011        0.73714062798103        1.11133042040164
H            4.47699931630128       -1.15778555714110       -0.03552495967724
H            5.26838246375377       -0.72426648779931       -1.57308392544028
H            0.88151749754513        0.80148811282387        2.12873460326931
H            0.79895447870562       -0.85254301634130        1.45900538403729
H            2.65577548087753        0.02540017457342        3.74905460711334
H            1.14919994577280       -0.89754162946818        3.93651221114861
H            2.52672967238267       -1.62408709624988        3.08031480168789
H           -0.14790587540171       -1.73914140551549       -2.66994975575207
H           -0.14419899404462       -0.06057989569143       -2.05194539265275
H           -2.21556111675699        2.83923314150916        0.32793383137159
H           -3.40759674777088        2.11673308368298        1.44532898976136
H           -0.49912232519671        2.83574219133246        2.14404247858009
H           -1.94333344602703        3.74172957774095        2.63407070042922
H           -1.67613155766516        2.10523061046435        3.26756836990401
H           -5.18973091854717       -0.68741061020792       -1.04497017897205
H           -4.18301146089254       -2.15862730317066       -0.94576377336140
H           -6.14653782835415       -1.22207378601656        1.22670529822111
H           -6.46156055345617       -2.51185375054838        0.04969618360097
H           -5.18515655799360       -2.72290832006526        1.26584057109317
41
 energy: -2932.481469107477 gnorm: 0.003554362588 xtb: 6.7.1 (edcfbbe)
C            6.01179391401392        0.34719898172571        0.16279656400459
C            4.91833519221264       -0.34010132232613       -0.61141425742136
O            3.87722033670921        0.66161723988325       -0.94054483756168
P            2.36312046747665        0.49358239902120       -0.45642361150805
S            1.23979441092707        2.00818896639473       -0.90606337094784
O            2.58934416262809        0.18020481337784        1.10736568049121
C            1.44543052923086       -0.12218094570181        1.97437873839231
C            1.98725662200129       -0.68521500312795        3.26042988067072
S            1.78645149379347       -1.37809343156775       -1.33770070821412
C            0.03353682746866       -1.10600663406059       -1.78540800932667
S           -1.15429102359169       -1.63359879424015       -0.46953103751111
P           -2.44712895488922        0.03508990828840       -0.32002119216364
S           -2.80867438646791        1.00474319292124       -1.96885857544983
O           -1.81738270723609        0.86658935226991        0.90132793089442
C           -2.34097674960330        2.20953266544145        1.21314118359763
C           -1.55925145701994        2.73832014066784        2.38660050660941
O           -3.71016272593902       -0.64585015946440        0.41660278532384
C           -4.70876315148619       -1.38954648401520       -0.36561845947878
C           -5.67882381459685       -1.99645613547482        0.61333640810838
H            6.80549705426111       -0.37604200666083        0.37551837126903
H            6.44057067262961        1.17034888291435       -0.41527450174993
H            5.63141754557530        0.73440212418836        1.11230372224292
H            4.47749878492418       -1.15895774635212       -0.03542468457174
H            5.26732549054540       -0.72386995754545       -1.57286798167452
H            0.88993805836016        0.80458523516910        2.13374334403906
H            0.79931644328151       -0.84355794713724        1.46557352381810
H            2.65579994149510        0.02758993506339        3.74747923560663
H            1.15168085639563       -0.89388488607961        3.93524977902718
H            2.52786617575006       -1.61663550414409        3.08025185292067
H           -0.14162197753967       -1.73167673288483       -2.66361125197566
H           -0.13686033888431       -0.05580950054058       -2.04334649795980
H           -2.21373655811273        2.83750078359501        0.32660869786757
H           -3.40731193041401        2.11696895440685        1.44323240825944
H           -0.49734632852056        2.82809868302050        2.14057950762015
H           -1.93956906301014        3.73379438952688        2.63706510245920
H           -1.67360655493556        2.09469626742486        3.26327515042470
H           -5.19740438622940       -0.68527781781907       -1.04471115694717
H           -4.19108419537302       -2.15649413119314       -0.95126143669299
H           -6.15034420038671       -1.22226570260837        1.22501002238076
H           -6.46151776072498       -2.51776620173981        0.05394586331848
H           -5.18119929838734       -2.71763321930262        1.26734975509423
41
 energy: -2932.481515063601 gnorm: 0.002047068769 xtb: 6.7.1 (edcfbbe)
C            6.01353139322042        0.34650266236943        0.16303579464794
C            4.91984863036393       -0.34046894620678       -0.61110124157606
O            3.87947010448009        0.66176414096808       -0.93847373848342
P            2.36570942752081        0.49481398285069       -0.45282197298626
S            1.23911819659927        2.00554488179500       -0.90752385338588
O            2.59178583147239        0.18218245907479        1.11129028257719
C            1.44666240182635       -0.11810561651152        1.97740896689922
C            1.99018918291633       -0.68249166810022        3.26211290265431
S            1.78242787647971       -1.37353270402281       -1.33666852553818
C            0.02968355131315       -1.10651044085959       -1.78573931068159
S           -1.15968259117282       -1.63564305513514       -0.47093168732112
P           -2.44899462526504        0.03521857721188       -0.32371138249276
S           -2.81138699434724        1.00499947242758       -1.97260026150469
O           -1.81894680366510        0.86501704145551        0.89822627276141
C           -2.34057406491866        2.20824187372208        1.21169679680697
C           -1.55733847012059        2.73359721830974        2.38566434852738
O           -3.71161497135281       -0.64632689593991        0.41329685399669
C           -4.71237276177100       -1.38888311852355       -0.36696522414935
C           -5.68044765857736       -1.99690514328236        0.61325586226180
H            6.80767796189406       -0.37701227164768        0.37330442388077
H            6.44123537523648        1.17074100485254       -0.41435602640617
H            5.63429358331003        0.73198568779832        1.11370750313763
H            4.47924096244699       -1.15981211311361       -0.03555163676068
H            5.26863725744136       -0.72352537843632       -1.57293720920412
H            0.89388285805596        0.81121446975462        2.13664740845530
H            0.79917348957609       -0.83832118020268        1.46711084835933
H            2.65816929772428        0.03020858993782        3.75164637097973
H            1.15391412411180       -0.89173347083558        3.93600248924148
H            2.53066837697683       -1.61483903570817        3.08193044482632
H           -0.14369131231930       -1.72973214663668       -2.66603239888812
H           -0.13955219263648       -0.05563660068627       -2.04157573125802
H           -2.21233412125537        2.83676758433822        0.32569399171844
H           -3.40708207984269        2.11713918457743        1.44175331869540
H           -0.49562853225509        2.82316032994128        2.13881620591450
H           -1.93673505330327        3.72860532779751        2.63933718747130
H           -1.67130663474561        2.08744461272482        3.26057047765072
H           -5.20316217088792       -0.68400319696889       -1.04402265124616
H           -4.19706882690676       -2.15543812340200       -0.95535882546551
H           -6.15368507030312       -1.22288178797792        1.22391062930332
H           -6.46221753593129       -2.52238728758851        0.05636169075842
H           -5.17936351055127       -2.71477306853078        1.26837069748152
41
 energy: -2932.481557561310 gnorm: 0.001656668435 xtb: 6.7.1 (edcfbbe)
C            6.01584847952626        0.34488213122753        0.16264525374049
C            4.92132075598290       -0.34102367427388       -0.61141805176682
O            3.88159244847688        0.66127475508111       -0.93736878421932
P            2.36807962857205        0.49682198633926       -0.44978721254017
S            1.24069354188253        2.00709369950809       -0.90485102556532
O            2.59560856693740        0.18549308923186        1.11454273266888
C            1.44977325701309       -0.10959284096388        1.98253140047773
C            1.99420340084331       -0.67658957623942        3.26622183813119
S            1.77978389508838       -1.37241041227709       -1.32928326304368
C            0.03019823887528       -1.10565741862335       -1.78805760711584
S           -1.16556783478153       -1.63672046769269       -0.47906304048261
P           -2.45513150405517        0.03316102874133       -0.32778872961410
S           -2.81292424975857        1.00103520533780       -1.97863884019037
O           -1.82390584431140        0.86106668557651        0.89401213471896
C           -2.33988627221409        2.20585857074608        1.20892521065075
C           -1.55328126780186        2.72385132596499        2.38388241381800
O           -3.71929974422438       -0.64670411699547        0.40858220400508
C           -4.72246430270054       -1.38710443933838       -0.36961489942497
C           -5.68542441352157       -1.99798779328253        0.61398322125995
H            6.81124874853697       -0.37876986721326        0.36813279981180
H            6.44132555157870        1.17146180497914       -0.41317747422833
H            5.63892667499836        0.72676915727541        1.11570068559408
H            4.48138341150815       -1.16127669357841       -0.03645659224192
H            5.27005961095355       -0.72327368767919       -1.57363894147109
H            0.90191355126557        0.82418638862845        2.14283942055683
H            0.79719746010177       -0.82747737246372        1.47216717404680
H            2.66233163436118        0.03592908828507        3.75872169473273
H            1.15782249797104       -0.88708922736533        3.93991536262922
H            2.53472470281722       -1.61021227714814        3.08467318957137
H           -0.14082847896973       -1.72468968056916       -2.67177844510761
H           -0.13693449264590       -0.05329839631358       -2.03925200603199
H           -2.20910591715015        2.83524812927997        0.32383034234523
H           -3.40679878724314        2.11850641022362        1.43892340470038
H           -0.49193129364296        2.81244478536494        2.13518758019587
H           -1.93029891681802        3.71798715891883        2.64434442810630
H           -1.66644836733576        2.07234413529650        3.25503287267035
H           -5.21692073562576       -0.68081124200024       -1.04284146185915
H           -4.21031684266171       -2.15234876077642       -0.96287202327420
H           -6.16310572605710       -1.22474264906282        1.22239833540570
H           -6.46418336343547       -2.53244120124641        0.06128517980352
H           -5.17715233667070       -2.70889462712459        1.27153893267658
41
 energy: -2932.481582283015 gnorm: 0.003087088479 xtb: 6.7.1 (edcfbbe)
C            6.01969484728505        0.34119297342538        0.16091400609241
C            4.92320547084489       -0.34231138115672       -0.61297228230944
O            3.88356586893874        0.65931389728739       -0.93671719412151
P            2.37089848977544        0.49926968016380       -0.44446597148157
S            1.24456565559893        2.00964467366694       -0.90065730289788
O            2.60321604729846        0.19219750423163        1.12018267129223
C            1.45749532710256       -0.09170640939338        1.99384964853428
C            2.00080505137692       -0.66338216030706        3.27607825853350
S            1.77250706399162       -1.37278639790537       -1.31211637429651
C            0.02865608651423       -1.09852331826455       -1.78457157723223
S           -1.17538575629361       -1.64534557722590       -0.48721548161465
P           -2.46367860370749        0.02745405795467       -0.34268073900061
S           -2.82431035069516        1.00218196705761       -1.98881986999187
O           -1.83075351867475        0.85124977653205        0.87973579132681
C           -2.33675697331879        2.19811900816789        1.20139368777074
C           -1.54458196328125        2.70190757193913        2.37891780918806
O           -3.72972716493673       -0.64921210394479        0.39435610957483
C           -4.74156019125971       -1.38353959530287       -0.37700950438638
C           -5.69351716298697       -1.99955767906846        0.61486219351115
H            6.81799154681868       -0.38220365923934        0.35661968901336
H            6.44034136216676        1.17277103130482       -0.41141623054363
H            5.64744621249276        0.71541810804066        1.11888348165524
H            4.48442808881337       -1.16405217096793       -0.03902312897361
H            5.27149634861319       -0.72318515561750       -1.57595698114593
H            0.91930655958795        0.84822704319797        2.15637791573604
H            0.79439671119932       -0.80353348043393        1.48623327733960
H            2.67019790238917        0.04732342101858        3.77098832741711
H            1.16514641578509       -0.87609858473959        3.95027875585802
H            2.54105468425490       -1.59720760706670        3.09069008834351
H           -0.13622636038019       -1.70954025284610       -2.67521546835810
H           -0.13507355003752       -0.04357648453117       -2.02770098626430
H           -2.20173157353404        2.83125238995424        0.31951849175647
H           -3.40427418569898        2.11815544957282        1.43174277791366
H           -0.48405818931686        2.78984462637780        2.12665607503336
H           -1.91740972024116        3.69371608337498        2.65410616495745
H           -1.65559461863955        2.03907985661740        3.24204250751431
H           -5.24371520635087       -0.67314559204031       -1.04069884823518
H           -4.23731708465159       -2.14592224847936       -0.98107575229732
H           -6.18040881851929       -1.22851558758911        1.21904662862140
H           -6.46634157877510       -2.55130731651025        0.07051025697375
H           -5.17188608855729       -2.69709438863483        1.27688602471541
41
 energy: -2932.481597930286 gnorm: 0.001511724122 xtb: 6.7.1 (edcfbbe)
C            6.01926819543703        0.34055922996570        0.16026527767133
C            4.92256006417970       -0.34279273675789       -0.61346787462767
O            3.88249721319453        0.65908864380871       -0.93667284223180
P            2.37016571463599        0.49890174153547       -0.44366825181483
S            1.24553617720444        2.01032910575945       -0.90058642097241
O            2.60314744662886        0.19263965896717        1.12093058108002
C            1.45778127201569       -0.09058985865296        1.99474669185675
C            2.00103338726469       -0.66189194843851        3.27738699703367
S            1.77588964376657       -1.37368229477681       -1.31232093379065
C            0.03182566690018       -1.09784908064527       -1.78451064155276
S           -1.17633450931925       -1.64311400353081       -0.49069845760480
P           -2.46595334341290        0.02725094733616       -0.34219790207469
S           -2.82366021910463        0.99958920694703       -1.99046781831672
O           -1.83097539880187        0.85070923810944        0.87953265500421
C           -2.33612861626604        2.19757048878747        1.20144386540272
C           -1.54375710835609        2.70075292044199        2.37899313953291
O           -3.73173731502896       -0.64936751483092        0.39487202825011
C           -4.74347128117819       -1.38348166982767       -0.37692869699818
C           -5.69496667422933       -2.00021866764938        0.61483259913140
H            6.81795557421364       -0.38239816902088        0.35548536169554
H            6.43936725124123        1.17257518372997       -0.41174130568798
H            5.64709426885331        0.71420882912371        1.11841671778872
H            4.48374102743536       -1.16446591902360       -0.03955669702826
H            5.27035414052666       -0.72349506332932       -1.57667936085468
H            0.91982435799966        0.84862177588891        2.15655799567445
H            0.79497654954543       -0.80204769269072        1.48782662798989
H            2.67124709958866        0.04812210689882        3.77079491540455
H            1.16556119800273       -0.87378696053730        3.95179585588742
H            2.54073697322256       -1.59525254242267        3.09185905183252
H           -0.13309757406702       -1.70756549816337       -2.67588457990259
H           -0.13177713178390       -0.04270083761380       -2.02654556834515
H           -2.20086849034181        2.83077924494040        0.31968765501043
H           -3.40359682023720        2.11792730012833        1.43174436139922
H           -0.48331741109617        2.78909632948907        2.12652469272613
H           -1.91664771399774        3.69220304923218        2.65472062463022
H           -1.65451833635970        2.03748543944500        3.24166157378689
H           -5.24564982243736       -0.67250381236248       -1.03973759333567
H           -4.23921498359065       -2.14521557090732       -0.98149171773818
H           -6.18233324407004       -1.22983470736371        1.21924419725019
H           -6.46710412603093       -2.55178633551797        0.06989952013487
H           -5.17334782403036       -2.69777273513548        1.27634284865227
41
 energy: -2932.481602207253 gnorm: 0.000791142042 xtb: 6.7.1 (edcfbbe)
C            6.01821982081345        0.33974726051439        0.15965405780656
C            4.92144862744127       -0.34333335275444       -0.61402441842973
O            3.88171299774581        0.66030061403589       -0.93663215285228
P            2.36942597333995        0.49927160407558       -0.44428082388868
S            1.24685359357334        2.01352424741008       -0.89808992204308
O            2.60137606907426        0.19191273177976        1.11995920116271
C            1.45639353767549       -0.09237317691621        1.99305725480369
C            2.00003758677514       -0.66165441052216        3.27723176048933
S            1.77684402285242       -1.37466486963334       -1.31182369257608
C            0.03234268622407       -1.09828973871395       -1.78462814665805
S           -1.17433660015840       -1.64359878862941       -0.49080230087096
P           -2.46417419307581        0.02668827464838       -0.33990384695961
S           -2.82307564243841        0.99871258006302       -1.98814060242101
O           -1.82786289009615        0.85167587648671        0.88084826128032
C           -2.33538329551546        2.19747447050718        1.20225470312036
C           -1.54444688386365        2.70308143397941        2.37963401239998
O           -3.72931057389514       -0.64987464332257        0.39733789258702
C           -4.74101152154744       -1.38391232986873       -0.37582281396116
C           -5.69450147354497       -2.00063258392773        0.61384187593030
H            6.81686851211702       -0.38270071141046        0.35605470171633
H            6.43837737224707        1.17151648603615       -0.41254660890700
H            5.64502885961004        0.71402728793405        1.11706496133403
H            4.48186703148023       -1.16458790796480       -0.04021566235270
H            5.26814394197777       -0.72385570740873       -1.57765727790916
H            0.91685426266563        0.84531679987828        2.15364764715226
H            0.79567032927346       -0.80538073439681        1.48706971200143
H            2.67185154591072        0.04820022278666        3.76760640327863
H            1.16478794647487       -0.87067230482523        3.95245650697398
H            2.53830757681019       -1.59547352754818        3.09289708109868
H           -0.13191938595090       -1.70796710377400       -2.67594317211856
H           -0.13119702562328       -0.04311061427995       -2.02618001972185
H           -2.20099061599587        2.83074976156539        0.32042873304704
H           -3.40265517653050        2.11616320616748        1.43246056747042
H           -0.48392423125572        2.79296681137829        2.12798957300806
H           -1.91893861002955        3.69429057268387        2.65317052589526
H           -1.65496851872520        2.04143180911305        3.24331763439089
H           -5.24170626085429       -0.67246592094533       -1.03880956396016
H           -4.23603536398173       -2.14555768333687       -0.97937410168072
H           -6.18022094001834       -1.23088276555480        1.22009267044536
H           -6.46743707670934       -2.54747431057849        0.06597337473817
H           -5.17620948565170       -2.70199195999910        1.27322490594651
41
 energy: -2932.481602207253 gnorm: 0.000791142042 xtb: 6.7.1 (edcfbbe)
C            6.01821982081345        0.33974726051439        0.15965405780656
C            4.92144862744127       -0.34333335275444       -0.61402441842973
O            3.88171299774581        0.66030061403589       -0.93663215285228
P            2.36942597333995        0.49927160407558       -0.44428082388868
S            1.24685359357334        2.01352424741008       -0.89808992204308
O            2.60137606907426        0.19191273177976        1.11995920116271
C            1.45639353767549       -0.09237317691621        1.99305725480369
C            2.00003758677514       -0.66165441052216        3.27723176048933
S            1.77684402285242       -1.37466486963334       -1.31182369257608
C            0.03234268622407       -1.09828973871395       -1.78462814665805
S           -1.17433660015840       -1.64359878862941       -0.49080230087096
P           -2.46417419307581        0.02668827464838       -0.33990384695961
S           -2.82307564243841        0.99871258006302       -1.98814060242101
O           -1.82786289009615        0.85167587648671        0.88084826128032
C           -2.33538329551546        2.19747447050718        1.20225470312036
C           -1.54444688386365        2.70308143397941        2.37963401239998
O           -3.72931057389514       -0.64987464332257        0.39733789258702
C           -4.74101152154744       -1.38391232986873       -0.37582281396116
C           -5.69450147354497       -2.00063258392773        0.61384187593030
H            6.81686851211702       -0.38270071141046        0.35605470171633
H            6.43837737224707        1.17151648603615       -0.41254660890700
H            5.64502885961004        0.71402728793405        1.11706496133403
H            4.48186703148023       -1.16458790796480       -0.04021566235270
H            5.26814394197777       -0.72385570740873       -1.57765727790916
H            0.91685426266563        0.84531679987828        2.15364764715226
H            0.79567032927346       -0.80538073439681        1.48706971200143
H            2.67185154591072        0.04820022278666        3.76760640327863
H            1.16478794647487       -0.87067230482523        3.95245650697398
H            2.53830757681019       -1.59547352754818        3.09289708109868
H           -0.13191938595090       -1.70796710377400       -2.67594317211856
H           -0.13119702562328       -0.04311061427995       -2.02618001972185
H           -2.20099061599587        2.83074976156539        0.32042873304704
H           -3.40265517653050        2.11616320616748        1.43246056747042
H           -0.48392423125572        2.79296681137829        2.12798957300806
H           -1.91893861002955        3.69429057268387        2.65317052589526
H           -1.65496851872520        2.04143180911305        3.24331763439089
H           -5.24170626085429       -0.67246592094533       -1.03880956396016
H           -4.23603536398173       -2.14555768333687       -0.97937410168072
H           -6.18022094001834       -1.23088276555480        1.22009267044536
H           -6.46743707670934       -2.54747431057849        0.06597337473817
H           -5.17620948565170       -2.70199195999910        1.27322490594651
