      -----------------------------------------------------------      
     |                   =====================                   |     
     |                           x T B                           |     
     |                   =====================                   |     
     |                         S. Grimme                         |     
     |          Mulliken Center for Theoretical Chemistry        |     
     |                    University of Bonn                     |     
      -----------------------------------------------------------      

   * xtb version 6.7.1 (edcfbbe) compiled by 'albert@albert-system' on 2024-07-22

   xtb is free software: you can redistribute it and/or modify it under
   the terms of the GNU Lesser General Public License as published by
   the Free Software Foundation, either version 3 of the License, or
   (at your option) any later version.
   
   xtb is distributed in the hope that it will be useful,
   but WITHOUT ANY WARRANTY; without even the implied warranty of
   MERCHANTABILITY or FITNESS FOR A PARTICULAR PURPOSE.  See the
   GNU Lesser General Public License for more details.
   
   Cite this work as:
   * C. Bannwarth, E. Caldeweyher, S. Ehlert, A. Hansen, P. Pracht,
     J. Seibert, S. Spicher, S. Grimme, WIREs Comput. Mol. Sci., 2020, 11,
     e01493. DOI: 10.1002/wcms.1493
   
   for GFN2-xTB:
   * C. Bannwarth, S. Ehlert and S. Grimme., J. Chem. Theory Comput., 2019,
     15, 1652-1671. DOI: 10.1021/acs.jctc.8b01176
   for GFN1-xTB:
   * S. Grimme, C. Bannwarth, P. Shushkov, J. Chem. Theory Comput., 2017,
     13, 1989-2009. DOI: 10.1021/acs.jctc.7b00118
   for GFN0-xTB:
   * P. Pracht, E. Caldeweyher, S. Ehlert, S. Grimme, ChemRxiv, 2019, preprint.
     DOI: 10.26434/chemrxiv.8326202.v1
   for GFN-FF:
   * S. Spicher and S. Grimme, Angew. Chem. Int. Ed., 2020, 59, 15665-15673.
     DOI: 10.1002/anie.202004239
   
   for ALPB and GBSA implicit solvation:
   * S. Ehlert, M. Stahn, S. Spicher, S. Grimme, J. Chem. Theory Comput.,
     2021, 17, 4250-4261. DOI: 10.1021/acs.jctc.1c00471
   
   for ddCOSMO and CPCM-X implicit solvation:
   * M. Stahn, S. Ehlert, S. Grimme, J. Phys. Chem. A,
     2023, XX, XXXX-XXXX. DOI: 10.1021/acs.jpca.3c04382
   
   for DFT-D4:
   * E. Caldeweyher, C. Bannwarth and S. Grimme, J. Chem. Phys., 2017,
     147, 034112. DOI: 10.1063/1.4993215
   * E. Caldeweyher, S. Ehlert, A. Hansen, H. Neugebauer, S. Spicher,
     C. Bannwarth and S. Grimme, J. Chem. Phys., 2019, 150, 154122.
     DOI: 10.1063/1.5090222
   * E. Caldeweyher, J.-M. Mewes, S. Ehlert and S. Grimme, Phys. Chem. Chem. Phys.
     2020, 22, 8499-8512. DOI: 10.1039/D0CP00502A
   
   for sTDA-xTB:
   * S. Grimme and C. Bannwarth, J. Chem. Phys., 2016, 145, 054103.
     DOI: 10.1063/1.4959605
   
   in the mass-spec context:
   * V. Asgeirsson, C. Bauer and S. Grimme, Chem. Sci., 2017, 8, 4879.
     DOI: 10.1039/c7sc00601b
   * J. Koopman and S. Grimme, ACS Omega 2019, 4, 12, 15120-15133.
     DOI: 10.1021/acsomega.9b02011
   
   for metadynamics refer to:
   * S. Grimme, J. Chem. Theory Comput., 2019, 155, 2847-2862
     DOI: 10.1021/acs.jctc.9b00143
   
   for SPH calculations refer to:
   * S. Spicher and S. Grimme, J. Chem. Theory Comput., 2021, 17, 1701-1714
     DOI: 10.1021/acs.jctc.0c01306
   
   for ONIOM refer to:
   * C. Plett, A. Katbashev, S. Ehlert, S. Grimme, M. Bursch,
     Phys. Chem. Chem. Phys., 2023, 25, 17860-17868. DOI: 10.1039/D3CP02178E
   
   for DIPRO refer to:
   * J. Kohn, N. Gildemeister, S. Grimme, D. Fazzi, A. Hansen,
     J. Chem. Phys., 2023, just accepted.
   
   for PTB refer to:
   * S. Grimme, M. Mueller, A. Hansen, J. Chem. Phys., 2023, 158, 124111.
     DOI: 10.1063/5.0137838
   
   with help from (in alphabetical order)
   P. Atkinson, C. Bannwarth, F. Bohle, G. Brandenburg, E. Caldeweyher
   M. Checinski, S. Dohm, S. Ehlert, S. Ehrlich, I. Gerasimov, C. Hölzer
   A. Katbashev, J. Kohn, J. Koopman, C. Lavigne, S. Lehtola, F. März, M. Müller,
   F. Musil, H. Neugebauer, J. Pisarek, C. Plett, P. Pracht, F. Pultar,
   J. Seibert, P. Shushkov, S. Spicher, M. Stahn, M. Steiner, T. Strunk,
   J. Stückrath, T. Rose, and J. Unsleber
   
 * started run on 2025/04/03 at 20:27:11.444     
   ID    Z sym.   atoms
    1    6 C      1-14
    2    1 H      15-26

           -------------------------------------------------
          |                Calculation Setup                |
           -------------------------------------------------

          program call               : /srv/scratch/z5358697/.xtb/bin/xtb xtb_rrho.coord --gfn2 --ohess vtight --chrg 0 --enso --norestart -I rrho-xcontrol-inp --parallel 1 --alpb water
          hostname                   : k143
          coordinate file            : xtb_rrho.coord
          omp threads                :                     1


           -------------------------------------------------
          |                 G F N 2 - x T B                 |
           -------------------------------------------------

        Reference                      10.1021/acs.jctc.8b01176
      * Hamiltonian:
        H0-scaling (s, p, d)           1.850000    2.230000    2.230000
        zeta-weighting                 0.500000
      * Dispersion:
        s8                             2.700000
        a1                             0.520000
        a2                             5.000000
        s9                             5.000000
      * Repulsion:
        kExp                           1.500000    1.000000
        rExp                           1.000000
      * Coulomb:
        alpha                          2.000000
        third order                    shell-resolved
        anisotropic                    true
        a3                             3.000000
        a5                             4.000000
        cn-shift                       1.200000
        cn-exp                         4.000000
        max-rad                        5.000000

      * Solvation model:               ALPB
        Solvent                        water
        Parameter file                 internal GFN2-xTB/ALPB
        Dielectric constant                8.0200E+01
        Reference state                gsolv [1 M gas/solution]
        Free energy shift                  1.0808E-03 Eh       6.7819E-01 kcal/mol
        Temperature                        2.9815E+02 K
        Density                            1.0000E+00 kg/L
        Solvent mass                       1.8000E+01 g/mol
        Interaction kernel             P16
        Born radius scaling (c1)           1.4744E+00
        Born radii integrator          GBOBC
        Born offset                        0.0000E+00 a0       0.0000E+00 AA
        H-bond correction              true
        Ion screening                  false
        Surface tension                    1.0000E-05 Eh       1.5569E+01 dyn/cm
        Grid points                               974 per atom

          ...................................................
          :                      SETUP                      :
          :.................................................:
          :  # basis functions                  68          :
          :  # atomic orbitals                  68          :
          :  # shells                           40          :
          :  # electrons                        68          :
          :  max. iterations                   250          :
          :  Hamiltonian                  GFN2-xTB          :
          :  restarted?                      false          :
          :  GBSA solvation                   true          :
          :  PC potential                    false          :
          :  electronic temp.          300.0000000     K    :
          :  accuracy                    1.0000000          :
          :  -> integral cutoff          0.2500000E+02      :
          :  -> integral neglect         0.1000000E-07      :
          :  -> SCF convergence          0.1000000E-05 Eh   :
          :  -> wf. convergence          0.1000000E-03 e    :
          :  Broyden damping             0.4000000          :
          :  net charge                          0          :
          :  unpaired electrons                  0          :
          ...................................................

 iter      E             dE          RMSdq      gap      omega  full diag
   1    -36.7474243 -0.367474E+02  0.413E+00    4.43       0.0  T
   2    -36.7544039 -0.697961E-02  0.245E+00    4.41       1.0  T
   3    -36.7546070 -0.203072E-03  0.308E-01    4.36       1.0  T
   4    -36.7552721 -0.665149E-03  0.133E-01    4.37       1.0  T
   5    -36.7556322 -0.360068E-03  0.358E-02    4.39       1.0  T
   6    -36.7556399 -0.775559E-05  0.186E-02    4.38       1.1  T
   7    -36.7556408 -0.878120E-06  0.362E-03    4.38       5.4  T
   8    -36.7556410 -0.196165E-06  0.684E-04    4.38      28.7  T
   9    -36.7556410 -0.293674E-09  0.297E-04    4.38      66.0  T

   *** convergence criteria satisfied after 9 iterations ***

         #    Occupation            Energy/Eh            Energy/eV
      -------------------------------------------------------------
         1        2.0000           -0.6442473             -17.5309
       ...           ...                  ...                  ...
        28        2.0000           -0.4213311             -11.4650
        29        2.0000           -0.4123123             -11.2196
        30        2.0000           -0.4105475             -11.1716
        31        2.0000           -0.3943248             -10.7301
        32        2.0000           -0.3906930             -10.6313
        33        2.0000           -0.3901582             -10.6167
        34        2.0000           -0.3808019             -10.3621 (HOMO)
        35                         -0.2197851              -5.9807 (LUMO)
        36                         -0.2169871              -5.9045
        37                         -0.2160708              -5.8796
        38                         -0.2159619              -5.8766
        39                         -0.0964527              -2.6246
       ...                                ...                  ...
        68                          0.6556103              17.8401
      -------------------------------------------------------------
                  HL-Gap            0.1610169 Eh            4.3815 eV
             Fermi-level           -0.3002935 Eh           -8.1714 eV

 SCC (total)                   0 d,  0 h,  0 min,  0.032 sec
 SCC setup                      ...        0 min,  0.001 sec (  4.480%)
 Dispersion                     ...        0 min,  0.000 sec (  0.568%)
 classical contributions        ...        0 min,  0.000 sec (  0.092%)
 integral evaluation            ...        0 min,  0.003 sec (  8.450%)
 iterations                     ...        0 min,  0.020 sec ( 62.930%)
 molecular gradient             ...        0 min,  0.007 sec ( 23.072%)
 printout                       ...        0 min,  0.000 sec (  0.374%)

         :::::::::::::::::::::::::::::::::::::::::::::::::::::
         ::                     SUMMARY                     ::
         :::::::::::::::::::::::::::::::::::::::::::::::::::::
         :: total energy             -36.101116613777 Eh    ::
         :: total w/o Gsasa/hb       -36.099223676365 Eh    ::
         :: gradient norm              0.021085215107 Eh/a0 ::
         :: HOMO-LUMO gap              4.381492332140 eV    ::
         ::.................................................::
         :: SCC energy               -36.755522323624 Eh    ::
         :: -> isotropic ES            0.003623450912 Eh    ::
         :: -> anisotropic ES          0.005317087105 Eh    ::
         :: -> anisotropic XC          0.022954255543 Eh    ::
         :: -> dispersion             -0.026591250853 Eh    ::
         :: -> Gsolv                  -0.002650392759 Eh    ::
         ::    -> Gelec               -0.000757455346 Eh    ::
         ::    -> Gsasa               -0.002342228072 Eh    ::
         ::    -> Ghb                 -0.000631469039 Eh    ::
         ::    -> Gshift               0.001080759698 Eh    ::
         :: repulsion energy           0.654405709846 Eh    ::
         :: add. restraining           0.000000000000 Eh    ::
         :: total charge              -0.000000000000 e     ::
         :::::::::::::::::::::::::::::::::::::::::::::::::::::

      ----------------------------------------------------------- 
     |                   =====================                   |
     |                        A N C O P T                        |
     |                   =====================                   |
     |               Approximate Normal Coordinate               |
     |                Rational Function Optimizer                |
      ----------------------------------------------------------- 
      ----------------------------------------------------------- 
     |                   =====================                   |
     |                        A N C O P T                        |
     |                   =====================                   |
     |               Approximate Normal Coordinate               |
     |                Rational Function Optimizer                |
      ----------------------------------------------------------- 

          ...................................................
          :                      SETUP                      :
          :.................................................:
          :   optimization level         verytight          :
          :   max. optcycles                   520          :
          :   ANC micro-cycles                  20          :
          :   degrees of freedom                72          :
          :.................................................:
          :   RF solver                   davidson          :
          :   write xtbopt.log                true          :
          :   linear?                        false          :
          :   energy convergence         0.1000000E-06 Eh   :
          :   grad. convergence          0.2000000E-03 Eh/α :
          :   maxmium RF displ.          1.0000000          :
          :   Hlow (freq-cutoff)         0.1000000E-01      :
          :   Hmax (freq-cutoff)         5.0000000          :
          :   S6 in model hess.         20.0000000          :
          ...................................................

generating ANC from exact Hessian ...
Using Lindh-Hessian (1995)
 Shifting diagonal of input Hessian by   8.294899568676359E-003
 Lowest  eigenvalues of input Hessian
    0.000000    0.000000    0.000000    0.000000    0.000000    0.000000
    0.010000    0.010952    0.013777    0.017272    0.020199    0.022821
    0.024285    0.028486    0.028503    0.029041    0.038038    0.038862
 Highest eigenvalues
    1.836105    1.848158    1.927967    1.942879    1.948442    1.973874
 

........................................................................
.............................. CYCLE    1 ..............................
........................................................................

 iter      E             dE          RMSdq      gap      omega  full diag
   1    -36.7556410 -0.367556E+02  0.413E-05    4.38       0.0  T
   2    -36.7556410 -0.123634E-11  0.264E-05    4.38     743.6  T
   3    -36.7556410  0.696332E-12  0.101E-05    4.38    1942.1  T
     SCC iter.                  ...        0 min,  0.002 sec
     gradient                   ...        0 min,  0.007 sec
 * total energy  :   -36.1011166 Eh     change       -0.1358700E-09 Eh
   gradient norm :     0.0210845 Eh/α   predicted     0.0000000E+00 (-100.00%)
   displ. norm   :     0.1423191 α      lambda       -0.2137714E-02
   maximum displ.:     0.0768191 α      in ANC's #12, #15, #32, ...

........................................................................
.............................. CYCLE    2 ..............................
........................................................................

 iter      E             dE          RMSdq      gap      omega  full diag
   1    -36.7832428 -0.367832E+02  0.102E-01    4.45       0.0  T
   2    -36.7832458 -0.296221E-05  0.611E-02    4.45       1.0  T
   3    -36.7832433  0.252802E-05  0.115E-02    4.45       1.7  T
   4    -36.7832464 -0.312448E-05  0.215E-03    4.45       9.1  T
   5    -36.7832465 -0.668239E-07  0.999E-04    4.45      19.6  T
   6    -36.7832465 -0.462939E-08  0.302E-04    4.45      64.9  T
     SCC iter.                  ...        0 min,  0.004 sec
     gradient                   ...        0 min,  0.007 sec
 * total energy  :   -36.1023918 Eh     change       -0.1275207E-02 Eh
   gradient norm :     0.0040119 Eh/α   predicted    -0.1090508E-02 ( -14.48%)
   displ. norm   :     0.0508217 α      lambda       -0.1122135E-03
   maximum displ.:     0.0318925 α      in ANC's #1, #12, #15, ...

........................................................................
.............................. CYCLE    3 ..............................
........................................................................

 iter      E             dE          RMSdq      gap      omega  full diag
   1    -36.7898590 -0.367899E+02  0.301E-02    4.47       0.0  T
   2    -36.7898593 -0.318393E-06  0.180E-02    4.47       1.1  T
   3    -36.7898589  0.480688E-06  0.466E-03    4.47       4.2  T
   4    -36.7898594 -0.583129E-06  0.566E-04    4.47      34.7  T
   5    -36.7898594 -0.436945E-08  0.255E-04    4.47      76.9  T
     SCC iter.                  ...        0 min,  0.003 sec
     gradient                   ...        0 min,  0.007 sec
 * total energy  :   -36.1024521 Eh     change       -0.6030215E-04 Eh
   gradient norm :     0.0009065 Eh/α   predicted    -0.5636380E-04 (  -6.53%)
   displ. norm   :     0.0413589 α      lambda       -0.8009472E-05
   maximum displ.:     0.0393654 α      in ANC's #1, #5, #6, ...

........................................................................
.............................. CYCLE    4 ..............................
........................................................................

 iter      E             dE          RMSdq      gap      omega  full diag
   1    -36.7903873 -0.367904E+02  0.173E-02    4.47       0.0  T
   2    -36.7903874 -0.330771E-07  0.102E-02    4.47       1.9  T
   3    -36.7903873  0.563854E-07  0.151E-03    4.47      13.0  T
   4    -36.7903874 -0.694437E-07  0.216E-04    4.47      90.7  T
   5    -36.7903874 -0.300084E-09  0.118E-04    4.47     165.9  T
     SCC iter.                  ...        0 min,  0.003 sec
     gradient                   ...        0 min,  0.007 sec
 * total energy  :   -36.1024626 Eh     change       -0.1044333E-04 Eh
   gradient norm :     0.0004613 Eh/α   predicted    -0.4122149E-05 ( -60.53%)
   displ. norm   :     0.0440381 α      lambda       -0.7771075E-05
   maximum displ.:     0.0405281 α      in ANC's #1, #5, #6, ...

........................................................................
.............................. CYCLE    5 ..............................
........................................................................

 iter      E             dE          RMSdq      gap      omega  full diag
   1    -36.7898149 -0.367898E+02  0.157E-02    4.47       0.0  T
   2    -36.7898149 -0.103337E-07  0.918E-03    4.47       2.1  T
   3    -36.7898149 -0.691216E-10  0.451E-04    4.47      43.5  T
   4    -36.7898149 -0.409015E-08  0.163E-04    4.47     120.3  T
     SCC iter.                  ...        0 min,  0.002 sec
     gradient                   ...        0 min,  0.007 sec
 * total energy  :   -36.1024729 Eh     change       -0.1038001E-04 Eh
   gradient norm :     0.0007276 Eh/α   predicted    -0.3902349E-05 ( -62.41%)
   displ. norm   :     0.0528923 α      lambda       -0.8192736E-05
   maximum displ.:     0.0471740 α      in ANC's #1, #5, #6, ...

........................................................................
.............................. CYCLE    6 ..............................
........................................................................

 iter      E             dE          RMSdq      gap      omega  full diag
   1    -36.7896091 -0.367896E+02  0.172E-02    4.47       0.0  T
   2    -36.7896091 -0.130852E-07  0.101E-02    4.47       1.9  T
   3    -36.7896091 -0.249910E-08  0.408E-04    4.47      48.0  T
   4    -36.7896091 -0.232767E-08  0.180E-04    4.47     109.1  T
     SCC iter.                  ...        0 min,  0.002 sec
     gradient                   ...        0 min,  0.007 sec
 * total energy  :   -36.1024842 Eh     change       -0.1121571E-04 Eh
   gradient norm :     0.0006595 Eh/α   predicted    -0.4102699E-05 ( -63.42%)
   displ. norm   :     0.0580226 α      lambda       -0.8052804E-05
   maximum displ.:     0.0519513 α      in ANC's #1, #5, #6, ...

........................................................................
.............................. CYCLE    7 ..............................
........................................................................

 iter      E             dE          RMSdq      gap      omega  full diag
   1    -36.7896836 -0.367897E+02  0.195E-02    4.47       0.0  T
   2    -36.7896837 -0.177738E-07  0.114E-02    4.47       1.7  T
   3    -36.7896836  0.752114E-08  0.751E-04    4.47      26.1  T
   4    -36.7896837 -0.149264E-07  0.201E-04    4.47      97.7  T
     SCC iter.                  ...        0 min,  0.002 sec
     gradient                   ...        0 min,  0.007 sec
 * total energy  :   -36.1024949 Eh     change       -0.1076003E-04 Eh
   gradient norm :     0.0003344 Eh/α   predicted    -0.4034440E-05 ( -62.51%)
   displ. norm   :     0.0486562 α      lambda       -0.5763042E-05
   maximum displ.:     0.0454194 α      in ANC's #1, #5, #6, ...

........................................................................
.............................. CYCLE    8 ..............................
........................................................................

 iter      E             dE          RMSdq      gap      omega  full diag
   1    -36.7897428 -0.367897E+02  0.175E-02    4.48       0.0  T
   2    -36.7897428 -0.131934E-07  0.102E-02    4.48       1.9  T
   3    -36.7897428  0.716008E-08  0.693E-04    4.48      28.3  T
   4    -36.7897428 -0.130354E-07  0.178E-04    4.48     110.3  T
     SCC iter.                  ...        0 min,  0.002 sec
     gradient                   ...        0 min,  0.008 sec
 * total energy  :   -36.1025027 Eh     change       -0.7816918E-05 Eh
   gradient norm :     0.0002299 Eh/α   predicted    -0.2885849E-05 ( -63.08%)
   displ. norm   :     0.0348567 α      lambda       -0.3741103E-05
   maximum displ.:     0.0337717 α      in ANC's #1, #5, #6, ...

........................................................................
.............................. CYCLE    9 ..............................
........................................................................

 iter      E             dE          RMSdq      gap      omega  full diag
   1    -36.7898302 -0.367898E+02  0.139E-02    4.48       0.0  T
   2    -36.7898303 -0.724628E-08  0.812E-03    4.48       2.4  T
   3    -36.7898303  0.302499E-08  0.483E-04    4.48      40.6  T
   4    -36.7898303 -0.615549E-08  0.124E-04    4.48     158.2  T
     SCC iter.                  ...        0 min,  0.003 sec
     gradient                   ...        0 min,  0.008 sec
 * total energy  :   -36.1025080 Eh     change       -0.5238789E-05 Eh
   gradient norm :     0.0002813 Eh/α   predicted    -0.1875837E-05 ( -64.19%)
   displ. norm   :     0.0262933 α      lambda       -0.2701118E-05
   maximum displ.:     0.0259934 α      in ANC's #1, #5, #2, ...

........................................................................
.............................. CYCLE   10 ..............................
........................................................................

 iter      E             dE          RMSdq      gap      omega  full diag
   1    -36.7898634 -0.367899E+02  0.110E-02    4.48       0.0  T
   2    -36.7898634 -0.495089E-08  0.644E-03    4.48       3.0  T
   3    -36.7898634  0.141998E-08  0.380E-04    4.48      51.6  T
   4    -36.7898634 -0.354374E-08  0.119E-04    4.48     165.1  T
     SCC iter.                  ...        0 min,  0.003 sec
     gradient                   ...        0 min,  0.008 sec
 * total energy  :   -36.1025118 Eh     change       -0.3810443E-05 Eh
   gradient norm :     0.0002415 Eh/α   predicted    -0.1354128E-05 ( -64.46%)
   displ. norm   :     0.0224671 α      lambda       -0.2135921E-05
   maximum displ.:     0.0222632 α      in ANC's #1, #2, #5, ...

........................................................................
.............................. CYCLE   11 ..............................
........................................................................

 iter      E             dE          RMSdq      gap      omega  full diag
   1    -36.7898809 -0.367899E+02  0.980E-03    4.48       0.0  T
   2    -36.7898809 -0.371792E-08  0.574E-03    4.48       3.4  T
   3    -36.7898809  0.160502E-08  0.350E-04    4.48      56.0  T
   4    -36.7898809 -0.321023E-08  0.961E-05    4.48     204.1  T
     SCC iter.                  ...        0 min,  0.003 sec
     gradient                   ...        0 min,  0.008 sec
 * total energy  :   -36.1025148 Eh     change       -0.2982479E-05 Eh
   gradient norm :     0.0001704 Eh/α   predicted    -0.1069348E-05 ( -64.15%)
   displ. norm   :     0.0200280 α      lambda       -0.1664878E-05
   maximum displ.:     0.0198691 α      in ANC's #1, #5, #2, ...

........................................................................
.............................. CYCLE   12 ..............................
........................................................................

 iter      E             dE          RMSdq      gap      omega  full diag
   1    -36.7898875 -0.367899E+02  0.854E-03    4.48       0.0  T
   2    -36.7898875 -0.292907E-08  0.500E-03    4.48       3.9  T
   3    -36.7898875  0.375934E-09  0.265E-04    4.48      74.1  T
   4    -36.7898875 -0.157114E-08  0.916E-05    4.48     214.1  T
     SCC iter.                  ...        0 min,  0.003 sec
     gradient                   ...        0 min,  0.008 sec
 * total energy  :   -36.1025171 Eh     change       -0.2355274E-05 Eh
   gradient norm :     0.0001310 Eh/α   predicted    -0.8431872E-06 ( -64.20%)
   displ. norm   :     0.0180323 α      lambda       -0.1346458E-05
   maximum displ.:     0.0177872 α      in ANC's #1, #5, #6, ...

........................................................................
.............................. CYCLE   13 ..............................
........................................................................

 iter      E             dE          RMSdq      gap      omega  full diag
   1    -36.7898853 -0.367899E+02  0.746E-03    4.48       0.0  T
   2    -36.7898853 -0.224446E-08  0.437E-03    4.48       4.5  T
   3    -36.7898853  0.830205E-09  0.264E-04    4.48      74.4  T
   4    -36.7898853 -0.177752E-08  0.757E-05    4.48     259.1  T
     SCC iter.                  ...        0 min,  0.003 sec
     gradient                   ...        0 min,  0.008 sec
 * total energy  :   -36.1025190 Eh     change       -0.1890845E-05 Eh
   gradient norm :     0.0001490 Eh/α   predicted    -0.6738890E-06 ( -64.36%)
   displ. norm   :     0.0174066 α      lambda       -0.1199465E-05
   maximum displ.:     0.0169338 α      in ANC's #1, #5, #6, ...

........................................................................
.............................. CYCLE   14 ..............................
........................................................................

 iter      E             dE          RMSdq      gap      omega  full diag
   1    -36.7899018 -0.367899E+02  0.696E-03    4.48       0.0  T
   2    -36.7899018 -0.191230E-08  0.408E-03    4.48       4.8  T
   3    -36.7899018  0.863871E-09  0.252E-04    4.48      77.7  T
   4    -36.7899018 -0.168232E-08  0.677E-05    4.48     289.8  T
     SCC iter.                  ...        0 min,  0.003 sec
     gradient                   ...        0 min,  0.009 sec
 * total energy  :   -36.1025207 Eh     change       -0.1681376E-05 Eh
   gradient norm :     0.0001579 Eh/α   predicted    -0.6001902E-06 ( -64.30%)
   displ. norm   :     0.0174806 α      lambda       -0.1100932E-05
   maximum displ.:     0.0167148 α      in ANC's #1, #5, #6, ...

........................................................................
.............................. CYCLE   15 ..............................
........................................................................

 iter      E             dE          RMSdq      gap      omega  full diag
   1    -36.7899187 -0.367899E+02  0.665E-03    4.48       0.0  T
   2    -36.7899187 -0.180847E-08  0.389E-03    4.48       5.0  T
   3    -36.7899187  0.882437E-09  0.250E-04    4.48      78.4  T
   4    -36.7899187 -0.165984E-08  0.643E-05    4.48     304.8  T
     SCC iter.                  ...        0 min,  0.003 sec
     gradient                   ...        0 min,  0.008 sec
 * total energy  :   -36.1025222 Eh     change       -0.1539156E-05 Eh
   gradient norm :     0.0001445 Eh/α   predicted    -0.5515447E-06 ( -64.17%)
   displ. norm   :     0.0179858 α      lambda       -0.1038049E-05
   maximum displ.:     0.0169630 α      in ANC's #1, #5, #6, ...

........................................................................
.............................. CYCLE   16 ..............................
........................................................................

 iter      E             dE          RMSdq      gap      omega  full diag
   1    -36.7899195 -0.367899E+02  0.668E-03    4.48       0.0  T
   2    -36.7899195 -0.182207E-08  0.391E-03    4.48       5.0  T
   3    -36.7899195  0.981636E-09  0.256E-04    4.48      76.6  T
   4    -36.7899195 -0.178198E-08  0.638E-05    4.48     307.6  T
     SCC iter.                  ...        0 min,  0.003 sec
     gradient                   ...        0 min,  0.008 sec
 * total energy  :   -36.1025236 Eh     change       -0.1408880E-05 Eh
   gradient norm :     0.0001125 Eh/α   predicted    -0.5197645E-06 ( -63.11%)
   displ. norm   :     0.0172274 α      lambda       -0.8825129E-06
   maximum displ.:     0.0162467 α      in ANC's #1, #5, #6, ...

........................................................................
.............................. CYCLE   17 ..............................
........................................................................

 iter      E             dE          RMSdq      gap      omega  full diag
   1    -36.7899259 -0.367899E+02  0.633E-03    4.48       0.0  T
   2    -36.7899259 -0.173976E-08  0.371E-03    4.48       5.3  T
   3    -36.7899259  0.704432E-09  0.238E-04    4.48      82.4  T
   4    -36.7899259 -0.143449E-08  0.660E-05    4.48     297.1  T
     SCC iter.                  ...        0 min,  0.003 sec
     gradient                   ...        0 min,  0.008 sec
 * total energy  :   -36.1025249 Eh     change       -0.1206624E-05 Eh
   gradient norm :     0.0001077 Eh/α   predicted    -0.4418766E-06 ( -63.38%)
   displ. norm   :     0.0152519 α      lambda       -0.7034160E-06
   maximum displ.:     0.0145226 α      in ANC's #1, #5, #6, ...

........................................................................
.............................. CYCLE   18 ..............................
........................................................................

 iter      E             dE          RMSdq      gap      omega  full diag
   1    -36.7899264 -0.367899E+02  0.582E-03    4.48       0.0  T
   2    -36.7899264 -0.135289E-08  0.341E-03    4.48       5.8  T
   3    -36.7899264  0.765539E-09  0.224E-04    4.48      87.4  T
   4    -36.7899264 -0.136293E-08  0.547E-05    4.48     358.6  T
     SCC iter.                  ...        0 min,  0.003 sec
     gradient                   ...        0 min,  0.008 sec
 * total energy  :   -36.1025258 Eh     change       -0.9581361E-06 Eh
   gradient norm :     0.0000981 Eh/α   predicted    -0.3527028E-06 ( -63.19%)
   displ. norm   :     0.0127073 α      lambda       -0.5247557E-06
   maximum displ.:     0.0122442 α      in ANC's #1, #5, #6, ...

........................................................................
.............................. CYCLE   19 ..............................
........................................................................

 iter      E             dE          RMSdq      gap      omega  full diag
   1    -36.7899341 -0.367899E+02  0.498E-03    4.48       0.0  T
   2    -36.7899341 -0.973657E-09  0.291E-03    4.48       6.7  T
   3    -36.7899341  0.498439E-09  0.186E-04    4.48     105.6  T
   4    -36.7899341 -0.923372E-09  0.466E-05    4.48     420.5  T
     SCC iter.                  ...        0 min,  0.003 sec
     gradient                   ...        0 min,  0.008 sec
 * total energy  :   -36.1025265 Eh     change       -0.7279014E-06 Eh
   gradient norm :     0.0000937 Eh/α   predicted    -0.2631777E-06 ( -63.84%)
   displ. norm   :     0.0104975 α      lambda       -0.3993357E-06
   maximum displ.:     0.0102528 α      in ANC's #1, #5, #6, ...

........................................................................
.............................. CYCLE   20 ..............................
........................................................................

 iter      E             dE          RMSdq      gap      omega  full diag
   1    -36.7899409 -0.367899E+02  0.422E-03    4.48       0.0  T
   2    -36.7899409 -0.740641E-09  0.247E-03    4.48       7.9  T
   3    -36.7899409  0.305235E-09  0.155E-04    4.48     126.7  T
   4    -36.7899409 -0.615877E-09  0.433E-05    4.48     453.4  T
     SCC iter.                  ...        0 min,  0.003 sec
     gradient                   ...        0 min,  0.008 sec
 * total energy  :   -36.1025271 Eh     change       -0.5533442E-06 Eh
   gradient norm :     0.0000787 Eh/α   predicted    -0.2001616E-06 ( -63.83%)
   displ. norm   :     0.0091101 α      lambda       -0.3095268E-06
   maximum displ.:     0.0089501 α      in ANC's #1, #5, #6, ...
 * RMSD in coord.:     0.1105223 α      energy gain  -0.1410478E-02 Eh

generating ANC from exact Hessian ...
Using Lindh-Hessian (1995)
 Shifting diagonal of input Hessian by   8.202517388546396E-003
 Lowest  eigenvalues of input Hessian
    0.000000    0.000000    0.000000    0.000000    0.000000    0.000000
    0.010000    0.011043    0.013928    0.017858    0.021067    0.023664
    0.025642    0.029956    0.030018    0.030559    0.039335    0.040868
 Highest eigenvalues
    1.885790    1.897531    1.988989    2.004398    2.010300    2.033222
 

........................................................................
.............................. CYCLE   21 ..............................
........................................................................

 iter      E             dE          RMSdq      gap      omega  full diag
   1    -36.7899432 -0.367899E+02  0.377E-03    4.48       0.0  T
   2    -36.7899432 -0.563425E-09  0.221E-03    4.48       8.9  T
   3    -36.7899432  0.255760E-09  0.141E-04    4.48     139.5  T
   4    -36.7899432 -0.499739E-09  0.380E-05    4.48     515.8  T
     SCC iter.                  ...        0 min,  0.003 sec
     gradient                   ...        0 min,  0.008 sec
 * total energy  :   -36.1025275 Eh     change       -0.4367815E-06 Eh
   gradient norm :     0.0000773 Eh/α   predicted     0.0000000E+00 (-100.00%)
   displ. norm   :     0.0070513 α      lambda       -0.1074907E-07
   maximum displ.:     0.0070199 α      in ANC's #1, #43, #17, ...

........................................................................
.............................. CYCLE   22 ..............................
........................................................................

 iter      E             dE          RMSdq      gap      omega  full diag
   1    -36.7899490 -0.367899E+02  0.331E-03    4.48       0.0  T
   2    -36.7899490 -0.383992E-09  0.195E-03    4.48      10.1  T
   3    -36.7899490  0.101124E-09  0.111E-04    4.48     176.9  T
   4    -36.7899490 -0.274696E-09  0.348E-05    4.48     562.8  T
     SCC iter.                  ...        0 min,  0.003 sec
     gradient                   ...        0 min,  0.008 sec
 * total energy  :   -36.1025278 Eh     change       -0.3098393E-06 Eh
   gradient norm :     0.0000836 Eh/α   predicted    -0.1193089E-06 ( -61.49%)
   displ. norm   :     0.0062158 α      lambda       -0.1602403E-06
   maximum displ.:     0.0061753 α      in ANC's #1, #5, #20, ...

........................................................................
.............................. CYCLE   23 ..............................
........................................................................

 iter      E             dE          RMSdq      gap      omega  full diag
   1    -36.7899513 -0.367900E+02  0.273E-03    4.48       0.0  T
   2    -36.7899513 -0.270298E-09  0.160E-03    4.48      12.3  T
   3    -36.7899513  0.216431E-10  0.781E-05    4.48     251.0  T
   4    -36.7899513 -0.136374E-09  0.277E-05    4.48     707.5  T
     SCC iter.                  ...        0 min,  0.003 sec
     gradient                   ...        0 min,  0.008 sec
 * total energy  :   -36.1025281 Eh     change       -0.2444922E-06 Eh
   gradient norm :     0.0000639 Eh/α   predicted    -0.9167199E-07 ( -62.51%)
   displ. norm   :     0.0063068 α      lambda       -0.1614734E-06
   maximum displ.:     0.0061105 α      in ANC's #1, #5, #6, ...

........................................................................
.............................. CYCLE   24 ..............................
........................................................................

 iter      E             dE          RMSdq      gap      omega  full diag
   1    -36.7899525 -0.367900E+02  0.251E-03    4.48       0.0  T
   2    -36.7899525 -0.254438E-09  0.147E-03    4.48      13.3  T
   3    -36.7899525  0.102453E-09  0.959E-05    4.48     204.6  T
   4    -36.7899525 -0.209575E-09  0.261E-05    4.48     750.7  T
     SCC iter.                  ...        0 min,  0.003 sec
     gradient                   ...        0 min,  0.008 sec
 * total energy  :   -36.1025283 Eh     change       -0.2302098E-06 Eh
   gradient norm :     0.0000640 Eh/α   predicted    -0.8528793E-07 ( -62.95%)
   displ. norm   :     0.0069954 α      lambda       -0.1643043E-06
   maximum displ.:     0.0065520 α      in ANC's #1, #5, #6, ...

........................................................................
.............................. CYCLE   25 ..............................
........................................................................

 iter      E             dE          RMSdq      gap      omega  full diag
   1    -36.7899544 -0.367900E+02  0.256E-03    4.48       0.0  T
   2    -36.7899544 -0.269466E-09  0.150E-03    4.48      13.1  T
   3    -36.7899544  0.930527E-10  0.892E-05    4.48     219.9  T
   4    -36.7899544 -0.204082E-09  0.250E-05    4.48     784.1  T
     SCC iter.                  ...        0 min,  0.003 sec
     gradient                   ...        0 min,  0.008 sec
 * total energy  :   -36.1025285 Eh     change       -0.2316223E-06 Eh
   gradient norm :     0.0000643 Eh/α   predicted    -0.8494547E-07 ( -63.33%)
   displ. norm   :     0.0079668 α      lambda       -0.1815238E-06
   maximum displ.:     0.0072585 α      in ANC's #1, #5, #6, ...

........................................................................
.............................. CYCLE   26 ..............................
........................................................................

 iter      E             dE          RMSdq      gap      omega  full diag
   1    -36.7899580 -0.367900E+02  0.290E-03    4.48       0.0  T
   2    -36.7899580 -0.376396E-09  0.170E-03    4.48      11.5  T
   3    -36.7899580  0.338773E-09  0.138E-04    4.48     142.1  T
   4    -36.7899580 -0.510390E-09  0.290E-05    4.48     675.2  T
     SCC iter.                  ...        0 min,  0.003 sec
     gradient                   ...        0 min,  0.008 sec
 * total energy  :   -36.1025288 Eh     change       -0.2235799E-06 Eh
   gradient norm :     0.0000775 Eh/α   predicted    -0.9407683E-07 ( -57.92%)
   displ. norm   :     0.0074899 α      lambda       -0.1502819E-06
   maximum displ.:     0.0068329 α      in ANC's #1, #5, #6, ...

........................................................................
.............................. CYCLE   27 ..............................
........................................................................

 iter      E             dE          RMSdq      gap      omega  full diag
   1    -36.7899610 -0.367900E+02  0.269E-03    4.48       0.0  T
   2    -36.7899610 -0.346219E-09  0.158E-03    4.48      12.4  T
   3    -36.7899610  0.336662E-09  0.134E-04    4.48     146.0  T
   4    -36.7899610 -0.497664E-09  0.282E-05    4.48     695.9  T
     SCC iter.                  ...        0 min,  0.003 sec
     gradient                   ...        0 min,  0.008 sec
 * total energy  :   -36.1025290 Eh     change       -0.1916775E-06 Eh
   gradient norm :     0.0000668 Eh/α   predicted    -0.7699923E-07 ( -59.83%)
   displ. norm   :     0.0062003 α      lambda       -0.1057215E-06
   maximum displ.:     0.0058338 α      in ANC's #1, #5, #6, ...

........................................................................
.............................. CYCLE   28 ..............................
........................................................................

 iter      E             dE          RMSdq      gap      omega  full diag
   1    -36.7899628 -0.367900E+02  0.230E-03    4.48       0.0  T
   2    -36.7899628 -0.234820E-09  0.135E-03    4.48      14.6  T
   3    -36.7899628  0.192905E-09  0.105E-04    4.48     187.3  T
   4    -36.7899628 -0.297810E-09  0.230E-05    4.48     853.6  T
     SCC iter.                  ...        0 min,  0.003 sec
     gradient                   ...        0 min,  0.008 sec
 * total energy  :   -36.1025291 Eh     change       -0.1439211E-06 Eh
   gradient norm :     0.0000435 Eh/α   predicted    -0.5361150E-07 ( -62.75%)
   displ. norm   :     0.0048472 α      lambda       -0.7105297E-07
   maximum displ.:     0.0047078 α      in ANC's #1, #5, #6, ...

........................................................................
.............................. CYCLE   29 ..............................
........................................................................

 iter      E             dE          RMSdq      gap      omega  full diag
   1    -36.7899640 -0.367900E+02  0.196E-03    4.48       0.0  T
   2    -36.7899640 -0.147537E-09  0.115E-03    4.48      17.1  T
   3    -36.7899640  0.279172E-10  0.614E-05    4.48     319.3  T
   4    -36.7899640 -0.888392E-10  0.196E-05    4.48    1002.5  T
     SCC iter.                  ...        0 min,  0.003 sec
     gradient                   ...        0 min,  0.008 sec
 * total energy  :   -36.1025292 Eh     change       -0.1019737E-06 Eh
   gradient norm :     0.0000506 Eh/α   predicted    -0.3874102E-07 ( -62.01%)
   displ. norm   :     0.0037480 α      lambda       -0.4941844E-07
   maximum displ.:     0.0036959 α      in ANC's #1, #5, #6, ...

........................................................................
.............................. CYCLE   30 ..............................
........................................................................

 iter      E             dE          RMSdq      gap      omega  full diag
   1    -36.7899656 -0.367900E+02  0.163E-03    4.48       0.0  T
   2    -36.7899656 -0.950493E-10  0.955E-04    4.48      20.5  T
   3    -36.7899656  0.126832E-10  0.484E-05    4.48     405.3  T
     SCC iter.                  ...        0 min,  0.002 sec
     gradient                   ...        0 min,  0.008 sec
 * total energy  :   -36.1025293 Eh     change       -0.7466401E-07 Eh
   gradient norm :     0.0000324 Eh/α   predicted    -0.2770287E-07 ( -62.90%)
   displ. norm   :     0.0031972 α      lambda       -0.3992611E-07
   maximum displ.:     0.0031433 α      in ANC's #1, #2, #3, ...

   *** GEOMETRY OPTIMIZATION CONVERGED AFTER 30 ITERATIONS ***

------------------------------------------------------------------------
 total energy gain   :        -0.0014127 Eh       -0.8865 kcal/mol
 total RMSD          :         0.1209893 a0        0.0640 Å
 total power (kW/mol):        -0.1236319 (step)   -7.9566 (real)
------------------------------------------------------------------------

 ANCopt (total)                0 d,  0 h,  0 min,  0.466 sec
 optimizer setup                ...        0 min,  0.000 sec (  0.067%)
 model hessian                  ...        0 min,  0.010 sec (  2.144%)
 ANC generation                 ...        0 min,  0.001 sec (  0.205%)
 coordinate transformation      ...        0 min,  0.000 sec (  0.037%)
 single point calculation       ...        0 min,  0.449 sec ( 96.357%)
 optimization log               ...        0 min,  0.003 sec (  0.723%)
 hessian update                 ...        0 min,  0.000 sec (  0.040%)
 rational function              ...        0 min,  0.001 sec (  0.210%)

================
 final structure:
================
$coord
        6.51404798902424        1.30853682739821       -1.13639715460292      C
        6.51449118055579       -1.30707234298835       -1.13605685518765      C
        4.41786557012195       -2.61437589804950       -0.27364353257418      C
        2.32267579744092       -1.31679805563836        0.60993774442363      C
        2.32227778556292        1.31729265927135        0.60971353271581      C
        4.41705204702291        2.61535772727814       -0.27415453498049      C
       -0.00028590741839        2.64473116947464        1.56205863914500      C
       -2.32270136089824        1.31674379605122        0.61012799662010      C
       -4.41797425058280        2.61435823990252       -0.27321107018919      C
       -6.51456468823525        1.30708155883720       -1.13574248523765      C
       -6.51405794182316       -1.30852739623637       -1.13635861334222      C
       -4.41698042325849       -2.61537500660104       -0.27434809839143      C
       -2.32224168965741       -1.31734683055177        0.60964829880533      C
        0.00031680929318       -2.64481475035036        1.56192637005852      C
        8.14344185073649        2.33221103607701       -1.81551722195303      H
        8.14424085640524       -2.33036283513227       -1.81489177509133      H
        4.41350107629824       -4.65644622434807       -0.28452992645546      H
        4.41203099804169        4.65741999073935       -0.28551697180564      H
       -0.00005827764675        2.56836288433784        3.63331935928420      H
       -0.00059993796093        4.62754340063272        1.00094546931205      H
       -4.41364568115448        4.65642568226551       -0.28396044884695      H
       -8.14437175031699        2.33039828076436       -1.81440956175850      H
       -8.14343088232221       -2.33217501551429       -1.81555814760839      H
       -4.41192408125020       -4.65743972790034       -0.28584790879225      H
        0.00014557328107       -2.56832692652985        3.63316899201290      H
        0.00061612665046       -4.62765456620418        1.00093075208293      H
$end
 
 Bond Distances (Angstroems)
 ---------------------------
C1-C2=1.3841         C1-C6=1.3849         C1-H15=1.0798        C2-C1=1.3841         C2-C3=1.3849         C2-H16=1.0798        
C3-C2=1.3849         C3-C4=1.3854         C3-H17=1.0806        C4-C3=1.3854         C4-C5=1.3939         C4-C14=1.5026        
C5-C4=1.3939         C5-C6=1.3854         C5-C7=1.5027         C6-C1=1.3849         C6-C5=1.3854         C6-H18=1.0806        
C7-C5=1.5027         C7-C8=1.5027         C7-H19=1.0968        C7-H20=1.0905        C8-C7=1.5027         C8-C9=1.3854         
C8-C13=1.3939        C9-C8=1.3854         C9-C10=1.3849        C9-H21=1.0806        C10-C9=1.3849        C10-C11=1.3841       
C10-H22=1.0798       C11-C10=1.3841       C11-C12=1.3849       C11-H23=1.0798       C12-C11=1.3849       C12-C13=1.3854       
C12-H24=1.0806       C13-C8=1.3939        C13-C12=1.3854       C13-C14=1.5026       C14-C4=1.5026        C14-C13=1.5026       
C14-H25=1.0968       C14-H26=1.0905       H15-C1=1.0798        H16-C2=1.0798        H17-C3=1.0806        H18-C6=1.0806        
H19-C7=1.0968        H20-C7=1.0905        H21-C9=1.0806        H22-C10=1.0798       H23-C11=1.0798       H24-C12=1.0806       
H25-C14=1.0968       H26-C14=1.0905       
 C  H  Rav=1.0847 sigma=0.0066  Rmin=1.0798  Rmax=1.0968    12
 C  C  Rav=1.4155 sigma=0.0504  Rmin=1.3841  Rmax=1.5027    16
 
 selected bond angles (degree)
 --------------------
C6-C1-C2=119.96                H15-C1-C2=120.10               H15-C1-C6=119.93               C3-C2-C1=119.96                
H16-C2-C1=120.10               H16-C2-C3=119.93               C4-C3-C2=120.32                H17-C3-C2=119.97               
H17-C3-C4=119.72               C5-C4-C3=119.72                C14-C4-C3=122.40               C14-C4-C5=117.88               
C6-C5-C4=119.72                C7-C5-C4=117.88                C7-C5-C6=122.40                C5-C6-C1=120.32                
H18-C6-C1=119.97               H18-C6-C5=119.72               C8-C7-C5=109.75                H19-C7-C5=108.53               
H19-C7-C8=108.53               H20-C7-C5=111.01               H20-C7-C8=111.01               H20-C7-H19=107.91              
C9-C8-C7=122.40                C13-C8-C7=117.88               C13-C8-C9=119.72               C10-C9-C8=120.32               
H21-C9-C8=119.72               H21-C9-C10=119.97              C11-C10-C9=119.96              H22-C10-C9=119.93              
H22-C10-C11=120.10             
 
 selected dihedral angles (degree)
 ---------------------------------
C3-C2-C1-C6=  0.00            C3-C2-C1-H15=180.27           H16-C2-C1-C6=179.74           H16-C2-C1-H15=  0.00          
C4-C3-C2-C1=359.48            C4-C3-C2-H16=179.74           H17-C3-C2-C1=179.61           H17-C3-C2-H16=359.87          
C5-C4-C3-C2=  0.52            C5-C4-C3-H17=180.39           C14-C4-C3-C2=179.91           C14-C4-C3-H17=359.78          
C6-C5-C4-C3=  0.00            C6-C5-C4-C14=180.59           C7-C5-C4-C3=179.43            C7-C5-C4-C14=  0.00           
C5-C6-C1-C2=  0.52            C5-C6-C1-H15=180.25           H18-C6-C1-C2=180.39           H18-C6-C1-H15=  0.13          
C1-C6-C5-C4=359.48            C1-C6-C5-C7=180.08            H18-C6-C5-C4=179.61           H18-C6-C5-C7=  0.21           
C8-C7-C5-C4=318.75            C8-C7-C5-C6=138.16            H19-C7-C5-C4= 77.21           H19-C7-C5-C6=256.62           
H20-C7-C5-C4=195.65           H20-C7-C5-C6= 15.06           C9-C8-C7-C5=221.84            C9-C8-C7-H19=103.38           
C9-C8-C7-H20=344.93           C13-C8-C7-C5= 41.23           C13-C8-C7-H19=282.77          C13-C8-C7-H20=164.33          
C10-C9-C8-C7=179.90           C10-C9-C8-C13=  0.51          H21-C9-C8-C7=359.78           H21-C9-C8-C13=180.39          
C11-C10-C9-C8=359.48          C11-C10-C9-H21=179.61         H22-C10-C9-C8=179.74          H22-C10-C9-H21=359.87         
           -------------------------------------------------
          |                Final Singlepoint                |
           -------------------------------------------------

          ...................................................
          :                      SETUP                      :
          :.................................................:
          :  # basis functions                  68          :
          :  # atomic orbitals                  68          :
          :  # shells                           40          :
          :  # electrons                        68          :
          :  max. iterations                   250          :
          :  Hamiltonian                  GFN2-xTB          :
          :  restarted?                      false          :
          :  GBSA solvation                   true          :
          :  PC potential                    false          :
          :  electronic temp.          300.0000000     K    :
          :  accuracy                    1.0000000          :
          :  -> integral cutoff          0.2500000E+02      :
          :  -> integral neglect         0.1000000E-07      :
          :  -> SCF convergence          0.1000000E-05 Eh   :
          :  -> wf. convergence          0.1000000E-03 e    :
          :  Broyden damping             0.4000000          :
          :  net charge                          0          :
          :  unpaired electrons                  0          :
          ...................................................

 iter      E             dE          RMSdq      gap      omega  full diag
   1    -36.7899656 -0.367900E+02  0.162E-05    4.48       0.0  T
   2    -36.7899656 -0.568434E-12  0.956E-06    4.48    2051.0  T
   3    -36.7899656  0.568434E-13  0.537E-06    4.48    3648.9  T

   *** convergence criteria satisfied after 3 iterations ***

         #    Occupation            Energy/Eh            Energy/eV
      -------------------------------------------------------------
         1        2.0000           -0.6468992             -17.6030
       ...           ...                  ...                  ...
        28        2.0000           -0.4209366             -11.4543
        29        2.0000           -0.4123395             -11.2203
        30        2.0000           -0.4105679             -11.1721
        31        2.0000           -0.3950543             -10.7500
        32        2.0000           -0.3920451             -10.6681
        33        2.0000           -0.3900068             -10.6126
        34        2.0000           -0.3829319             -10.4201 (HOMO)
        35                         -0.2181138              -5.9352 (LUMO)
        36                         -0.2159263              -5.8757
        37                         -0.2133895              -5.8066
        38                         -0.2128777              -5.7927
        39                         -0.0918278              -2.4988
       ...                                ...                  ...
        68                          0.6823263              18.5670
      -------------------------------------------------------------
                  HL-Gap            0.1648181 Eh            4.4849 eV
             Fermi-level           -0.3005228 Eh           -8.1776 eV

 SCC (total)                   0 d,  0 h,  0 min,  0.016 sec
 SCC setup                      ...        0 min,  0.002 sec ( 10.406%)
 Dispersion                     ...        0 min,  0.000 sec (  0.656%)
 classical contributions        ...        0 min,  0.000 sec (  0.180%)
 integral evaluation            ...        0 min,  0.003 sec ( 19.787%)
 iterations                     ...        0 min,  0.002 sec ( 16.008%)
 molecular gradient             ...        0 min,  0.008 sec ( 52.182%)
 printout                       ...        0 min,  0.000 sec (  0.688%)

         :::::::::::::::::::::::::::::::::::::::::::::::::::::
         ::                     SUMMARY                     ::
         :::::::::::::::::::::::::::::::::::::::::::::::::::::
         :: total energy             -36.102529280788 Eh    ::
         :: total w/o Gsasa/hb       -36.100650232432 Eh    ::
         :: gradient norm              0.000032500717 Eh/a0 ::
         :: HOMO-LUMO gap              4.484929944858 eV    ::
         ::.................................................::
         :: SCC energy               -36.789826033789 Eh    ::
         :: -> isotropic ES            0.003759837636 Eh    ::
         :: -> anisotropic ES          0.004928980044 Eh    ::
         :: -> anisotropic XC          0.022078346365 Eh    ::
         :: -> dispersion             -0.026820971291 Eh    ::
         :: -> Gsolv                  -0.002640647074 Eh    ::
         ::    -> Gelec               -0.000761598718 Eh    ::
         ::    -> Gsasa               -0.002325989383 Eh    ::
         ::    -> Ghb                 -0.000633818671 Eh    ::
         ::    -> Gshift               0.001080759698 Eh    ::
         :: repulsion energy           0.687296753001 Eh    ::
         :: add. restraining           0.000000000000 Eh    ::
         :: total charge              -0.000000000000 e     ::
         :::::::::::::::::::::::::::::::::::::::::::::::::::::

           ------------------------------------------------- 
          |                Numerical Hessian                |
           ------------------------------------------------- 
step length          :   0.00500
SCC accuracy         :   0.30000
Hessian scale factor :   1.00000
frozen atoms in %    :   0.00000    0
RMS gradient         :   0.00003
estimated CPU  time      0.04 min
estimated wall time      0.04 min

writing file <hessian>.

 projected vibrational frequencies (cm⁻¹)
eigval :       -0.00    -0.00    -0.00    -0.00     0.00     0.00
eigval :       54.62   114.98   158.82   216.91   270.48   307.44
eigval :      340.56   366.50   404.10   432.68   472.77   482.75
eigval :      504.19   578.35   579.26   596.48   668.55   691.51
eigval :      755.47   770.04   790.70   824.26   845.58   846.44
eigval :      881.29   881.74   902.90   911.38   924.83   926.14
eigval :      930.69   947.00  1095.03  1095.24  1097.28  1122.07
eigval :     1128.97  1137.88  1181.88  1182.27  1193.15  1199.37
eigval :     1228.58  1229.83  1255.88  1262.03  1288.27  1311.33
eigval :     1329.96  1342.62  1442.53  1447.99  1450.02  1453.19
eigval :     1472.30  1487.66  1586.95  1595.15  1602.00  1608.98
eigval :     2905.95  2908.14  2995.11  2995.14  3065.13  3065.15
eigval :     3066.30  3066.69  3074.59  3074.63  3088.03  3088.95
           -------------------------------------------------
          |                Property Printout                |
           -------------------------------------------------

    * Orbital Energies and Occupations

         #    Occupation            Energy/Eh            Energy/eV
      -------------------------------------------------------------
         1        2.0000           -0.6468992             -17.6030
       ...           ...                  ...                  ...
        22        2.0000           -0.4717296             -12.8364
        23        2.0000           -0.4636374             -12.6162
        24        2.0000           -0.4577401             -12.4557
        25        2.0000           -0.4560944             -12.4110
        26        2.0000           -0.4486748             -12.2091
        27        2.0000           -0.4344658             -11.8224
        28        2.0000           -0.4209366             -11.4543
        29        2.0000           -0.4123395             -11.2203
        30        2.0000           -0.4105679             -11.1721
        31        2.0000           -0.3950543             -10.7500
        32        2.0000           -0.3920451             -10.6681
        33        2.0000           -0.3900068             -10.6126
        34        2.0000           -0.3829319             -10.4201 (HOMO)
        35                         -0.2181138              -5.9352 (LUMO)
        36                         -0.2159262              -5.8757
        37                         -0.2133895              -5.8066
        38                         -0.2128777              -5.7927
        39                         -0.0918278              -2.4988
        40                         -0.0831241              -2.2619
        41                          0.0966332               2.6295
        42                          0.1042906               2.8379
        43                          0.1078149               2.9338
        44                          0.1302400               3.5440
        45                          0.1303738               3.5477
       ...                                ...                  ...
        68                          0.6823263              18.5670
      -------------------------------------------------------------
                  HL-Gap            0.1648181 Eh            4.4849 eV
             Fermi-level           -0.3005228 Eh           -8.1776 eV

     #   Z          covCN         q      C6AA      α(0)
     1   6 C        2.919    -0.042    29.032     8.836
     2   6 C        2.919    -0.042    29.032     8.836
     3   6 C        2.922    -0.046    29.136     8.852
     4   6 C        2.982     0.006    27.883     8.662
     5   6 C        2.982     0.006    27.883     8.662
     6   6 C        2.922    -0.046    29.136     8.852
     7   6 C        3.817    -0.071    21.837     6.651
     8   6 C        2.982     0.006    27.883     8.662
     9   6 C        2.922    -0.046    29.136     8.852
    10   6 C        2.919    -0.042    29.032     8.836
    11   6 C        2.919    -0.042    29.032     8.836
    12   6 C        2.922    -0.046    29.136     8.852
    13   6 C        2.982     0.006    27.883     8.662
    14   6 C        3.817    -0.071    21.837     6.651
    15   1 H        0.926     0.030     2.580     2.512
    16   1 H        0.926     0.030     2.580     2.512
    17   1 H        0.926     0.031     2.567     2.506
    18   1 H        0.926     0.031     2.567     2.506
    19   1 H        0.924     0.064     2.157     2.297
    20   1 H        0.924     0.046     2.370     2.407
    21   1 H        0.926     0.031     2.567     2.506
    22   1 H        0.926     0.030     2.580     2.512
    23   1 H        0.926     0.030     2.580     2.512
    24   1 H        0.926     0.031     2.567     2.506
    25   1 H        0.924     0.064     2.157     2.297
    26   1 H        0.924     0.046     2.370     2.407

 Mol. C6AA /au·bohr⁶  :       8537.084858
 Mol. C8AA /au·bohr⁸  :     212610.359419
 Mol. α(0) /au        :        148.175673


Wiberg/Mayer (AO) data.
largest (>0.10) Wiberg bond orders for each atom

 ---------------------------------------------------------------------------
     #   Z sym  total        # sym  WBO       # sym  WBO       # sym  WBO
 ---------------------------------------------------------------------------
     1   6 C    3.991 --     2 C    1.440     6 C    1.437    15 H    0.971
                             4 C    0.107
     2   6 C    3.991 --     1 C    1.440     3 C    1.437    16 H    0.971
                             5 C    0.107
     3   6 C    3.991 --     2 C    1.437     4 C    1.422    17 H    0.969
                             6 C    0.108
     4   6 C    3.988 --     3 C    1.422     5 C    1.376    14 C    1.006
                             1 C    0.107
     5   6 C    3.988 --     6 C    1.422     4 C    1.376     7 C    1.006
                             2 C    0.107
     6   6 C    3.991 --     1 C    1.437     5 C    1.422    18 H    0.969
                             3 C    0.108
     7   6 C    3.997 --     5 C    1.006     8 C    1.006    20 H    0.972
                            19 H    0.938
     8   6 C    3.988 --     9 C    1.422    13 C    1.376     7 C    1.006
                            11 C    0.107
     9   6 C    3.991 --    10 C    1.437     8 C    1.422    21 H    0.969
                            12 C    0.108
    10   6 C    3.991 --    11 C    1.440     9 C    1.437    22 H    0.971
                            13 C    0.107
    11   6 C    3.991 --    10 C    1.440    12 C    1.437    23 H    0.971
                             8 C    0.107
    12   6 C    3.991 --    11 C    1.437    13 C    1.422    24 H    0.969
                             9 C    0.108
    13   6 C    3.988 --    12 C    1.422     8 C    1.376    14 C    1.006
                            10 C    0.107
    14   6 C    3.997 --    13 C    1.006     4 C    1.006    26 H    0.972
                            25 H    0.938
    15   1 H    0.998 --     1 C    0.971
    16   1 H    0.998 --     2 C    0.971
    17   1 H    0.999 --     3 C    0.969
    18   1 H    0.999 --     6 C    0.969
    19   1 H    0.996 --     7 C    0.938
    20   1 H    0.997 --     7 C    0.972
    21   1 H    0.999 --     9 C    0.969
    22   1 H    0.998 --    10 C    0.971
    23   1 H    0.998 --    11 C    0.971
    24   1 H    0.999 --    12 C    0.969
    25   1 H    0.996 --    14 C    0.938
    26   1 H    0.997 --    14 C    0.972
 ---------------------------------------------------------------------------

Topologies differ in total number of bonds
Writing topology from bond orders to xtbtopo.mol

molecular dipole:
                 x           y           z       tot (Debye)
 q only:        0.000       0.000       0.331
   full:        0.000       0.000       0.324       0.823
molecular quadrupole (traceless):
                xx          xy          yy          xz          yz          zz
 q only:       -2.637      -0.001       2.887       0.000       0.000      -0.250
  q+dip:       -1.801      -0.002       7.137      -0.000       0.001      -5.336
   full:       -2.654      -0.001       4.353       0.000       0.000      -1.699

           -------------------------------------------------
          |                Geometry Summary                 |
           -------------------------------------------------

      molecular mass/u    :      180.2455916
   center of mass at/Å    :       -0.0000029      -0.0000075      -0.0001286
  moments of inertia/u·Å² :        0.2834385E+03   0.1054486E+04   0.1234687E+04
rotational constants/cm⁻¹ :        0.5947544E-01   0.1598658E-01   0.1365336E-01

 * 24 selected distances

     #   Z          #   Z                                           value/Å
     1   6 C        2   6 C                                       1.3841209
     2   6 C        3   6 C                                       1.3848518
     3   6 C        4   6 C                                       1.3854184
     4   6 C        5   6 C                                       1.3939009 (max)
     1   6 C        6   6 C                                       1.3848514
     5   6 C        6   6 C                                       1.3854215
     8   6 C        9   6 C                                       1.3854200
     9   6 C       10   6 C                                       1.3848503
    10   6 C       11   6 C                                       1.3841208
    11   6 C       12   6 C                                       1.3848526
     8   6 C       13   6 C                                       1.3939009
    12   6 C       13   6 C                                       1.3854197
     1   6 C       15   1 H                                       1.0798377
     2   6 C       16   1 H                                       1.0798360
     3   6 C       17   1 H                                       1.0806350
     6   6 C       18   1 H                                       1.0806329
     7   6 C       19   1 H                                       1.0968088
     7   6 C       20   1 H                                       1.0904638
     9   6 C       21   1 H                                       1.0806331
    10   6 C       22   1 H                                       1.0798377
    11   6 C       23   1 H                                       1.0798358 (min)
    12   6 C       24   1 H                                       1.0806347
    14   6 C       25   1 H                                       1.0968016
    14   6 C       26   1 H                                       1.0904609

 * 2 distinct bonds (by element types)

   Z      Z             #   av. dist./Å        max./Å        min./Å
   1 H    6 C          12     1.0847015     1.0968088     1.0798358
   6 C    6 C          12     1.3864275     1.3939009     1.3841208

           -------------------------------------------------
          |               Frequency Printout                |
           -------------------------------------------------
 projected vibrational frequencies (cm⁻¹)
eigval :       -0.00    -0.00    -0.00    -0.00     0.00     0.00
eigval :       54.62   114.98   158.82   216.91   270.48   307.44
eigval :      340.56   366.50   404.10   432.68   472.77   482.75
eigval :      504.19   578.35   579.26   596.48   668.55   691.51
eigval :      755.47   770.04   790.70   824.26   845.58   846.44
eigval :      881.29   881.74   902.90   911.38   924.83   926.14
eigval :      930.69   947.00  1095.03  1095.24  1097.28  1122.07
eigval :     1128.97  1137.88  1181.88  1182.27  1193.15  1199.37
eigval :     1228.58  1229.83  1255.88  1262.03  1288.27  1311.33
eigval :     1329.96  1342.62  1442.53  1447.99  1450.02  1453.19
eigval :     1472.30  1487.66  1586.95  1595.15  1602.00  1608.98
eigval :     2905.95  2908.14  2995.11  2995.14  3065.13  3065.15
eigval :     3066.30  3066.69  3074.59  3074.63  3088.03  3088.95
 reduced masses (amu)
   1: 10.04   2: 11.02   3: 10.95   4: 11.15   5: 11.05   6: 10.97   7: 10.25   8:  9.78
   9:  9.35  10: 10.34  11:  7.13  12:  8.84  13:  9.48  14: 10.49  15:  9.21  16: 10.20
  17:  8.49  18: 10.31  19: 10.53  20: 11.12  21: 10.72  22: 10.40  23: 11.03  24: 10.98
  25:  5.67  26:  2.93  27:  7.94  28:  9.37  29: 10.58  30: 10.63  31:  3.40  32:  3.79
  33:  4.50  34:  4.03  35:  3.35  36:  3.07  37:  5.94  38:  6.92  39:  6.23  40:  6.56
  41:  6.74  42:  2.14  43:  7.69  44:  3.10  45:  1.34  46:  1.33  47:  7.02  48:  5.43
  49:  4.25  50:  3.92  51:  8.64  52:  3.72  53: 10.24  54:  4.40  55: 11.83  56: 10.26
  57:  6.03  58:  5.36  59:  2.20  60:  9.46  61:  9.39  62:  9.73  63: 11.48  64: 11.64
  65: 11.55  66: 11.60  67:  1.75  68:  1.77  69:  1.70  70:  1.69  71:  1.75  72:  1.75
  73:  1.80  74:  1.80  75:  1.85  76:  1.85  77:  1.92  78:  1.92
 IR intensities (km·mol⁻¹)
   1:  0.08   2:  0.02   3:  0.01   4:  0.01   5:  0.02   6:  0.00   7:  0.00   8:  0.00
   9:  0.69  10:  1.18  11:  1.93  12:  1.06  13:  0.06  14:  0.00  15:  1.45  16:  2.14
  17:  1.38  18:  0.00  19:  0.00  20:  1.96  21:  2.55  22:  0.42  23:  0.00  24:  0.02
  25: 14.64  26:  3.67  27: 11.84  28:  4.41  29:  0.85  30:  0.00  31:  0.00  32:  0.11
  33:  4.02  34:  0.05  35:  0.00  36:  0.00  37: 16.41  38:  0.00  39:  0.42  40:  0.07
  41:  0.00  42:  0.57  43:  3.16  44:  0.00  45:  0.21  46:  0.03  47:  4.97  48:  0.00
  49: 11.10  50:  0.00  51:  8.09  52:  4.72  53: 74.65  54:  0.00  55:  0.00  56:  7.77
  57:  0.57  58:  0.01  59:  2.32  60:  0.00  61: 45.36  62:  2.08  63: 16.67  64:  0.81
  65:  0.00  66: 10.81  67: 82.79  68:  5.77  69: 42.23  70: 97.60  71:112.05  72:  0.13
  73: 31.27  74:  8.95  75:428.47  76:  0.11  77:300.65  78: 35.34
 Raman intensities (Ä⁴*amu⁻¹)
   1:  0.00   2:  0.00   3:  0.00   4:  0.00   5:  0.00   6:  0.00   7:  0.00   8:  0.00
   9:  0.00  10:  0.00  11:  0.00  12:  0.00  13:  0.00  14:  0.00  15:  0.00  16:  0.00
  17:  0.00  18:  0.00  19:  0.00  20:  0.00  21:  0.00  22:  0.00  23:  0.00  24:  0.00
  25:  0.00  26:  0.00  27:  0.00  28:  0.00  29:  0.00  30:  0.00  31:  0.00  32:  0.00
  33:  0.00  34:  0.00  35:  0.00  36:  0.00  37:  0.00  38:  0.00  39:  0.00  40:  0.00
  41:  0.00  42:  0.00  43:  0.00  44:  0.00  45:  0.00  46:  0.00  47:  0.00  48:  0.00
  49:  0.00  50:  0.00  51:  0.00  52:  0.00  53:  0.00  54:  0.00  55:  0.00  56:  0.00
  57:  0.00  58:  0.00  59:  0.00  60:  0.00  61:  0.00  62:  0.00  63:  0.00  64:  0.00
  65:  0.00  66:  0.00  67:  0.00  68:  0.00  69:  0.00  70:  0.00  71:  0.00  72:  0.00
  73:  0.00  74:  0.00  75:  0.00  76:  0.00  77:  0.00  78:  0.00
 output can be read by thermo (or use thermo option).
 writing <g98.out> molden fake output.
 recommended (thermochemical) frequency scaling factor: 1.0
           -------------------------------------------------
          |             Thermodynamic Functions             |
           -------------------------------------------------

Molecule has the following symmetry elements: (C2) 2*(sigma) 
It seems to be the C2v point group
c2v symmetry found (for desy threshold:  0.10E+00) used in thermo

          ...................................................
          :                      SETUP                      :
          :.................................................:
          :  # frequencies                          72      :
          :  # imaginary freq.                       0      :
          :  linear?                             false      :
          :  only rotor calc.                    false      :
          :  symmetry                              c2v      :
          :  rotational number                       2      :
          :  scaling factor                  1.0000000      :
          :  rotor cutoff                    0.0000000 cm⁻¹ :
          :  imag. cutoff                 -100.0000000 cm⁻¹ :
          :.................................................:

    mode    ω/cm⁻¹     T·S(HO)/kcal·mol⁻¹    T·S(FR)/kcal·mol⁻¹   T·S(vib)
   ------------------------------------------------------------------------
       1     54.62    -1.38425 (100.00%)    -1.03028 (  0.00%)    -1.38425
       2    114.98    -0.94900 (100.00%)    -0.80980 (  0.00%)    -0.94900
       3    158.82    -0.76441 (100.00%)    -0.71414 (  0.00%)    -0.76441
       4    216.91    -0.59175 (100.00%)    -0.62180 (  0.00%)    -0.59175
       5    270.48    -0.47499 (100.00%)    -0.55642 (  0.00%)    -0.47499
   ------------------------------------------------------------------------

   temp. (K)  partition function   enthalpy   heat capacity  entropy
                                   cal/mol     cal/K/mol   cal/K/mol   J/K/mol
 298.15  VIB   242.                 4737.982     37.969     26.796
         ROT  0.734E+06              888.752      2.981     29.821
         INT  0.177E+09             5626.734     40.950     56.617
         TR   0.234E+28             1481.254      4.968     41.455
         TOT                        7107.9884    45.9179    98.0719   410.3328

       T/K    H(0)-H(T)+PV         H(T)/Eh          T*S/Eh         G(T)/Eh
   ------------------------------------------------------------------------
    298.15    0.113273E-01    0.222289E+00    0.465971E-01    0.175692E+00
   ------------------------------------------------------------------------

         :::::::::::::::::::::::::::::::::::::::::::::::::::::
         ::                  THERMODYNAMIC                  ::
         :::::::::::::::::::::::::::::::::::::::::::::::::::::
         :: total free energy         -35.926837111403 Eh   ::
         ::.................................................::
         :: total energy              -36.102529280797 Eh   ::
         :: zero point energy           0.210961987164 Eh   ::
         :: G(RRHO) w/o ZPVE           -0.035269817770 Eh   ::
         :: G(RRHO) contrib.            0.175692169394 Eh   ::
         :::::::::::::::::::::::::::::::::::::::::::::::::::::

optimized geometry written to: xtbopt.coord


           -------------------------------------------------
          | TOTAL ENERGY              -36.102529280797 Eh   |
          | TOTAL ENTHALPY            -35.880239993099 Eh   |
          | TOTAL FREE ENERGY         -35.926837111403 Eh   |
          | GRADIENT NORM               0.000032377591 Eh/α |
          | HOMO-LUMO GAP               4.484929191459 eV   |
           -------------------------------------------------

------------------------------------------------------------------------
 * finished run on 2025/04/03 at 20:27:14.580     
------------------------------------------------------------------------
 total:
 * wall-time:     0 d,  0 h,  0 min,  3.135 sec
 *  cpu-time:     0 d,  0 h,  0 min,  3.060 sec
 * ratio c/w:     0.976 speedup
 SCF:
 * wall-time:     0 d,  0 h,  0 min,  0.032 sec
 *  cpu-time:     0 d,  0 h,  0 min,  0.019 sec
 * ratio c/w:     0.605 speedup
 ANC optimizer:
 * wall-time:     0 d,  0 h,  0 min,  0.494 sec
 *  cpu-time:     0 d,  0 h,  0 min,  0.481 sec
 * ratio c/w:     0.974 speedup
 analytical hessian:
 * wall-time:     0 d,  0 h,  0 min,  2.558 sec
 *  cpu-time:     0 d,  0 h,  0 min,  2.545 sec
 * ratio c/w:     0.995 speedup

