38
 energy: -1981.480455666009 gnorm: 0.001516679328 xtb: 6.7.1 (edcfbbe)
C            5.10368975260177       -0.29526370342551       -0.69117983457968
C            4.49813848199799       -1.28941449425368       -1.65340353705958
O            3.03525982076289       -1.22062134400452       -1.62101423189190
C            2.40985179805730       -1.89073408804595       -0.64212280614534
O            2.97328345936324       -2.60598626982088        0.16737491640442
C            0.91042162386797       -1.72784683798303       -0.71629667489380
C            0.45447485496486       -0.30882200195582       -1.04401592505039
H            0.87867385209974        0.00300314225199       -2.00803527317524
C            0.98174073532858        0.70467421139245       -0.03707631397886
O            1.90496341250495        0.43951718147405        0.71065813795232
O            0.40804065188493        1.89923265506957       -0.15022513543120
C            0.95839210268534        2.98147113918374        0.68077745019481
C            0.42731460334101        2.92856949822294        2.09277675590995
S           -1.36562077874358       -0.23276154772550       -1.39252118095551
P           -2.28718058731510       -0.00921990832366        0.50730294013706
S           -1.35859929595504       -0.76205805241042        2.03449778051014
O           -2.60811192762108        1.54505912408951        0.73550084231525
C           -3.21956305430721        2.36758736644370       -0.30059348420793
O           -3.75926139533383       -0.56508920848032        0.15219398060194
C           -3.99465597149242       -1.99612535765004        0.03655166699805
H            4.75724471818014        0.71819314989797       -0.91073018238954
H            4.85931832626481       -0.53896870022970        0.34549939095362
H            6.19256794552389       -0.31662053378071       -0.80157811055158
H            4.80570489266397       -2.31502604042025       -1.43838184613219
H            4.74649886141360       -1.04805528554131       -2.68783178196623
H            0.48586687429497       -2.06474735027360        0.23053999201003
H            0.56122316285834       -2.40137852560489       -1.50760665994930
H            2.04858144788623        2.91594053412580        0.64522631834649
H            0.63196326106641        3.88466588234842        0.16302302674868
H            0.74347679558145        2.02010942785419        2.61056026993764
H            0.82296658312145        3.79074697300942        2.63945509208561
H           -0.66387591307982        2.98715242260325        2.10496460170471
H           -2.56511388636020        2.41864913423474       -1.17445611648339
H           -3.32684309417991        3.35727429773524        0.14314724157781
H           -4.19900618451211        1.96899982041059       -0.57473430825756
H           -3.35916854146682       -2.42723574276282       -0.74084326251670
H           -5.04347778247251       -2.09867716460083       -0.23961682336222
H           -3.80693587243429       -2.48244859530957        0.99625287249210
38
 energy: -1981.480460961759 gnorm: 0.000796080308 xtb: 6.7.1 (edcfbbe)
C            5.10186906042683       -0.29502723203915       -0.68977617739930
C            4.49788409158783       -1.28911237615628       -1.65395030942403
O            3.03459746281060       -1.22132293591840       -1.62224596914694
C            2.40972569069391       -1.89278894998893       -0.64346211289811
O            2.97372014346764       -2.60790000555580        0.16609936370625
C            0.91036316585489       -1.72823505140910       -0.71570406555942
C            0.45542803373501       -0.30898546058001       -1.04415358222838
H            0.87919846165082        0.00192251736599       -2.00882712063622
C            0.98361576915060        0.70503463923391       -0.03830435815250
O            1.90707903332028        0.44040158659820        0.70950336237969
O            0.40899021302939        1.89960533715851       -0.15136054355114
C            0.95868318459011        2.98219925199570        0.68021720615163
C            0.42655888682837        2.92792772657266        2.09182240173918
S           -1.36490225817592       -0.23255670514506       -1.39167441741130
P           -2.28738641511872       -0.00858972393775        0.50756968141702
S           -1.35740695655168       -0.76215931192954        2.03368857744187
O           -2.60802656950081        1.54568806862749        0.73632317494731
C           -3.21948877694110        2.36854956434619       -0.30005837542927
O           -3.75945833166931       -0.56445828135844        0.15269694843051
C           -3.99377466262601       -1.99633721247903        0.03711492783216
H            4.75486659434047        0.71901624659172       -0.90940126132599
H            4.85641336815214       -0.53984534189358        0.34706422709830
H            6.19095340570898       -0.31600701748991       -0.79864789227905
H            4.80575930476659       -2.31547790049560       -1.43958572906348
H            4.74620788335536       -1.04643257059792       -2.68865245394439
H            0.48616756043602       -2.06433731264771        0.23137745197718
H            0.56018177864295       -2.40177769777300       -1.50629326724287
H            2.04889772573199        2.91667733680652        0.64515632261827
H            0.63211561658158        3.88530433803108        0.16235249092285
H            0.74211286494657        2.01864397773131        2.60868085752462
H            0.82189693561319        3.78943667456454        2.63982300986799
H           -0.66477423502239        2.98643531098154        2.10315918852822
H           -2.56429708684834        2.42004679235371       -1.17341547148827
H           -3.32713278816206        3.35790942011537        0.14438952945804
H           -4.19869666472434        1.96949377865775       -0.57478388200084
H           -3.35558756750563       -2.42777312466422       -0.73926044903286
H           -5.04246779572563       -2.09895885186038       -0.24161114940674
H           -3.80764189837123       -2.48246497202341        0.99817084474520
38
 energy: -1981.480465051492 gnorm: 0.001190951410 xtb: 6.7.1 (edcfbbe)
C            5.09879045239411       -0.29511297205751       -0.68771988388539
C            4.49705794193904       -1.28846920073848       -1.65459205051706
O            3.03326798452913       -1.22198662544192       -1.62368010096899
C            2.40909945607754       -1.89389960974217       -0.64440783506976
O            2.97349735566963       -2.61121092270050        0.16305632738737
C            0.90972220511912       -1.72865570625396       -0.71516600179059
C            0.45521110033633       -0.30929570802639       -1.04437612629639
H            0.87876290847481        0.00021498658719       -2.00963501527133
C            0.98414945719367        0.70524314696977       -0.03965020594961
O            1.90868322776429        0.44142577907619        0.70734356272259
O            0.40981769362412        1.90006413816933       -0.15333529926930
C            0.95913708453640        2.98266538335831        0.67912233525004
C            0.42535238194083        2.92707840444955        2.09008089045392
S           -1.36514250525507       -0.23147635297007       -1.39273904817146
P           -2.28521062580968       -0.00771683464259        0.50794055941229
S           -1.35655076545990       -0.76172136590281        2.03464348640459
O           -2.60660411945223        1.54624241512230        0.73748576267241
C           -3.21856164562129        2.36954751856365       -0.29896862205034
O           -3.75725255832340       -0.56385178446010        0.15280953577507
C           -3.99090760552435       -1.99669982480078        0.03802174313004
H            4.75112310010012        0.71918738283726       -0.90673158856086
H            4.85111560651901       -0.54169420968253        0.34849154135417
H            6.18814615062734       -0.31512328700315       -0.79397071193995
H            4.80587891050774       -2.31516989477514       -1.44168447709328
H            4.74599322471987       -1.04354818898613       -2.68885457539815
H            0.48632751591323       -2.06387686973825        0.23247440676182
H            0.55816094973910       -2.40244382830826       -1.50482792085199
H            2.04938539024609        2.91727687440535        0.64524943203849
H            0.63296685247316        3.88595408044917        0.16138308108972
H            0.73953861585064        2.01648824635579        2.60553590545837
H            0.82048340283874        3.78727534555874        2.64028863298874
H           -0.66598471437360        2.98607669769041        2.10003641666578
H           -2.56260384447513        2.42257618694869       -1.17161565054418
H           -3.32767238898948        3.35827502596398        0.14646523608085
H           -4.19712006205276        1.96959806306967       -0.57482904832928
H           -3.34835920565740       -2.42887140274817       -0.73490926632520
H           -5.03844237005209       -2.09945554271481       -0.24577888574964
H           -3.80901204858295       -2.48116652863946        1.00108705367134
38
 energy: -1981.480469024926 gnorm: 0.000706631108 xtb: 6.7.1 (edcfbbe)
C            5.09617640173702       -0.29530449078766       -0.68588924974666
C            4.49659002690592       -1.28779019752642       -1.65477062458078
O            3.03263662857749       -1.22285014768794       -1.62488699947689
C            2.40852837644234       -1.89500419550694       -0.64567901263864
O            2.97292432623042       -2.61266605763764        0.16122361656867
C            0.90930883080103       -1.72882985717197       -0.71538653682827
C            0.45619501227241       -0.30927644096326       -1.04566342553510
H            0.87984498228261       -0.00080611414387       -2.01113691244508
C            0.98568545931760        0.70547652010913       -0.04160149435886
O            1.90966691292317        0.44151904418578        0.70577138339914
O            0.41115205972489        1.90034496401109       -0.15524193669639
C            0.95956549636852        2.98276039643283        0.67826961650751
C            0.42437814880360        2.92620681544874        2.08861224648952
S           -1.36443203983354       -0.22986222470236       -1.39162040221732
P           -2.28532424713611       -0.00742729331883        0.50848433997452
S           -1.35437144338767       -0.76132931349609        2.03377123601372
O           -2.60621317394307        1.54657141380810        0.73830668770196
C           -3.21781875974210        2.37045998711429       -0.29806168561455
O           -3.75748201619436       -0.56386145872211        0.15402608066818
C           -3.98941142709769       -1.99711896154648        0.03915012605556
H            4.74807233791979        0.71872343025831       -0.90403562102681
H            4.84667727439697       -0.54331798061143        0.34927799742566
H            6.18568273388804       -0.31431169148577       -0.79022135846692
H            4.80630209307984       -2.31424200403921       -1.44337171702522
H            4.74608152066440       -1.04089393300807       -2.68821372777497
H            0.48656324563662       -2.06265664812402        0.23311884142286
H            0.55636996077134       -2.40328723672614       -1.50396202985979
H            2.04981446232204        2.91751329755498        0.64515914068085
H            0.63360110841665        3.88610035037164        0.16047142014376
H            0.73728949938876        2.01473143195545        2.60321567428314
H            0.81961509258901        3.78537941876239        2.64026482459017
H           -0.66686703359153        2.98607119108502        2.09749811751150
H           -2.56104287197370        2.42466706242090       -1.16997489519965
H           -3.32806393678331        3.35864369558804        0.14828544120351
H           -4.19574098160303        1.96985442814153       -0.57494411598329
H           -3.34331243760678       -2.42922903733066       -0.73035614736978
H           -5.03537053893607       -2.10102765723055       -0.24900762939881
H           -3.81102583205483       -2.48018876450083        1.00316487924507
38
 energy: -1981.480469024926 gnorm: 0.000706631108 xtb: 6.7.1 (edcfbbe)
C            5.09617640173702       -0.29530449078766       -0.68588924974666
C            4.49659002690592       -1.28779019752642       -1.65477062458078
O            3.03263662857749       -1.22285014768794       -1.62488699947689
C            2.40852837644234       -1.89500419550694       -0.64567901263864
O            2.97292432623042       -2.61266605763764        0.16122361656867
C            0.90930883080103       -1.72882985717197       -0.71538653682827
C            0.45619501227241       -0.30927644096326       -1.04566342553510
H            0.87984498228261       -0.00080611414387       -2.01113691244508
C            0.98568545931760        0.70547652010913       -0.04160149435886
O            1.90966691292317        0.44151904418578        0.70577138339914
O            0.41115205972489        1.90034496401109       -0.15524193669639
C            0.95956549636852        2.98276039643283        0.67826961650751
C            0.42437814880360        2.92620681544874        2.08861224648952
S           -1.36443203983354       -0.22986222470236       -1.39162040221732
P           -2.28532424713611       -0.00742729331883        0.50848433997452
S           -1.35437144338767       -0.76132931349609        2.03377123601372
O           -2.60621317394307        1.54657141380810        0.73830668770196
C           -3.21781875974210        2.37045998711429       -0.29806168561455
O           -3.75748201619436       -0.56386145872211        0.15402608066818
C           -3.98941142709769       -1.99711896154648        0.03915012605556
H            4.74807233791979        0.71872343025831       -0.90403562102681
H            4.84667727439697       -0.54331798061143        0.34927799742566
H            6.18568273388804       -0.31431169148577       -0.79022135846692
H            4.80630209307984       -2.31424200403921       -1.44337171702522
H            4.74608152066440       -1.04089393300807       -2.68821372777497
H            0.48656324563662       -2.06265664812402        0.23311884142286
H            0.55636996077134       -2.40328723672614       -1.50396202985979
H            2.04981446232204        2.91751329755498        0.64515914068085
H            0.63360110841665        3.88610035037164        0.16047142014376
H            0.73728949938876        2.01473143195545        2.60321567428314
H            0.81961509258901        3.78537941876239        2.64026482459017
H           -0.66686703359153        2.98607119108502        2.09749811751150
H           -2.56104287197370        2.42466706242090       -1.16997489519965
H           -3.32806393678331        3.35864369558804        0.14828544120351
H           -4.19574098160303        1.96985442814153       -0.57494411598329
H           -3.34331243760678       -2.42922903733066       -0.73035614736978
H           -5.03537053893607       -2.10102765723055       -0.24900762939881
H           -3.81102583205483       -2.48018876450083        1.00316487924507
