41
 energy: -2932.485198953553 gnorm: 0.000596269935 xtb: 6.7.1 (edcfbbe)
C            5.09305072373643       -1.36865648836663       -0.90303569858974
C            4.92910396020403       -0.03259655374828       -0.22355624821400
O            3.61856188244381        0.09760545131577        0.43048623615959
P            2.26411557084562        0.42958940161702       -0.37494560166016
S            2.44287732724999        1.44743962735776       -2.02619535109851
O            1.36760162098296        1.08604355233231        0.78553540991831
C            1.52697041012545        2.51288075600000        1.11455823772005
C            0.71472089082961        2.77502177499322        2.35592764307281
S            1.40429419494420       -1.49656389845561       -0.52758678733710
C            0.00664152582679       -1.18979701366391       -1.70233579859019
S           -1.61862828663204       -1.74434356278378       -1.06859047330873
P           -2.27765154141795       -0.01352990390278       -0.01594215310213
S           -2.06539517384964        1.67200270719981       -0.95886342101876
O           -1.55600073596335        0.02481400071002        1.41112080824522
C           -1.61115414581436       -1.10855059803159        2.35150629239974
C           -0.53329680817800       -0.88610965807743        3.37928970952355
O           -3.76097518864300       -0.48996463958780        0.38170038035689
C           -4.84223591151072       -0.55018480955942       -0.61587636953933
C           -6.14767187763131       -0.46942119362881        0.13036138279220
H            4.91183975354177       -2.19026407490816       -0.20405873806834
H            4.42018977546752       -1.47140689162740       -1.75912963442195
H            6.12228612519075       -1.44792181424051       -1.26817249974919
H            5.04687913394795        0.80076140248450       -0.92236060145176
H            5.63556293828058        0.08952701688368        0.59990149458830
H            2.59041478722822        2.71846047938594        1.27580994747249
H            1.17035361734915        3.09667028843928        0.26084083051190
H            1.07426127295777        2.17303658058548        3.19508041256093
H            0.81235832382573        3.83217196473033        2.62175735020712
H           -0.34352196776193        2.55906324889462        2.18494711004731
H            0.19272200454347       -1.78069845170758       -2.60180313874286
H           -0.03418382234194       -0.12973904801649       -1.97468513067482
H           -2.60907420318848       -1.12070980646350        2.79772305304685
H           -1.45089692557238       -2.03580450218719        1.79232307694273
H           -0.69680298584181        0.04796247654331        3.92334601904339
H           -0.55725218360873       -1.71188313647666        4.09710911530610
H            0.45465921721102       -0.86163325173171        2.91128957227593
H           -4.72110122432309        0.28494192606099       -1.31306578857978
H           -4.74136706806394       -1.49476541699404       -1.15863003515754
H           -6.23493849152440        0.48157584591371        0.66299013058628
H           -6.96918537570450       -0.54078464149838       -0.58903614735596
H           -6.24261072577778       -1.29180160325506        0.84483466948901
41
 energy: -2932.485202196462 gnorm: 0.000662585363 xtb: 6.7.1 (edcfbbe)
C            5.09257807400375       -1.36893130184160       -0.90268032516243
C            4.92819456383931       -0.03313182201508       -0.22272109305611
O            3.61744808194196        0.09640344969326        0.43107796150109
P            2.26324212233751        0.42911919642348       -0.37441181481043
S            2.44233511144451        1.44622775279963       -2.02603928546649
O            1.36673051927595        1.08581111947352        0.78618831338577
C            1.52704168884488        2.51257699137545        1.11578856498799
C            0.71492393838862        2.77442266339175        2.35724194412830
S            1.40467229774725       -1.49736758610836       -0.52805102665126
C            0.00779594799813       -1.19078619765039       -1.70387240280200
S           -1.61828355331943       -1.74283170811483       -1.07026687309677
P           -2.27869641192362       -0.01339390544099       -0.01640529426434
S           -2.06494065861526        1.67055530066172       -0.96202875571094
O           -1.55652450129528        0.02539347326503        1.41044940809154
C           -1.60975079565863       -1.10818618623111        2.35080638199328
C           -0.53189685831273       -0.88327197226945        3.37828145596553
O           -3.76222283425031       -0.48929721598068        0.38158235281386
C           -4.84333031280086       -0.54923172507951       -0.61614758441948
C           -6.14830312892255       -0.47049694695943        0.13099462386663
H            4.91204422260763       -2.19094567373649       -0.20393388537327
H            4.41932773886587       -1.47164025156283       -1.75852017763253
H            6.12169889974311       -1.44758719810860       -1.26838769434607
H            5.04593568985046        0.80051317802278       -0.92119658428831
H            5.63450198387288        0.08886942767099        0.60089253640261
H            2.59064456948758        2.71748726990735        1.27710709683900
H            1.17047427468276        3.09682673332638        0.26234698944350
H            1.07467758862594        2.17210056809255        3.19615843399668
H            0.81230079886428        3.83159913421035        2.62342002094623
H           -0.34333899717023        2.55819204912401        2.18612199078722
H            0.19350273237444       -1.78177883718097       -2.60339417095429
H           -0.03335982966464       -0.13068226085443       -1.97603761499766
H           -2.60788273980921       -1.12183812589405        2.79709506946101
H           -1.44795007374985       -2.03524927842567        1.79129477865385
H           -0.69658721250056        0.05142303902919        3.92168517462316
H           -0.55500892692302       -1.70853528646664        4.09686895059526
H            0.45641304341596       -0.85791865163072        2.91019504452577
H           -4.72297408340397        0.28693495340596       -1.31221170434702
H           -4.74174514204152       -1.49303237255801       -1.16016939073751
H           -6.23603413792017        0.47983994052955        0.66473583013913
H           -6.97023615708981       -0.54188317020469       -0.58795072426871
H           -6.24189658932122       -1.29383549671105        0.84461444249268
41
 energy: -2932.485202196462 gnorm: 0.000662585363 xtb: 6.7.1 (edcfbbe)
C            5.09257807400375       -1.36893130184160       -0.90268032516243
C            4.92819456383931       -0.03313182201508       -0.22272109305611
O            3.61744808194196        0.09640344969326        0.43107796150109
P            2.26324212233751        0.42911919642348       -0.37441181481043
S            2.44233511144451        1.44622775279963       -2.02603928546649
O            1.36673051927595        1.08581111947352        0.78618831338577
C            1.52704168884488        2.51257699137545        1.11578856498799
C            0.71492393838862        2.77442266339175        2.35724194412830
S            1.40467229774725       -1.49736758610836       -0.52805102665126
C            0.00779594799813       -1.19078619765039       -1.70387240280200
S           -1.61828355331943       -1.74283170811483       -1.07026687309677
P           -2.27869641192362       -0.01339390544099       -0.01640529426434
S           -2.06494065861526        1.67055530066172       -0.96202875571094
O           -1.55652450129528        0.02539347326503        1.41044940809154
C           -1.60975079565863       -1.10818618623111        2.35080638199328
C           -0.53189685831273       -0.88327197226945        3.37828145596553
O           -3.76222283425031       -0.48929721598068        0.38158235281386
C           -4.84333031280086       -0.54923172507951       -0.61614758441948
C           -6.14830312892255       -0.47049694695943        0.13099462386663
H            4.91204422260763       -2.19094567373649       -0.20393388537327
H            4.41932773886587       -1.47164025156283       -1.75852017763253
H            6.12169889974311       -1.44758719810860       -1.26838769434607
H            5.04593568985046        0.80051317802278       -0.92119658428831
H            5.63450198387288        0.08886942767099        0.60089253640261
H            2.59064456948758        2.71748726990735        1.27710709683900
H            1.17047427468276        3.09682673332638        0.26234698944350
H            1.07467758862594        2.17210056809255        3.19615843399668
H            0.81230079886428        3.83159913421035        2.62342002094623
H           -0.34333899717023        2.55819204912401        2.18612199078722
H            0.19350273237444       -1.78177883718097       -2.60339417095429
H           -0.03335982966464       -0.13068226085443       -1.97603761499766
H           -2.60788273980921       -1.12183812589405        2.79709506946101
H           -1.44795007374985       -2.03524927842567        1.79129477865385
H           -0.69658721250056        0.05142303902919        3.92168517462316
H           -0.55500892692302       -1.70853528646664        4.09686895059526
H            0.45641304341596       -0.85791865163072        2.91019504452577
H           -4.72297408340397        0.28693495340596       -1.31221170434702
H           -4.74174514204152       -1.49303237255801       -1.16016939073751
H           -6.23603413792017        0.47983994052955        0.66473583013913
H           -6.97023615708981       -0.54188317020469       -0.58795072426871
H           -6.24189658932122       -1.29383549671105        0.84461444249268
