      -----------------------------------------------------------      
     |                   =====================                   |     
     |                           x T B                           |     
     |                   =====================                   |     
     |                         S. Grimme                         |     
     |          Mulliken Center for Theoretical Chemistry        |     
     |                    University of Bonn                     |     
      -----------------------------------------------------------      

   * xtb version 6.7.1 (edcfbbe) compiled by 'albert@albert-system' on 2024-07-22

   xtb is free software: you can redistribute it and/or modify it under
   the terms of the GNU Lesser General Public License as published by
   the Free Software Foundation, either version 3 of the License, or
   (at your option) any later version.
   
   xtb is distributed in the hope that it will be useful,
   but WITHOUT ANY WARRANTY; without even the implied warranty of
   MERCHANTABILITY or FITNESS FOR A PARTICULAR PURPOSE.  See the
   GNU Lesser General Public License for more details.
   
   Cite this work as:
   * C. Bannwarth, E. Caldeweyher, S. Ehlert, A. Hansen, P. Pracht,
     J. Seibert, S. Spicher, S. Grimme, WIREs Comput. Mol. Sci., 2020, 11,
     e01493. DOI: 10.1002/wcms.1493
   
   for GFN2-xTB:
   * C. Bannwarth, S. Ehlert and S. Grimme., J. Chem. Theory Comput., 2019,
     15, 1652-1671. DOI: 10.1021/acs.jctc.8b01176
   for GFN1-xTB:
   * S. Grimme, C. Bannwarth, P. Shushkov, J. Chem. Theory Comput., 2017,
     13, 1989-2009. DOI: 10.1021/acs.jctc.7b00118
   for GFN0-xTB:
   * P. Pracht, E. Caldeweyher, S. Ehlert, S. Grimme, ChemRxiv, 2019, preprint.
     DOI: 10.26434/chemrxiv.8326202.v1
   for GFN-FF:
   * S. Spicher and S. Grimme, Angew. Chem. Int. Ed., 2020, 59, 15665-15673.
     DOI: 10.1002/anie.202004239
   
   for ALPB and GBSA implicit solvation:
   * S. Ehlert, M. Stahn, S. Spicher, S. Grimme, J. Chem. Theory Comput.,
     2021, 17, 4250-4261. DOI: 10.1021/acs.jctc.1c00471
   
   for ddCOSMO and CPCM-X implicit solvation:
   * M. Stahn, S. Ehlert, S. Grimme, J. Phys. Chem. A,
     2023, XX, XXXX-XXXX. DOI: 10.1021/acs.jpca.3c04382
   
   for DFT-D4:
   * E. Caldeweyher, C. Bannwarth and S. Grimme, J. Chem. Phys., 2017,
     147, 034112. DOI: 10.1063/1.4993215
   * E. Caldeweyher, S. Ehlert, A. Hansen, H. Neugebauer, S. Spicher,
     C. Bannwarth and S. Grimme, J. Chem. Phys., 2019, 150, 154122.
     DOI: 10.1063/1.5090222
   * E. Caldeweyher, J.-M. Mewes, S. Ehlert and S. Grimme, Phys. Chem. Chem. Phys.
     2020, 22, 8499-8512. DOI: 10.1039/D0CP00502A
   
   for sTDA-xTB:
   * S. Grimme and C. Bannwarth, J. Chem. Phys., 2016, 145, 054103.
     DOI: 10.1063/1.4959605
   
   in the mass-spec context:
   * V. Asgeirsson, C. Bauer and S. Grimme, Chem. Sci., 2017, 8, 4879.
     DOI: 10.1039/c7sc00601b
   * J. Koopman and S. Grimme, ACS Omega 2019, 4, 12, 15120-15133.
     DOI: 10.1021/acsomega.9b02011
   
   for metadynamics refer to:
   * S. Grimme, J. Chem. Theory Comput., 2019, 155, 2847-2862
     DOI: 10.1021/acs.jctc.9b00143
   
   for SPH calculations refer to:
   * S. Spicher and S. Grimme, J. Chem. Theory Comput., 2021, 17, 1701-1714
     DOI: 10.1021/acs.jctc.0c01306
   
   for ONIOM refer to:
   * C. Plett, A. Katbashev, S. Ehlert, S. Grimme, M. Bursch,
     Phys. Chem. Chem. Phys., 2023, 25, 17860-17868. DOI: 10.1039/D3CP02178E
   
   for DIPRO refer to:
   * J. Kohn, N. Gildemeister, S. Grimme, D. Fazzi, A. Hansen,
     J. Chem. Phys., 2023, just accepted.
   
   for PTB refer to:
   * S. Grimme, M. Mueller, A. Hansen, J. Chem. Phys., 2023, 158, 124111.
     DOI: 10.1063/5.0137838
   
   with help from (in alphabetical order)
   P. Atkinson, C. Bannwarth, F. Bohle, G. Brandenburg, E. Caldeweyher
   M. Checinski, S. Dohm, S. Ehlert, S. Ehrlich, I. Gerasimov, C. Hölzer
   A. Katbashev, J. Kohn, J. Koopman, C. Lavigne, S. Lehtola, F. März, M. Müller,
   F. Musil, H. Neugebauer, J. Pisarek, C. Plett, P. Pracht, F. Pultar,
   J. Seibert, P. Shushkov, S. Spicher, M. Stahn, M. Steiner, T. Strunk,
   J. Stückrath, T. Rose, and J. Unsleber
   
 * started run on 2025/04/03 at 20:20:07.100     
   ID    Z sym.   atoms
    1    6 C      1-9
    2    1 H      10-21

           -------------------------------------------------
          |                Calculation Setup                |
           -------------------------------------------------

          program call               : /srv/scratch/z5358697/.xtb/bin/xtb xtb_opt.coord --opt normal --orca -I xtb_opt-xcontrol-inp
          hostname                   : k158
          coordinate file            : xtb_opt.coord
          omp threads                :                     3

           -------------------------------------------------
          |                   Orca driver                   |
           -------------------------------------------------
orca executable           : /apps/z_install_tree/linux-rocky8-ivybridge/gcc-12.2.0/orca-6.0.0-srtngmq3qlimg2qxbl6avaaiffipurdx/bin/orca
orca input file           : xtb_opt.inp
orca input line           : 
orca parallel             : true
orca number of threads    : 3
                         * ORCA takes the control...
  ------------------------------------------------------------------------

                                 *****************
                                 * O   R   C   A *
                                 *****************

                                            #,                                       
                                            ###                                      
                                            ####                                     
                                            #####                                    
                                            ######                                   
                                           ########,                                 
                                     ,,################,,,,,                         
                               ,,#################################,,                 
                          ,,##########################################,,             
                       ,#########################################, ''#####,          
                    ,#############################################,,   '####,        
                  ,##################################################,,,,####,       
                ,###########''''           ''''###############################       
              ,#####''   ,,,,##########,,,,          '''####'''          '####       
            ,##' ,,,,###########################,,,                        '##       
           ' ,,###''''                  '''############,,,                           
         ,,##''                                '''############,,,,        ,,,,,,###''
      ,#''                                            '''#######################'''  
     '                                                          ''''####''''         
             ,#######,   #######,   ,#######,      ##                                
            ,#'     '#,  ##    ##  ,#'     '#,    #''#        ,####,   ,####,        
            ##       ##  ##   ,#'  ##            #'  '#       #'       #'  '#        
            ##       ##  #######   ##           ,######,      #####,   #    #        
            '#,     ,#'  ##    ##  '#,     ,#' ,#      #,     #,   #   #,  ,#        
             '#######'   ##     ##  '#######'  #'      '#     '####' # '####'        



                #########################################################
                #                        -***-                          #
                #          Department of theory and spectroscopy        #
                #                                                       #
                #                      Frank Neese                      #
                #                                                       #
                #     Directorship, Architecture, Infrastructure        #
                #                    SHARK, DRIVERS                     #
                #        Core code/Algorithms in most modules           #
                #                                                       #
                #        Max Planck Institute fuer Kohlenforschung      #
                #                Kaiser Wilhelm Platz 1                 #
                #                 D-45470 Muelheim/Ruhr                 #
                #                      Germany                          #
                #                                                       #
                #                  All rights reserved                  #
                #                        -***-                          #
                #########################################################


                         Program Version 6.0.0  -   RELEASE  -


 With contributions from (in alphabetic order):
   Daniel Aravena         : Magnetic Suceptibility
   Michael Atanasov       : Ab Initio Ligand Field Theory (pilot matlab implementation)
   Alexander A. Auer      : GIAO ZORA, VPT2 properties, NMR spectrum
   Ute Becker             : All parallelization in ORCA, NUMFREQ, NUMCALC
   Giovanni Bistoni       : ED, misc. LED, open-shell LED, HFLD
   Martin Brehm           : Molecular dynamics
   Dmytro Bykov           : pre 5.0 version of the SCF Hessian
   Marcos Casanova-Páez   : Triplet and SCS-CIS(D). UHF-(DLPNO)-IP/EA/STEOM-CCSD. UHF-CVS-IP/STEOM-CCSD
   Vijay G. Chilkuri      : MRCI spin determinant printing, contributions to CSF-ICE
   Pauline Colinet        : FMM embedding
   Dipayan Datta          : RHF DLPNO-CCSD density
   Achintya Kumar Dutta   : EOM-CC, STEOM-CC
   Nicolas Foglia         : Exact transition moments, OPA infrastructure, MCD improvements
   Dmitry Ganyushin       : Spin-Orbit,Spin-Spin,Magnetic field MRCI
   Miquel Garcia          : C-PCM and meta-GGA Hessian, CCSD/C-PCM, Gaussian charge scheme
   Tiago L. C. Gouveia    : GS-ROHF, GS-ROCIS
   Yang Guo               : DLPNO-NEVPT2, F12-NEVPT2, CIM, IAO-localization
   Andreas Hansen         : Spin unrestricted coupled pair/coupled cluster methods
   Ingolf Harden          : AUTO-CI MPn and infrastructure 
   Benjamin Helmich-Paris : MC-RPA, TRAH-(SCF,CASSCF), AVAS, COSX integrals, SCF dyn. polar.
   Lee Huntington         : MR-EOM, pCC
   Robert Izsak           : Overlap fitted RIJCOSX, COSX-SCS-MP3, EOM
   Riya Kayal             : Wick's Theorem for AUTO-CI, AUTO-CI UHF-CCSDT
   Emily Kempfer          : AUTO-CI, RHF CISDT and CCSDT
   Christian Kollmar      : KDIIS, OOCD, Brueckner-CCSD(T), CCSD density, CASPT2, CASPT2-K, improved NEVPT2
   Axel Koslowski         : Symmetry handling
   Simone Kossmann        : Meta GGA functionals, TD-DFT gradient, OOMP2, (MP2 Hessian; deprecated post 5.0)
   Lucas Lang             : DCDCAS
   Marvin Lechner         : AUTO-CI (C++ implementation), FIC-MRCC
   Spencer Leger          : CASSCF response
   Dagmar Lenk            : GEPOL surface, SMD, ORCA-2-JSON
   Dimitrios Liakos       : Extrapolation schemes; Compound Job, initial MDCI parallelization
   Dimitrios Manganas     : Further ROCIS development; embedding schemes. LFT, Crystal Embedding
   Dimitrios Pantazis     : SARC Basis sets
   Anastasios Papadopoulos: AUTO-CI, single reference methods and gradients
   Taras Petrenko         : pre 6.0 DFT Hessian and TD-DFT gradient, (ASA, deprecated), ECA, 1-Electron XAS/XES, NRVS
   Peter Pinski           : DLPNO-MP2, DLPNO-MP2 Gradient
   Christoph Reimann      : Effective Core Potentials
   Marius Retegan         : Local ZFS, SOC
   Christoph Riplinger    : Optimizer, TS searches, QM/MM, DLPNO-CCSD(T), (RO)-DLPNO pert. Triples
   Michael Roemelt        : Original ROCIS implementation
   Masaaki Saitow         : Open-shell DLPNO-CCSD energy and density
   Barbara Sandhoefer     : DKH picture change effects
   Kantharuban Sivalingam : CASSCF convergence/infrastructure, NEVPT2 and variants, FIC-MRCI
   Bernardo de Souza      : ESD, SOC TD-DFT
   Georgi Stoychev        : AutoAux, RI-MP2 NMR, DLPNO-MP2 response, X2C
   Van Anh Tran           : RI-MP2 g-tensors
   Willem Van den Heuvel  : Paramagnetic NMR
   Zikuan Wang            : NOTCH, Electric field optimization 
   Frank Wennmohs         : Technical directorship and infrastructure
   Hang Xu                : AUTO-CI-Response properties 


 We gratefully acknowledge several colleagues who have allowed us to
 interface, adapt or use parts of their codes:
   Stefan Grimme, W. Hujo, H. Kruse, P. Pracht,  : VdW corrections, initial TS optimization,
                  C. Bannwarth, S. Ehlert,         DFT functionals, gCP, sTDA/sTD-DF
                  L. Wittmann, M. Mueller
   Ed Valeev, F. Pavosevic, A. Kumar             : LibInt (2-el integral package), F12 methods
   Garnet Chan, S. Sharma, J. Yang, R. Olivares  : DMRG
   Ulf Ekstrom                                   : XCFun DFT Library
   Mihaly Kallay                                 : mrcc  (arbitrary order and MRCC methods)
   Frank Weinhold                                : gennbo (NPA and NBO analysis)
   Simon Mueller                                 : openCOSMO-RS
   Christopher J. Cramer and Donald G. Truhlar   : smd solvation model
   Lars Goerigk                                  : TD-DFT with DH, B97 family of functionals
   V. Asgeirsson, H. Jonsson                     : NEB implementation
   FAccTs GmbH                                   : IRC, NEB, NEB-TS, DLPNO-Multilevel, CI-OPT
                                                   MM, QMMM, 2- and 3-layer-ONIOM, Crystal-QMMM,
                                                   LR-CPCM, SF, NACMEs, symmetry and pop. for TD-DFT,
                                                   nearIR, NL-DFT gradient (VV10), updates on ESD,
                                                   ML-optimized integration grids, MBIS, APM,
                                                   GOAT, DOCKER, SOLVATOR, interface openCOSMO-RS
   S Lehtola, MJT Oliveira, MAL Marques          : LibXC Library
   Liviu Ungur et al                             : ANISO software


 Your calculation uses the libint2 library for the computation of 2-el integrals
 For citations please refer to: http://libint.valeyev.net

 Your ORCA version has been built with support for libXC version: 6.2.2
 For citations please refer to: https://libxc.gitlab.io

 This ORCA versions uses:
   CBLAS   interface :  Fast vector & matrix operations
   LAPACKE interface :  Fast linear algebra routines
   SCALAPACK package :  Parallel linear algebra routines
   Shared memory     :  Shared parallel matrices
   BLAS/LAPACK       :  OpenBLAS 0.3.27  USE64BITINT DYNAMIC_ARCH NO_AFFINITY SkylakeX SINGLE_THREADED
        Core in use  :  SkylakeX
   Copyright (c) 2011-2014, The OpenBLAS Project




***************************************
The coordinates will be read from file: xtb_opt.xyz
***************************************


Your calculation utilizes the geometrical counterpoise correction gCP
Please cite in your paper:
H.Kruse, S. Grimme J.Chem.Phys., 136, (2012), 154101 
   

Your calculation utilizes the atom-pairwise dispersion correction
based on EEQ partial charges (D4)


Your calculation utilizes the SMD solvation module
Please cite in your paper:
A.V. Marenich, C.J. Cramer, D.G. Truhlar J. Phys. Chem. B, 113, (2009), 6378 

================================================================================

----- Orbital basis set information -----
Your calculation utilizes the basis: def2-mTZVPP
   Stefan Grimme, Andreas Hansen, Sebastian Ehlert, and Jan-Michael Mewes 
   J. Chem. Phys. 154, 064103 (2021). DOI: 10.1063/5.0040021

----- AuxJ basis set information -----
Your calculation utilizes the auxiliary basis: def2/J
   F. Weigend, Phys. Chem. Chem. Phys. 8, 1057 (2006).

================================================================================
                                        WARNINGS
                       Please study these warnings very carefully!
================================================================================

Using LibXC functional ID 497 : Re-regularized SCAN exchange by Furness et al
[ 1]  J. W. Furness, A. D. Kaplan, J. Ning, J. P. Perdew, and J. Sun.,  J. Phys. Chem. Lett. 11, 8208-8215 (2020)
[ 2]  J. W. Furness, A. D. Kaplan, J. Ning, J. P. Perdew, and J. Sun.,  J. Phys. Chem. Lett. 11, 9248-9248 (2020)
Using LibXC functional ID 498 : Re-regularized SCAN correlation by Furness et al
[ 1]  J. W. Furness, A. D. Kaplan, J. Ning, J. P. Perdew, and J. Sun.,  J. Phys. Chem. Lett. 11, 8208-8215 (2020)
[ 2]  J. W. Furness, A. D. Kaplan, J. Ning, J. P. Perdew, and J. Sun.,  J. Phys. Chem. Lett. 11, 9248-9248 (2020)
Using LibXC functional ID 497 : Re-regularized SCAN exchange by Furness et al
[ 1]  J. W. Furness, A. D. Kaplan, J. Ning, J. P. Perdew, and J. Sun.,  J. Phys. Chem. Lett. 11, 8208-8215 (2020)
[ 2]  J. W. Furness, A. D. Kaplan, J. Ning, J. P. Perdew, and J. Sun.,  J. Phys. Chem. Lett. 11, 9248-9248 (2020)
Using LibXC functional ID 498 : Re-regularized SCAN correlation by Furness et al
[ 1]  J. W. Furness, A. D. Kaplan, J. Ning, J. P. Perdew, and J. Sun.,  J. Phys. Chem. Lett. 11, 8208-8215 (2020)
[ 2]  J. W. Furness, A. D. Kaplan, J. Ning, J. P. Perdew, and J. Sun.,  J. Phys. Chem. Lett. 11, 9248-9248 (2020)

================================================================================
                                       INPUT FILE
================================================================================
NAME = xtb_opt.inp
|  1> ! r2scan-3c def2/J RI DEFGRID2 scfconv7 ENGRAD tightSCF miniprint
|  2> %cpcm
|  3>     smd true
|  4>     smdsolvent "water"
|  5> end
|  6> * xyzfile 0 1 xtb_opt.xyz
|  7> 
|  8>                          ****END OF INPUT****
================================================================================

                     *******************************
                     * Energy+Gradient Calculation *
                     *******************************

---------------------------------
CARTESIAN COORDINATES (ANGSTROEM)
---------------------------------
  C     -3.063259   -0.386627    0.010464
  C     -1.602248   -0.050836   -0.007335
  C     -1.175891    1.271020   -0.005208
  C      0.172958    1.568362   -0.001313
  C      1.140184    0.569908    0.000709
  C      0.722853   -0.762024   -0.002010
  C     -0.637938   -1.046072   -0.005696
  C      1.684841   -1.915649   -0.000184
  C      2.593167    0.947983    0.004453
  H     -3.626791    0.316706   -0.598408
  H     -3.234316   -1.393828   -0.360747
  H     -3.445433   -0.329460    1.029804
  H     -1.903578    2.070029   -0.007634
  H      0.485475    2.603465   -0.001092
  H     -0.949560   -2.082021   -0.008333
  H      1.500019   -2.553203   -0.863510
  H      2.717651   -1.587966   -0.027737
  H      1.536663   -2.518938    0.894486
  H      3.093544    0.551025    0.886477
  H      3.096627    0.558007   -0.878991
  H      2.699956    2.029699    0.008609

----------------------------
CARTESIAN COORDINATES (A.U.)
----------------------------
  NO LB      ZA    FRAG     MASS         X           Y           Z
   0 C     6.0000    0    12.011   -5.788721   -0.730619    0.019774
   1 C     6.0000    0    12.011   -3.027810   -0.096066   -0.013861
   2 C     6.0000    0    12.011   -2.222112    2.401880   -0.009841
   3 C     6.0000    0    12.011    0.326843    2.963775   -0.002481
   4 C     6.0000    0    12.011    2.154636    1.076970    0.001340
   5 C     6.0000    0    12.011    1.365994   -1.440017   -0.003799
   6 C     6.0000    0    12.011   -1.205528   -1.976790   -0.010764
   7 C     6.0000    0    12.011    3.183888   -3.620051   -0.000348
   8 C     6.0000    0    12.011    4.900375    1.791429    0.008416
   9 H     1.0000    0     1.008   -6.853642    0.598487   -1.130828
  10 H     1.0000    0     1.008   -6.111972   -2.633952   -0.681714
  11 H     1.0000    0     1.008   -6.510924   -0.622589    1.946048
  12 H     1.0000    0     1.008   -3.597240    3.911789   -0.014427
  13 H     1.0000    0     1.008    0.917414    4.919836   -0.002064
  14 H     1.0000    0     1.008   -1.794409   -3.934450   -0.015747
  15 H     1.0000    0     1.008    2.834626   -4.824855   -1.631797
  16 H     1.0000    0     1.008    5.135617   -3.000820   -0.052414
  17 H     1.0000    0     1.008    2.903873   -4.760103    1.690334
  18 H     1.0000    0     1.008    5.845951    1.041286    1.675200
  19 H     1.0000    0     1.008    5.851777    1.054480   -1.661051
  20 H     1.0000    0     1.008    5.102178    3.835576    0.016269

------------------------------------------------------------------------------
                   ___                                                        
                  /   \      - P O W E R E D   B Y -                         
                 /     \                                                     
                 |  |  |   _    _      __       _____    __    __             
                 |  |  |  | |  | |    /  \     |  _  \  |  |  /  |          
                  \  \/   | |  | |   /    \    | | | |  |  | /  /          
                 / \  \   | |__| |  /  /\  \   | |_| |  |  |/  /          
                |  |  |   |  __  | /  /__\  \  |    /   |      \           
                |  |  |   | |  | | |   __   |  |    \   |  |\   \          
                \     /   | |  | | |  |  |  |  | |\  \  |  | \   \       
                 \___/    |_|  |_| |__|  |__|  |_| \__\ |__|  \__/        
                                                                              
                      - O R C A' S   B I G   F R I E N D -                    
                                      &                                       
                       - I N T E G R A L  F E E D E R -                       
                                                                              
 v1 FN, 2020, v2 2021, v3 2022-2024                                           
------------------------------------------------------------------------------


----------------------
SHARK INTEGRAL PACKAGE
----------------------

Number of atoms                             ...     21
Number of basis functions                   ...    231
Number of shells                            ...    117
Maximum angular momentum                    ...      2
Integral batch strategy                     ... SHARK/LIBINT Hybrid
RI-J (if used) integral strategy            ... SPLIT-RIJ (Revised 2003 algorithm where possible)
Printlevel                                  ...      1
Contraction scheme used                     ... SEGMENTED contraction
Prescreening option                         ... SCHWARTZ
   Thresh                                   ... 3.000e-11
   Tcut                                     ... 1.000e-12
   Tpresel                                  ... 1.000e-12 
Coulomb Range Separation                    ... NOT USED
Exchange Range Separation                   ... NOT USED
Multipole approximations                    ... NOT USED
Finite Nucleus Model                        ... NOT USED
CABS basis                                  ... NOT available
Auxiliary Coulomb fitting basis             ... AVAILABLE
   # of basis functions in Aux-J            ...    573
   # of shells in Aux-J                     ...    195
   Maximum angular momentum in Aux-J        ...      4
Auxiliary J/K fitting basis                 ... NOT available
Auxiliary Correlation fitting basis         ... NOT available
Auxiliary 'external' fitting basis          ... NOT available

Checking pre-screening integrals            ... done (  0.0 sec) Dimension = 117
Check shell pair data                       ... done (  0.0 sec)
Shell pair information
Shell pair cut-off parameter TPreSel        ...   1.0e-12
Total number of shell pairs                 ...      6903
Shell pairs after pre-screening             ...      6149
Total number of primitive shell pairs       ...     24987
Primitive shell pairs kept                  ...     15712
          la=0 lb=0:   2122 shell pairs
          la=1 lb=0:   2397 shell pairs
          la=1 lb=1:    705 shell pairs
          la=2 lb=0:    562 shell pairs
          la=2 lb=1:    320 shell pairs
          la=2 lb=2:     43 shell pairs

Calculating one electron integrals          ... done (  0.0 sec)
Calculating RI/J V-Matrix + Cholesky decomp.... done (  0.3 sec)
Calculating Nuclear repulsion               ... done (  0.0 sec) ENN=    425.025257641780 Eh

Diagonalization of the overlap matrix:
Smallest eigenvalue                        ... 2.065e-05
Time for diagonalization                   ...    0.006 sec
Threshold for overlap eigenvalues          ... 1.000e-07
Number of eigenvalues below threshold      ... 0
Time for construction of square roots      ...    0.015 sec
Total time needed                          ...    0.248 sec

-------------------
DFT GRID GENERATION
-------------------

General Integration Accuracy     IntAcc      ... 4.388
Radial Grid Type                 RadialGrid  ... OptM3 with GC (2021)
Angular Grid (max. ang.)         AngularGrid ... 4 (Lebedev-302)
Angular grid pruning method      GridPruning ... 4 (adaptive)
Weight generation scheme         WeightScheme... mBecke (2022)
Basis function cutoff            BFCut       ... 1.0000e-11
Integration weight cutoff        WCut        ... 1.0000e-14
Partially contracted basis set               ... off
Rotationally invariant grid construction     ... off
Angular grids for H and He will be reduced by one unit

Total number of grid points                  ...    92372
Total number of batches                      ...     1456
Average number of points per batch           ...       63
Average number of grid points per atom       ...     4399
Initializing property integral containers    ... done (  0.0 sec)

SHARK setup successfully completed in   2.8 seconds

Maximum memory used throughout the entire STARTUP-calculation: 40.7 MB
Occupation numbers will be reassigned to an Aufbau configuration
             **** ENERGY FILE WAS UPDATED (xtb_opt.en.tmp) ****
Finished Guess after   1.8 sec
Maximum memory used throughout the entire GUESS-calculation: 16.3 MB
--------------------
CPCM SOLVATION MODEL
--------------------
CPCM parameters:
  Epsilon                                         ...      78.3550
  Refrac                                          ...       1.3328
  Rsolv                                           ...       1.3000
  Surface type                                    ... GAUSSIAN VDW
  Discretization scheme                           ... Constant charge density
    Threshold for H atoms                         ...       5.0000 (charges/Ang^2)
    Threshold for non-H atoms                     ...       5.0000 (charges/Ang^2)
  Epsilon function type                           ...         CPCM
Solvent:                                          ... WATER
SMD-CDS solvent descriptors:
  Soln                                            ...       1.3328
  Soln25                                          ...       1.3323
  Sola                                            ...       0.0000
  Solb                                            ...       0.0000
  Solg                                            ...       0.0000
  Solc                                            ...       0.0000
  Solh                                            ...       0.0000
Radii:
  Scheme                                          ... Element-dependent radii
  Radius for C  used is    3.4960 Bohr (=   1.8500 Ang.)
  Radius for H  used is    2.2677 Bohr (=   1.2000 Ang.)
Calculating surface                               ...        done! (  0.0s)
Cavity surface points                             ...         1600
Cavity Volume                                     ...     978.0671
Cavity Surface-area                               ...     606.0848
Calculating surface distance matrix               ...        done! (  0.0s)
Performing Cholesky decomposition & store         ...        done! (  0.4s)
Overall time for CPCM initialization              ...                 0.4s

----------------------------------------D-I-I-S--------------------------------------------
Iteration    Energy (Eh)           Delta-E    RMSDP     MaxDP     DIISErr   Damp  Time(sec)
-------------------------------------------------------------------------------------------
               ***  Starting incremental Fock matrix formation  ***
                              *** Initializing SOSCF ***
---------------------------------------S-O-S-C-F--------------------------------------
Iteration    Energy (Eh)           Delta-E    RMSDP     MaxDP     MaxGrad    Time(sec)
--------------------------------------------------------------------------------------
    1    -350.0926169440452327     0.00e+00  5.26e-06  1.01e-04  1.13e-05     5.1
               *** Restarting incremental Fock matrix formation ***
    2    -350.0926169539445141    -9.90e-09  3.21e-06  5.04e-05  1.96e-05     6.0
                  *** Gradient check signals convergence ***

               *****************************************************
               *                     SUCCESS                       *
               *           SCF CONVERGED AFTER   2 CYCLES          *
               *****************************************************


SMD CDS free energy correction energy :                 3.98406     Kcal/mol
Total Energy after SMD CDS correction =              -350.086267946 Eh
             **** ENERGY FILE WAS UPDATED (xtb_opt.en.tmp) ****

----------------
TOTAL SCF ENERGY
----------------

Total Energy       :       -350.08626794600087 Eh           -9526.33166 eV

Components:
Nuclear Repulsion  :        425.02525764178034 Eh           11565.52524 eV
Electronic Energy  :       -775.10937215069521 Eh          -21091.79830 eV
One Electron Energy:      -1313.42627265496048 Eh          -35740.14587 eV
Two Electron Energy:        538.31690050426528 Eh           14648.34757 eV
CPCM Dielectric    :         -0.00850244502968 Eh              -0.23136 eV
SMD CDS (Gcds)     :          0.00634900794362 Eh               0.17277 eV

Virial components:
Potential Energy   :       -698.72776069036468 Eh          -19013.34899 eV
Kinetic Energy     :        348.64149274436380 Eh            9487.01733 eV
Virial Ratio       :          2.00414401392750

DFT components:
N(Alpha)           :       33.000088789375 electrons
N(Beta)            :       33.000088789375 electrons
N(Total)           :       66.000177578750 electrons
E(X)               :      -51.168416425160 Eh       
E(C)               :       -2.088418788790 Eh       
E(XC)              :      -53.256835213950 Eh       

CPCM Solvation Model Properties:
Surface-charge          :         -0.04952494196228
Corrected charge        :         -0.00000000000000
Outlying charge corr.   :          0.00018155464700 Eh               0.00494 eV
Free-energy (cav+disp)  :          0.00634900794362 Eh               0.17277 eV

---------------
SCF CONVERGENCE
---------------

  Last Energy change         ...    9.8993e-09  Tolerance :   1.0000e-07
  Last MAX-Density change    ...    5.0376e-05  Tolerance :   1.0000e-07
  Last RMS-Density change    ...    3.2051e-06  Tolerance :   5.0000e-09
  Last DIIS Error            ...    6.3134e-05  Tolerance :   1.0000e-07
  Last Orbital Gradient      ...    1.9558e-05  Tolerance :   1.0000e-04
  Last Orbital Rotation      ...    1.0763e-04  Tolerance :   1.0000e-04


----------------
ORBITAL ENERGIES
----------------

  NO   OCC          E(Eh)            E(eV) 
   0   2.0000     -10.035482      -273.0794 
   1   2.0000     -10.034630      -273.0562 
   2   2.0000     -10.033393      -273.0225 
   3   2.0000     -10.023479      -272.7527 
   4   2.0000     -10.020897      -272.6825 
   5   2.0000     -10.019980      -272.6575 
   6   2.0000     -10.016117      -272.5524 
   7   2.0000     -10.015855      -272.5453 
   8   2.0000     -10.015641      -272.5395 
   9   2.0000      -0.828508       -22.5448 
  10   2.0000      -0.754607       -20.5339 
  11   2.0000      -0.728498       -19.8234 
  12   2.0000      -0.681328       -18.5399 
  13   2.0000      -0.649524       -17.6744 
  14   2.0000      -0.612667       -16.6715 
  15   2.0000      -0.561208       -15.2712 
  16   2.0000      -0.523225       -14.2377 
  17   2.0000      -0.448749       -12.2111 
  18   2.0000      -0.444562       -12.0971 
  19   2.0000      -0.403163       -10.9706 
  20   2.0000      -0.399133       -10.8610 
  21   2.0000      -0.380035       -10.3413 
  22   2.0000      -0.369806       -10.0629 
  23   2.0000      -0.367468        -9.9993 
  24   2.0000      -0.363890        -9.9020 
  25   2.0000      -0.356732        -9.7072 
  26   2.0000      -0.343363        -9.3434 
  27   2.0000      -0.330945        -9.0055 
  28   2.0000      -0.310279        -8.4431 
  29   2.0000      -0.294989        -8.0271 
  30   2.0000      -0.292710        -7.9650 
  31   2.0000      -0.225138        -6.1263 
  32   2.0000      -0.210286        -5.7222 
  33   0.0000      -0.028591        -0.7780 
  34   0.0000      -0.017619        -0.4794 
  35   0.0000       0.089396         2.4326 
  36   0.0000       0.101393         2.7591 
  37   0.0000       0.105143         2.8611 
  38   0.0000       0.110473         3.0061 
  39   0.0000       0.120383         3.2758 
  40   0.0000       0.139387         3.7929 
  41   0.0000       0.152127         4.1396 
  42   0.0000       0.159024         4.3273 
  43   0.0000       0.161055         4.3825 
*Only the first 10 virtual orbitals were printed.
Total SCF time: 0 days 0 hours 0 min 12 sec 
Finished LeanSCF after  12.8 sec

Maximum memory used throughout the entire LEANSCF-calculation: 34.1 MB


-------------------------------------------------------------------------------
                          DFT DISPERSION CORRECTION                            
                                                                               
                                DFTD4 V3.4.0                                   
-------------------------------------------------------------------------------
-------------------------   ----------------
Dispersion correction           -0.006931156
-------------------------   ----------------

------------------   -----------------
gCP correction             0.007751448
------------------   -----------------

-------------------------   --------------------
FINAL SINGLE POINT ENERGY      -350.085447653807
-------------------------   --------------------

------------------------------------------------------------------------------
                         ORCA SCF GRADIENT CALCULATION
------------------------------------------------------------------------------

Nuc. rep. gradient        (SHARK) ... done (  0.0 sec)
HCore & Overlap gradient  (SHARK) ... done (  0.4 sec)
Split-RIJ-J gradient      (SHARK) ... done (  2.0 sec)
XC gradient                       ... done (  8.5 sec)
CPCM gradient                     ... done (  1.2 sec)
SMD gradient                      ... done (  0.0 sec)
Dispersion correction             ... done (  0.0 sec)

-------------------
DISPERSION GRADIENT
-------------------

   1   C   :   -0.000111622   -0.000018082    0.000000960
   2   C   :   -0.000096290    0.000003885   -0.000000343
   3   C   :   -0.000070310    0.000078138   -0.000000571
   4   C   :    0.000007608    0.000106023   -0.000000275
   5   C   :    0.000060878    0.000039684   -0.000000074
   6   C   :    0.000045442   -0.000048647   -0.000000294
   7   C   :   -0.000043355   -0.000066360   -0.000000645
   8   C   :    0.000067473   -0.000103189    0.000000104
   9   C   :    0.000107230    0.000049968    0.000000226
  10   H   :   -0.000040759   -0.000001155   -0.000005803
  11   H   :   -0.000041873   -0.000015619   -0.000003758
  12   H   :   -0.000042025   -0.000006753    0.000010761
  13   H   :   -0.000026100    0.000037688   -0.000000389
  14   H   :    0.000003863    0.000049658   -0.000000006
  15   H   :   -0.000016216   -0.000042440   -0.000000446
  16   H   :    0.000020413   -0.000047503   -0.000011723
  17   H   :    0.000030149   -0.000031231   -0.000000298
  18   H   :    0.000020671   -0.000047321    0.000012256
  19   H   :    0.000043813    0.000016532    0.000011482
  20   H   :    0.000043880    0.000016650   -0.000011331
  21   H   :    0.000037130    0.000030076    0.000000169

Difference to translation invariance:
           :   -0.0000000000    0.0000000000    0.0000000000

Difference to rotation invariance:
           :   -0.0000000000   -0.0000000000    0.0000000000

Norm of the Dispersion gradient    ...    0.0003410974
RMS gradient                       ...    0.0000429742
MAX gradient                       ...    0.0001116215
gCP correction                   ... done

------------------
CARTESIAN GRADIENT
------------------

   1   C   :   -0.003872517   -0.000809426   -0.000371853
   2   C   :    0.006116557    0.001494033    0.000796804
   3   C   :    0.002548918   -0.002662530    0.000084651
   4   C   :    0.000405141   -0.003885501   -0.000288303
   5   C   :   -0.006365861   -0.002625822   -0.000111914
   6   C   :   -0.003049831    0.004751262   -0.000194062
   7   C   :    0.001330546    0.001576007    0.000086788
   8   C   :    0.001916475   -0.004044265    0.000078650
   9   C   :    0.004015354    0.001067258    0.000107902
  10   H   :    0.003295304   -0.002092010    0.001738824
  11   H   :    0.001826273    0.003693144    0.001017451
  12   H   :    0.003262204    0.000226193   -0.003215354
  13   H   :    0.003078112   -0.003246474    0.000161357
  14   H   :   -0.001607517   -0.003826228    0.000057170
  15   H   :    0.001588361    0.004449213    0.000204293
  16   H   :   -0.000430343    0.003397411    0.002554401
  17   H   :   -0.004494534    0.000167348    0.000099828
  18   H   :   -0.000685029    0.003307760   -0.002762102
  19   H   :   -0.003892853    0.001336461   -0.002335977
  20   H   :   -0.003917890    0.001309415    0.002321844
  21   H   :   -0.001066868   -0.003583249   -0.000030398

Difference to translation invariance:
           :    0.0000000000    0.0000000000   -0.0000000000

Difference to rotation invariance:
           :    0.0000462779   -0.0001445428   -0.0004274770

Norm of the Cartesian gradient     ...    0.0209574210
RMS gradient                       ...    0.0026403869
MAX gradient                       ...    0.0063658612

-------
TIMINGS
-------

Total SCF gradient time     ....       13.112 sec

Densities                   ....       0.001 sec  (  0.0%)
One electron gradient       ....       0.394 sec  (  3.0%)
RI-J Coulomb gradient       ....       2.043 sec  ( 15.6%)
XC gradient                 ....       8.463 sec  ( 64.5%)
CPCM gradient               ....       1.230 sec  (  9.4%)
   A-Matrix (El+Nuc)        ....       0.095 sec  (  0.7%)
   Potential                ....       1.136 sec  (  8.7%)
SMD gradient                ....       0.012 sec  (  0.1%)

Maximum memory used throughout the entire SCFGRAD-calculation: 36.6 MB

------------------------------------------------------------------------------
                              ORCA PROPERTY CALCULATIONS
------------------------------------------------------------------------------

GBWName                                 ... xtb_opt.gbw
Number of atoms                         ...     21
Number of basis functions               ...    231
Max core memory                         ...   1024 MB

Electric properties:
Dipole moment                           ... YES
Quadrupole moment                       ...  NO
Static polarizability (Dipole/Dipole)   ...  NO
Static polarizability (Dipole/Quad.)    ...  NO
Static polarizability (Quad./Quad.)     ...  NO
Static polarizability (Velocity)        ...  NO

Atomic electric properties:
Dipole moment                           ...  NO
Quadrupole moment                       ...  NO
Static polarizability                   ...  NO

Choice of electric origin               ... Center of mass
Position of electric origin             ...     0.000003    -0.000004     0.000000

General magnetic properties:
Magnetizability                         ...  NO

EPR properties:
g-Tensor (aka g-matrix)                 ...  NO
Zero-Field splitting spin-orbit         ...  NO
Zero-field splitting spin-spin          ...  NO
Hyperfine couplings                     ...  NO (   0 nuclei)
Quadrupole couplings                    ...  NO (   0 nuclei)
Contact density                         ...  NO (   0 nuclei)

NMR properties:
Chemical shifts                         ...  NO (   0 nuclei)
Spin-rotation constants                 ...  NO (   0 nuclei)
Spin-spin couplings                     ...  NO (   0 nuclei,    0 pairs)

Choice of magnetic origin               ... GIAO
Position of magnetic origin             ...     0.000000     0.000000     0.000000

Properties with geometric perturbations:
SCF Hessian                             ...  NO
IR spectrum                             ...  NO
VCD spectrum                            ...  NO
X-ray spectroscopy properties:
SCF XES/XAS/RIXS spectra                ...  NO


-------------
DIPOLE MOMENT
-------------

Method             : SCF
Type of density    : Electron Density
Multiplicity       :   1
Irrep              :   0
Energy             :  -350.0862679460008735 Eh
Relativity type    : 
Basis              : AO
                                X                 Y                 Z
Electronic contribution:     -1.698860074       1.977502334      -0.039841582
Nuclear contribution   :      1.848432004      -2.192012150       0.068415965
                        -----------------------------------------
Total Dipole Moment    :      0.149571930      -0.214509817       0.028574383
                        -----------------------------------------
Magnitude (a.u.)       :      0.263064097
Magnitude (Debye)      :      0.668655795



--------------------
Rotational spectrum 
--------------------
 
Rotational constants in cm-1:             0.097826             0.043653             0.030700 
Rotational constants in MHz :          2932.749394          1308.689377           920.366444 

Dipole components along the rotational axes: 
x,y,z [a.u.] :     0.148384     0.215328     0.028613 
x,y,z [Debye]:     0.377161     0.547321     0.072728 

 

Dipole moment calculation done in   0.0 sec 

Maximum memory used throughout the entire PROP-calculation: 15.2 MB

--------------------------------
SUGGESTED CITATIONS FOR THIS RUN
--------------------------------

Below you find a list of papers that are relevant to this ORCA run
We neither can nor want to force you to cite these papers, but we appreciate if you do
You receive ORCA, which is the product of decades of hard work by many enthusiastic individuals, for free
The only thing we kindly ask in return is that you cite our papers,
We deeply appreciate it, if you show your appreciation for ORCA by not just citing the generic ORCA reference.

Please note that relegating all ORCA citations to the supporting information does *not* help us.
SI sections are not indexed - citations you put there will not count into any citation statistics
But we need these citations in order to attract the funding resources that allow us to do what we are doing

Therefore, if you are a happy ORCA user, please consider citing a few of the papers listed below in the main body of your paper

In addition to the list printed below, the program has created the file xtb_opt.bibtex that contains the list in bibtex format
You can import this file easily into all common literature databanks and citation aid programs


List of essential papers. We consider these as the minimum necessary citations

  1. Neese,F.
     Software update: the ORCA program system, version 5.0
     WIRES Comput. Molec. Sci., 2022 12(1)e1606
     doi.org/10.1002/wcms.1606
  2. Grimme,S.; Hansen,A.; Ehlert,S.; Mewes,J.
     r2SCAN-3c: A 'Swiss army knife' composite electronic-structure method
     J. Chem. Phys., 2021 154 064103
     doi.org/10.1063/5.0040021

List of papers to cite with high priority. The work reported in these papers was absolutely
necessary for this run to complete.
Our perspective: the developers of density functionals and basis sets usually get cited in chemistry papers
Good! But without the algorithms to do something with them, the functionals or basis sets would not do anything.
Hence, in our opinion, the algorithm design and method developments papers are equally worthy of getting cited

  1. Neese,F.
     An improvement of the resolution of the identity approximation for the formation of the Coulomb matrix
     J. Comp. Chem., 2003 24(14)1740-1747
     doi.org/10.1002/jcc.10318
  2. Garcia-Rates,M.; Neese,F.
     Effect of the Solute Cavity on the Solvation Energy and its Derivatives within the Framework of the Gaussian Charge Scheme
     J. Comput. Chem., 2020 41 922-939
     doi.org/10.1002/jcc.26139
  3. Neese,F.
     The SHARK Integral Generation and Digestion System
     J. Comp. Chem., 2022  1-16
     doi.org/10.1002/jcc.26942
  4. Lehtola,S.; Steigemann,C.; Oliveira,M.; Marques,M.
     Recent developments in Libxc - A comprehensive library of functionals for density functional theory
     Software X, 2018 7 
     doi.org/10.1016/j.softx.2017.11.002
  5. Caldeweyher,E.; Bannwarth,C.; Grimme,S.
     Extension of the D3 dispersion coefficient model
     J. Chem. Phys., 2017 147 034112-XXXX
     doi.org/10.1063/1.4993215
  6. Caldeweyher,E.; Ehlert,S.; Hansen,A.; Neugebauer,H.; Spicher,S.; Bannwarth,C.; Grimme,S.
     A generally applicable atomic-charge dependent London dispersion correction
     J. Chem. Phys., 2019 150 154122-XXXX
     doi.org/10.1063/1.5090222
  7. Caldeweyher,E.; Mewes,J.; Ehlert,S.; Grimme,S.
     Extension and evaluation of the D4 London-dispersion model for periodic systems
     Phys. Chem. Chem. Phys., 2020 22(16)8499-8512
     doi.org/10.1039/D0CP00502A

List of suggested additional citations. These are papers that are important in the 'surrounding' of 
of this run, or papers that preceded the highly important papers. If you like your results we are grateful for a citation.

  1. Neese,F.
     The ORCA program system
     WIRES Comput. Molec. Sci., 2012 2(1)73-78
     doi.org/10.1002/wcms.81
  2. Neese,F.
     Software update: the ORCA program system, version 4.0
     WIRES Comput. Molec. Sci., 2018 8(1)1-6
     doi.org/10.1002/wcms.1327
  3. Neese,F.; Wennmohs,F.; Becker,U.; Riplinger,C.
     The ORCA quantum chemistry program package
     J. Chem. Phys., 2020 152 Art. No. L224108
     doi.org/10.1063/5.0004608

List of optional additional citations

  1. Neese,F.
     Approximate second-order SCF convergence for spin unrestricted wavefunctions
     Chem. Phys. Lett., 2000 325(1-3)93-98
     doi.org/10.1016/s0009-2614(00)00662-x

Timings for individual modules:

Sum of individual times          ...       32.174 sec (=   0.536 min)
Startup calculation              ...        4.155 sec (=   0.069 min)  12.9 %
SCF iterations                   ...       14.694 sec (=   0.245 min)  45.7 %
Property calculations            ...        0.111 sec (=   0.002 min)   0.3 %
SCF Gradient evaluation          ...       13.215 sec (=   0.220 min)  41.1 %
                             ****ORCA TERMINATED NORMALLY****
TOTAL RUN TIME: 0 days 0 hours 0 minutes 33 seconds 828 msec
  ------------------------------------------------------------------------
          * successful ORCA run, taking over control again...

         :::::::::::::::::::::::::::::::::::::::::::::::::::::
         ::                  ORCA SUMMARY                   ::
         :::::::::::::::::::::::::::::::::::::::::::::::::::::
         :: total energy            -350.085447653807 Eh    ::
         :: gradient norm              0.020957421026 Eh/a0 ::
         :: HOMO-LUMO gap              0.000000000000 eV    ::
         :::::::::::::::::::::::::::::::::::::::::::::::::::::

      ----------------------------------------------------------- 
     |                       L-ANC optimizer                     |
      ----------------------------------------------------------- 
          low memory version by Sebastian Ehlert

          ...................................................
          :                      SETUP                      :
          :.................................................:
          :   energy convergence        0.5000000E-05 Eh    :
          :   grad. convergence         0.1000000E-02 Eh/a0 :
          :   optimization log               true           :
          :   writing optlog all                1     steps :
          :   Hessian reset                     8     steps :
          :   maximium step len.        1.0000000     a0    :
          :   LBFGS images                      8           :
          ...................................................
 * calculating model hessian...
Using Lindh-Hessian (1995)
 Shifting diagonal of input Hessian by   1.000000000000000E-002
 Lowest  eigenvalues of input Hessian
    0.000000    0.000000    0.000000    0.000000    0.000000    0.000000
    0.012428    0.014959    0.018801    0.019332    0.020705    0.021030
    0.022333    0.024499    0.029088    0.039449    0.043018    0.044074
 Highest eigenvalues
    1.426610    1.563435    1.625155    1.882383    1.965848    2.017184
 

........................................................................
.............................. CYCLE    1 ..............................
........................................................................
                         * ORCA takes the control...
  ------------------------------------------------------------------------

                                 *****************
                                 * O   R   C   A *
                                 *****************

                                            #,                                       
                                            ###                                      
                                            ####                                     
                                            #####                                    
                                            ######                                   
                                           ########,                                 
                                     ,,################,,,,,                         
                               ,,#################################,,                 
                          ,,##########################################,,             
                       ,#########################################, ''#####,          
                    ,#############################################,,   '####,        
                  ,##################################################,,,,####,       
                ,###########''''           ''''###############################       
              ,#####''   ,,,,##########,,,,          '''####'''          '####       
            ,##' ,,,,###########################,,,                        '##       
           ' ,,###''''                  '''############,,,                           
         ,,##''                                '''############,,,,        ,,,,,,###''
      ,#''                                            '''#######################'''  
     '                                                          ''''####''''         
             ,#######,   #######,   ,#######,      ##                                
            ,#'     '#,  ##    ##  ,#'     '#,    #''#        ,####,   ,####,        
            ##       ##  ##   ,#'  ##            #'  '#       #'       #'  '#        
            ##       ##  #######   ##           ,######,      #####,   #    #        
            '#,     ,#'  ##    ##  '#,     ,#' ,#      #,     #,   #   #,  ,#        
             '#######'   ##     ##  '#######'  #'      '#     '####' # '####'        



                #########################################################
                #                        -***-                          #
                #          Department of theory and spectroscopy        #
                #                                                       #
                #                      Frank Neese                      #
                #                                                       #
                #     Directorship, Architecture, Infrastructure        #
                #                    SHARK, DRIVERS                     #
                #        Core code/Algorithms in most modules           #
                #                                                       #
                #        Max Planck Institute fuer Kohlenforschung      #
                #                Kaiser Wilhelm Platz 1                 #
                #                 D-45470 Muelheim/Ruhr                 #
                #                      Germany                          #
                #                                                       #
                #                  All rights reserved                  #
                #                        -***-                          #
                #########################################################


                         Program Version 6.0.0  -   RELEASE  -


 With contributions from (in alphabetic order):
   Daniel Aravena         : Magnetic Suceptibility
   Michael Atanasov       : Ab Initio Ligand Field Theory (pilot matlab implementation)
   Alexander A. Auer      : GIAO ZORA, VPT2 properties, NMR spectrum
   Ute Becker             : All parallelization in ORCA, NUMFREQ, NUMCALC
   Giovanni Bistoni       : ED, misc. LED, open-shell LED, HFLD
   Martin Brehm           : Molecular dynamics
   Dmytro Bykov           : pre 5.0 version of the SCF Hessian
   Marcos Casanova-Páez   : Triplet and SCS-CIS(D). UHF-(DLPNO)-IP/EA/STEOM-CCSD. UHF-CVS-IP/STEOM-CCSD
   Vijay G. Chilkuri      : MRCI spin determinant printing, contributions to CSF-ICE
   Pauline Colinet        : FMM embedding
   Dipayan Datta          : RHF DLPNO-CCSD density
   Achintya Kumar Dutta   : EOM-CC, STEOM-CC
   Nicolas Foglia         : Exact transition moments, OPA infrastructure, MCD improvements
   Dmitry Ganyushin       : Spin-Orbit,Spin-Spin,Magnetic field MRCI
   Miquel Garcia          : C-PCM and meta-GGA Hessian, CCSD/C-PCM, Gaussian charge scheme
   Tiago L. C. Gouveia    : GS-ROHF, GS-ROCIS
   Yang Guo               : DLPNO-NEVPT2, F12-NEVPT2, CIM, IAO-localization
   Andreas Hansen         : Spin unrestricted coupled pair/coupled cluster methods
   Ingolf Harden          : AUTO-CI MPn and infrastructure 
   Benjamin Helmich-Paris : MC-RPA, TRAH-(SCF,CASSCF), AVAS, COSX integrals, SCF dyn. polar.
   Lee Huntington         : MR-EOM, pCC
   Robert Izsak           : Overlap fitted RIJCOSX, COSX-SCS-MP3, EOM
   Riya Kayal             : Wick's Theorem for AUTO-CI, AUTO-CI UHF-CCSDT
   Emily Kempfer          : AUTO-CI, RHF CISDT and CCSDT
   Christian Kollmar      : KDIIS, OOCD, Brueckner-CCSD(T), CCSD density, CASPT2, CASPT2-K, improved NEVPT2
   Axel Koslowski         : Symmetry handling
   Simone Kossmann        : Meta GGA functionals, TD-DFT gradient, OOMP2, (MP2 Hessian; deprecated post 5.0)
   Lucas Lang             : DCDCAS
   Marvin Lechner         : AUTO-CI (C++ implementation), FIC-MRCC
   Spencer Leger          : CASSCF response
   Dagmar Lenk            : GEPOL surface, SMD, ORCA-2-JSON
   Dimitrios Liakos       : Extrapolation schemes; Compound Job, initial MDCI parallelization
   Dimitrios Manganas     : Further ROCIS development; embedding schemes. LFT, Crystal Embedding
   Dimitrios Pantazis     : SARC Basis sets
   Anastasios Papadopoulos: AUTO-CI, single reference methods and gradients
   Taras Petrenko         : pre 6.0 DFT Hessian and TD-DFT gradient, (ASA, deprecated), ECA, 1-Electron XAS/XES, NRVS
   Peter Pinski           : DLPNO-MP2, DLPNO-MP2 Gradient
   Christoph Reimann      : Effective Core Potentials
   Marius Retegan         : Local ZFS, SOC
   Christoph Riplinger    : Optimizer, TS searches, QM/MM, DLPNO-CCSD(T), (RO)-DLPNO pert. Triples
   Michael Roemelt        : Original ROCIS implementation
   Masaaki Saitow         : Open-shell DLPNO-CCSD energy and density
   Barbara Sandhoefer     : DKH picture change effects
   Kantharuban Sivalingam : CASSCF convergence/infrastructure, NEVPT2 and variants, FIC-MRCI
   Bernardo de Souza      : ESD, SOC TD-DFT
   Georgi Stoychev        : AutoAux, RI-MP2 NMR, DLPNO-MP2 response, X2C
   Van Anh Tran           : RI-MP2 g-tensors
   Willem Van den Heuvel  : Paramagnetic NMR
   Zikuan Wang            : NOTCH, Electric field optimization 
   Frank Wennmohs         : Technical directorship and infrastructure
   Hang Xu                : AUTO-CI-Response properties 


 We gratefully acknowledge several colleagues who have allowed us to
 interface, adapt or use parts of their codes:
   Stefan Grimme, W. Hujo, H. Kruse, P. Pracht,  : VdW corrections, initial TS optimization,
                  C. Bannwarth, S. Ehlert,         DFT functionals, gCP, sTDA/sTD-DF
                  L. Wittmann, M. Mueller
   Ed Valeev, F. Pavosevic, A. Kumar             : LibInt (2-el integral package), F12 methods
   Garnet Chan, S. Sharma, J. Yang, R. Olivares  : DMRG
   Ulf Ekstrom                                   : XCFun DFT Library
   Mihaly Kallay                                 : mrcc  (arbitrary order and MRCC methods)
   Frank Weinhold                                : gennbo (NPA and NBO analysis)
   Simon Mueller                                 : openCOSMO-RS
   Christopher J. Cramer and Donald G. Truhlar   : smd solvation model
   Lars Goerigk                                  : TD-DFT with DH, B97 family of functionals
   V. Asgeirsson, H. Jonsson                     : NEB implementation
   FAccTs GmbH                                   : IRC, NEB, NEB-TS, DLPNO-Multilevel, CI-OPT
                                                   MM, QMMM, 2- and 3-layer-ONIOM, Crystal-QMMM,
                                                   LR-CPCM, SF, NACMEs, symmetry and pop. for TD-DFT,
                                                   nearIR, NL-DFT gradient (VV10), updates on ESD,
                                                   ML-optimized integration grids, MBIS, APM,
                                                   GOAT, DOCKER, SOLVATOR, interface openCOSMO-RS
   S Lehtola, MJT Oliveira, MAL Marques          : LibXC Library
   Liviu Ungur et al                             : ANISO software


 Your calculation uses the libint2 library for the computation of 2-el integrals
 For citations please refer to: http://libint.valeyev.net

 Your ORCA version has been built with support for libXC version: 6.2.2
 For citations please refer to: https://libxc.gitlab.io

 This ORCA versions uses:
   CBLAS   interface :  Fast vector & matrix operations
   LAPACKE interface :  Fast linear algebra routines
   SCALAPACK package :  Parallel linear algebra routines
   Shared memory     :  Shared parallel matrices
   BLAS/LAPACK       :  OpenBLAS 0.3.27  USE64BITINT DYNAMIC_ARCH NO_AFFINITY SkylakeX SINGLE_THREADED
        Core in use  :  SkylakeX
   Copyright (c) 2011-2014, The OpenBLAS Project




***************************************
The coordinates will be read from file: xtb_opt.xyz
***************************************


Your calculation utilizes the geometrical counterpoise correction gCP
Please cite in your paper:
H.Kruse, S. Grimme J.Chem.Phys., 136, (2012), 154101 
   

Your calculation utilizes the atom-pairwise dispersion correction
based on EEQ partial charges (D4)


Your calculation utilizes the SMD solvation module
Please cite in your paper:
A.V. Marenich, C.J. Cramer, D.G. Truhlar J. Phys. Chem. B, 113, (2009), 6378 

================================================================================

----- Orbital basis set information -----
Your calculation utilizes the basis: def2-mTZVPP
   Stefan Grimme, Andreas Hansen, Sebastian Ehlert, and Jan-Michael Mewes 
   J. Chem. Phys. 154, 064103 (2021). DOI: 10.1063/5.0040021

----- AuxJ basis set information -----
Your calculation utilizes the auxiliary basis: def2/J
   F. Weigend, Phys. Chem. Chem. Phys. 8, 1057 (2006).

================================================================================
                                        WARNINGS
                       Please study these warnings very carefully!
================================================================================

WARNING: Old DensityContainer found on disk!
         Will remove this file - 
         If you want to keep old densities, please start your calculation with a different basename. 

Using LibXC functional ID 497 : Re-regularized SCAN exchange by Furness et al
[ 1]  J. W. Furness, A. D. Kaplan, J. Ning, J. P. Perdew, and J. Sun.,  J. Phys. Chem. Lett. 11, 8208-8215 (2020)
[ 2]  J. W. Furness, A. D. Kaplan, J. Ning, J. P. Perdew, and J. Sun.,  J. Phys. Chem. Lett. 11, 9248-9248 (2020)
Using LibXC functional ID 498 : Re-regularized SCAN correlation by Furness et al
[ 1]  J. W. Furness, A. D. Kaplan, J. Ning, J. P. Perdew, and J. Sun.,  J. Phys. Chem. Lett. 11, 8208-8215 (2020)
[ 2]  J. W. Furness, A. D. Kaplan, J. Ning, J. P. Perdew, and J. Sun.,  J. Phys. Chem. Lett. 11, 9248-9248 (2020)
Using LibXC functional ID 497 : Re-regularized SCAN exchange by Furness et al
[ 1]  J. W. Furness, A. D. Kaplan, J. Ning, J. P. Perdew, and J. Sun.,  J. Phys. Chem. Lett. 11, 8208-8215 (2020)
[ 2]  J. W. Furness, A. D. Kaplan, J. Ning, J. P. Perdew, and J. Sun.,  J. Phys. Chem. Lett. 11, 9248-9248 (2020)
Using LibXC functional ID 498 : Re-regularized SCAN correlation by Furness et al
[ 1]  J. W. Furness, A. D. Kaplan, J. Ning, J. P. Perdew, and J. Sun.,  J. Phys. Chem. Lett. 11, 8208-8215 (2020)
[ 2]  J. W. Furness, A. D. Kaplan, J. Ning, J. P. Perdew, and J. Sun.,  J. Phys. Chem. Lett. 11, 9248-9248 (2020)

================================================================================
                                       INPUT FILE
================================================================================
NAME = xtb_opt.inp
|  1> ! r2scan-3c def2/J RI DEFGRID2 scfconv7 ENGRAD tightSCF miniprint
|  2> %cpcm
|  3>     smd true
|  4>     smdsolvent "water"
|  5> end
|  6> * xyzfile 0 1 xtb_opt.xyz
|  7> 
|  8>                          ****END OF INPUT****
================================================================================

                     *******************************
                     * Energy+Gradient Calculation *
                     *******************************

---------------------------------
CARTESIAN COORDINATES (ANGSTROEM)
---------------------------------
  C     -3.076556   -0.387529    0.012394
  C     -1.613136   -0.049099   -0.010226
  C     -1.183933    1.278582   -0.007164
  C      0.171649    1.576837   -0.000055
  C      1.145143    0.574345    0.002350
  C      0.724601   -0.763836   -0.001163
  C     -0.643272   -1.047565   -0.007809
  C      1.691847   -1.917632    0.000115
  C      2.602601    0.948630    0.005005
  H     -3.649573    0.315168   -0.596805
  H     -3.252469   -1.399099   -0.358758
  H     -3.468549   -0.332813    1.033265
  H     -1.914808    2.081224   -0.011548
  H      0.487512    2.615647   -0.001089
  H     -0.956896   -2.088477   -0.013030
  H      1.512106   -2.564308   -0.863470
  H      2.731221   -1.594606   -0.028189
  H      1.550454   -2.529959    0.895588
  H      3.115512    0.551331    0.885727
  H      3.117856    0.558424   -0.877583
  H      2.713615    2.034318    0.009250

----------------------------
CARTESIAN COORDINATES (A.U.)
----------------------------
  NO LB      ZA    FRAG     MASS         X           Y           Z
   0 C     6.0000    0    12.011   -5.813848   -0.732324    0.023421
   1 C     6.0000    0    12.011   -3.048385   -0.092784   -0.019325
   2 C     6.0000    0    12.011   -2.237310    2.416170   -0.013539
   3 C     6.0000    0    12.011    0.324369    2.979790   -0.000103
   4 C     6.0000    0    12.011    2.164006    1.085354    0.004441
   5 C     6.0000    0    12.011    1.369298   -1.443441   -0.002198
   6 C     6.0000    0    12.011   -1.215607   -1.979611   -0.014757
   7 C     6.0000    0    12.011    3.197127   -3.623800    0.000218
   8 C     6.0000    0    12.011    4.918203    1.792650    0.009458
   9 H     1.0000    0     1.008   -6.896693    0.595581   -1.127798
  10 H     1.0000    0     1.008   -6.146276   -2.643915   -0.677953
  11 H     1.0000    0     1.008   -6.554607   -0.628925    1.952588
  12 H     1.0000    0     1.008   -3.618462    3.932943   -0.021822
  13 H     1.0000    0     1.008    0.921265    4.942857   -0.002058
  14 H     1.0000    0     1.008   -1.808272   -3.946649   -0.024622
  15 H     1.0000    0     1.008    2.857467   -4.845839   -1.631722
  16 H     1.0000    0     1.008    5.161260   -3.013368   -0.053269
  17 H     1.0000    0     1.008    2.929934   -4.780930    1.692416
  18 H     1.0000    0     1.008    5.887464    1.041865    1.673782
  19 H     1.0000    0     1.008    5.891893    1.055268   -1.658392
  20 H     1.0000    0     1.008    5.127990    3.844304    0.017481

------------------------------------------------------------------------------
                   ___                                                        
                  /   \      - P O W E R E D   B Y -                         
                 /     \                                                     
                 |  |  |   _    _      __       _____    __    __             
                 |  |  |  | |  | |    /  \     |  _  \  |  |  /  |          
                  \  \/   | |  | |   /    \    | | | |  |  | /  /          
                 / \  \   | |__| |  /  /\  \   | |_| |  |  |/  /          
                |  |  |   |  __  | /  /__\  \  |    /   |      \           
                |  |  |   | |  | | |   __   |  |    \   |  |\   \          
                \     /   | |  | | |  |  |  |  | |\  \  |  | \   \       
                 \___/    |_|  |_| |__|  |__|  |_| \__\ |__|  \__/        
                                                                              
                      - O R C A' S   B I G   F R I E N D -                    
                                      &                                       
                       - I N T E G R A L  F E E D E R -                       
                                                                              
 v1 FN, 2020, v2 2021, v3 2022-2024                                           
------------------------------------------------------------------------------


----------------------
SHARK INTEGRAL PACKAGE
----------------------

Number of atoms                             ...     21
Number of basis functions                   ...    231
Number of shells                            ...    117
Maximum angular momentum                    ...      2
Integral batch strategy                     ... SHARK/LIBINT Hybrid
RI-J (if used) integral strategy            ... SPLIT-RIJ (Revised 2003 algorithm where possible)
Printlevel                                  ...      1
Contraction scheme used                     ... SEGMENTED contraction
Prescreening option                         ... SCHWARTZ
   Thresh                                   ... 3.000e-11
   Tcut                                     ... 1.000e-12
   Tpresel                                  ... 1.000e-12 
Coulomb Range Separation                    ... NOT USED
Exchange Range Separation                   ... NOT USED
Multipole approximations                    ... NOT USED
Finite Nucleus Model                        ... NOT USED
CABS basis                                  ... NOT available
Auxiliary Coulomb fitting basis             ... AVAILABLE
   # of basis functions in Aux-J            ...    573
   # of shells in Aux-J                     ...    195
   Maximum angular momentum in Aux-J        ...      4
Auxiliary J/K fitting basis                 ... NOT available
Auxiliary Correlation fitting basis         ... NOT available
Auxiliary 'external' fitting basis          ... NOT available

Checking pre-screening integrals            ... done (  0.0 sec) Dimension = 117
Check shell pair data                       ... done (  0.0 sec)
Shell pair information
Shell pair cut-off parameter TPreSel        ...   1.0e-12
Total number of shell pairs                 ...      6903
Shell pairs after pre-screening             ...      6143
Total number of primitive shell pairs       ...     24987
Primitive shell pairs kept                  ...     15685
          la=0 lb=0:   2122 shell pairs
          la=1 lb=0:   2395 shell pairs
          la=1 lb=1:    701 shell pairs
          la=2 lb=0:    562 shell pairs
          la=2 lb=1:    320 shell pairs
          la=2 lb=2:     43 shell pairs

Calculating one electron integrals          ... done (  0.0 sec)
Calculating RI/J V-Matrix + Cholesky decomp.... done (  0.4 sec)
Calculating Nuclear repulsion               ... done (  0.0 sec) ENN=    423.191691049216 Eh

Diagonalization of the overlap matrix:
Smallest eigenvalue                        ... 2.148e-05
Time for diagonalization                   ...    0.006 sec
Threshold for overlap eigenvalues          ... 1.000e-07
Number of eigenvalues below threshold      ... 0
Time for construction of square roots      ...    0.019 sec
Total time needed                          ...    0.041 sec

-------------------
DFT GRID GENERATION
-------------------

General Integration Accuracy     IntAcc      ... 4.388
Radial Grid Type                 RadialGrid  ... OptM3 with GC (2021)
Angular Grid (max. ang.)         AngularGrid ... 4 (Lebedev-302)
Angular grid pruning method      GridPruning ... 4 (adaptive)
Weight generation scheme         WeightScheme... mBecke (2022)
Basis function cutoff            BFCut       ... 1.0000e-11
Integration weight cutoff        WCut        ... 1.0000e-14
Partially contracted basis set               ... off
Rotationally invariant grid construction     ... off
Angular grids for H and He will be reduced by one unit

Total number of grid points                  ...    92413
Total number of batches                      ...     1456
Average number of points per batch           ...       63
Average number of grid points per atom       ...     4401
Initializing property integral containers    ... done (  0.0 sec)

SHARK setup successfully completed in   4.0 seconds

Maximum memory used throughout the entire STARTUP-calculation: 40.7 MB
Occupation numbers will be reassigned to an Aufbau configuration
             **** ENERGY FILE WAS UPDATED (xtb_opt.en.tmp) ****
Finished Guess after   1.0 sec
Maximum memory used throughout the entire GUESS-calculation: 16.3 MB
--------------------
CPCM SOLVATION MODEL
--------------------
CPCM parameters:
  Epsilon                                         ...      78.3550
  Refrac                                          ...       1.3328
  Rsolv                                           ...       1.3000
  Surface type                                    ... GAUSSIAN VDW
  Discretization scheme                           ... Constant charge density
    Threshold for H atoms                         ...       5.0000 (charges/Ang^2)
    Threshold for non-H atoms                     ...       5.0000 (charges/Ang^2)
  Epsilon function type                           ...         CPCM
Solvent:                                          ... WATER
SMD-CDS solvent descriptors:
  Soln                                            ...       1.3328
  Soln25                                          ...       1.3323
  Sola                                            ...       0.0000
  Solb                                            ...       0.0000
  Solg                                            ...       0.0000
  Solc                                            ...       0.0000
  Solh                                            ...       0.0000
Radii:
  Scheme                                          ... Element-dependent radii
  Radius for C  used is    3.4960 Bohr (=   1.8500 Ang.)
  Radius for H  used is    2.2677 Bohr (=   1.2000 Ang.)
Calculating surface                               ...        done! (  0.0s)
Cavity surface points                             ...         1606
Cavity Volume                                     ...     982.4039
Cavity Surface-area                               ...     608.9181
Calculating surface distance matrix               ...        done! (  0.0s)
Performing Cholesky decomposition & store         ...        done! (  0.4s)
Overall time for CPCM initialization              ...                 0.5s

----------------------------------------D-I-I-S--------------------------------------------
Iteration    Energy (Eh)           Delta-E    RMSDP     MaxDP     DIISErr   Damp  Time(sec)
-------------------------------------------------------------------------------------------
               ***  Starting incremental Fock matrix formation  ***
                              *** Initializing SOSCF ***
---------------------------------------S-O-S-C-F--------------------------------------
Iteration    Energy (Eh)           Delta-E    RMSDP     MaxDP     MaxGrad    Time(sec)
--------------------------------------------------------------------------------------
    1    -350.0934546864314143     0.00e+00  2.66e-04  5.16e-03  2.92e-04     5.3
               *** Restarting incremental Fock matrix formation ***
    2    -350.0935722455907353    -1.18e-04  9.85e-05  1.86e-03  3.34e-04     5.1
    3    -350.0935739233566437    -1.68e-06  3.30e-05  6.10e-04  3.50e-04     4.8
    4    -350.0935820720221727    -8.15e-06  1.38e-05  2.16e-04  9.72e-05     4.7
    5    -350.0935815753522320     4.97e-07  7.15e-06  1.39e-04  1.64e-04     5.9
    6    -350.0935822897673688    -7.14e-07  1.05e-06  1.54e-05  3.90e-06     4.9
                  *** Gradient check signals convergence ***

               *****************************************************
               *                     SUCCESS                       *
               *           SCF CONVERGED AFTER   6 CYCLES          *
               *****************************************************


SMD CDS free energy correction energy :                 4.00168     Kcal/mol
Total Energy after SMD CDS correction =              -350.087205209 Eh
             **** ENERGY FILE WAS UPDATED (xtb_opt.en.tmp) ****

----------------
TOTAL SCF ENERGY
----------------

Total Energy       :       -350.08720520944166 Eh           -9526.35716 eV

Components:
Nuclear Repulsion  :        423.19169104921639 Eh           11515.63136 eV
Electronic Energy  :       -773.27653769050539 Eh          -21041.92434 eV
One Electron Energy:      -1309.80218029895786 Eh          -35641.52931 eV
Two Electron Energy:        536.52564260845247 Eh           14599.60496 eV
CPCM Dielectric    :         -0.00873564847833 Eh              -0.23771 eV
SMD CDS (Gcds)     :          0.00637708032569 Eh               0.17353 eV

Virial components:
Potential Energy   :       -698.52586476326837 Eh          -19007.85512 eV
Kinetic Energy     :        348.43865955382665 Eh            9481.49796 eV
Virial Ratio       :          2.00473123636087

DFT components:
N(Alpha)           :       33.000080104520 electrons
N(Beta)            :       33.000080104520 electrons
N(Total)           :       66.000160209041 electrons
E(X)               :      -51.119908652441 Eh       
E(C)               :       -2.086032812017 Eh       
E(XC)              :      -53.205941464459 Eh       

CPCM Solvation Model Properties:
Surface-charge          :         -0.04985646504301
Corrected charge        :         -0.00000000000000
Outlying charge corr.   :          0.00018356895964 Eh               0.00500 eV
Free-energy (cav+disp)  :          0.00637708032569 Eh               0.17353 eV

---------------
SCF CONVERGENCE
---------------

  Last Energy change         ...    7.1442e-07  Tolerance :   1.0000e-07
  Last MAX-Density change    ...    1.5365e-05  Tolerance :   1.0000e-07
  Last RMS-Density change    ...    1.0517e-06  Tolerance :   5.0000e-09
  Last DIIS Error            ...    2.5699e-03  Tolerance :   1.0000e-07
  Last Orbital Gradient      ...    3.9017e-06  Tolerance :   1.0000e-04
  Last Orbital Rotation      ...    1.4882e-05  Tolerance :   1.0000e-04


----------------
ORBITAL ENERGIES
----------------

  NO   OCC          E(Eh)            E(eV) 
   0   2.0000     -10.038408      -273.1590 
   1   2.0000     -10.037604      -273.1371 
   2   2.0000     -10.036479      -273.1065 
   3   2.0000     -10.026597      -272.8376 
   4   2.0000     -10.024065      -272.7687 
   5   2.0000     -10.022983      -272.7392 
   6   2.0000     -10.018422      -272.6151 
   7   2.0000     -10.018139      -272.6074 
   8   2.0000     -10.017845      -272.5994 
   9   2.0000      -0.825873       -22.4732 
  10   2.0000      -0.753129       -20.4937 
  11   2.0000      -0.726769       -19.7764 
  12   2.0000      -0.680093       -18.5063 
  13   2.0000      -0.648490       -17.6463 
  14   2.0000      -0.612266       -16.6606 
  15   2.0000      -0.560095       -15.2410 
  16   2.0000      -0.522941       -14.2299 
  17   2.0000      -0.448126       -12.1941 
  18   2.0000      -0.443009       -12.0549 
  19   2.0000      -0.403611       -10.9828 
  20   2.0000      -0.397024       -10.8036 
  21   2.0000      -0.378345       -10.2953 
  22   2.0000      -0.369677       -10.0594 
  23   2.0000      -0.365530        -9.9466 
  24   2.0000      -0.363352        -9.8873 
  25   2.0000      -0.357693        -9.7333 
  26   2.0000      -0.342505        -9.3200 
  27   2.0000      -0.330607        -8.9963 
  28   2.0000      -0.309122        -8.4116 
  29   2.0000      -0.295698        -8.0464 
  30   2.0000      -0.293599        -7.9892 
  31   2.0000      -0.224953        -6.1213 
  32   2.0000      -0.210482        -5.7275 
  33   0.0000      -0.030347        -0.8258 
  34   0.0000      -0.020052        -0.5457 
  35   0.0000       0.088995         2.4217 
  36   0.0000       0.100597         2.7374 
  37   0.0000       0.104693         2.8489 
  38   0.0000       0.107390         2.9222 
  39   0.0000       0.119864         3.2617 
  40   0.0000       0.138546         3.7700 
  41   0.0000       0.150863         4.1052 
  42   0.0000       0.157486         4.2854 
  43   0.0000       0.159947         4.3524 
*Only the first 10 virtual orbitals were printed.
Total SCF time: 0 days 0 hours 0 min 32 sec 
Finished LeanSCF after  32.7 sec

Maximum memory used throughout the entire LEANSCF-calculation: 34.2 MB


-------------------------------------------------------------------------------
                          DFT DISPERSION CORRECTION                            
                                                                               
                                DFTD4 V3.4.0                                   
-------------------------------------------------------------------------------
-------------------------   ----------------
Dispersion correction           -0.006899933
-------------------------   ----------------

------------------   -----------------
gCP correction             0.007679159
------------------   -----------------

-------------------------   --------------------
FINAL SINGLE POINT ENERGY      -350.086425983567
[...]
  Last Orbital Gradient      ...    1.4855e-05  Tolerance :   1.0000e-04
  Last Orbital Rotation      ...    7.8434e-05  Tolerance :   1.0000e-04


----------------
ORBITAL ENERGIES
----------------

  NO   OCC          E(Eh)            E(eV) 
   0   2.0000     -10.039653      -273.1928 
   1   2.0000     -10.038810      -273.1699 
   2   2.0000     -10.037741      -273.1408 
   3   2.0000     -10.027669      -272.8667 
   4   2.0000     -10.025222      -272.8001 
   5   2.0000     -10.024146      -272.7709 
   6   2.0000     -10.019342      -272.6401 
   7   2.0000     -10.019026      -272.6315 
   8   2.0000     -10.018630      -272.6208 
   9   2.0000      -0.824816       -22.4444 
  10   2.0000      -0.752579       -20.4787 
  11   2.0000      -0.726140       -19.7593 
  12   2.0000      -0.679714       -18.4959 
  13   2.0000      -0.648185       -17.6380 
  14   2.0000      -0.612244       -16.6600 
  15   2.0000      -0.559594       -15.2273 
  16   2.0000      -0.522997       -14.2315 
  17   2.0000      -0.448048       -12.1920 
  18   2.0000      -0.442401       -12.0383 
  19   2.0000      -0.403927       -10.9914 
  20   2.0000      -0.396153       -10.7799 
  21   2.0000      -0.377551       -10.2737 
  22   2.0000      -0.369577       -10.0567 
  23   2.0000      -0.364755        -9.9255 
  24   2.0000      -0.363097        -9.8804 
  25   2.0000      -0.358368        -9.7517 
  26   2.0000      -0.342282        -9.3140 
  27   2.0000      -0.330450        -8.9920 
  28   2.0000      -0.308656        -8.3990 
  29   2.0000      -0.296318        -8.0632 
  30   2.0000      -0.293678        -7.9914 
  31   2.0000      -0.224884        -6.1194 
  32   2.0000      -0.210538        -5.7290 
  33   0.0000      -0.030965        -0.8426 
  34   0.0000      -0.021133        -0.5750 
  35   0.0000       0.088895         2.4190 
  36   0.0000       0.100259         2.7282 
  37   0.0000       0.104486         2.8432 
  38   0.0000       0.106302         2.8926 
  39   0.0000       0.119713         3.2575 
  40   0.0000       0.138232         3.7615 
  41   0.0000       0.150284         4.0894 
  42   0.0000       0.156954         4.2709 
  43   0.0000       0.159489         4.3399 
*Only the first 10 virtual orbitals were printed.
Total SCF time: 0 days 0 hours 0 min 11 sec 
Finished LeanSCF after  11.4 sec

Maximum memory used throughout the entire LEANSCF-calculation: 34.2 MB


-------------------------------------------------------------------------------
                          DFT DISPERSION CORRECTION                            
                                                                               
                                DFTD4 V3.4.0                                   
-------------------------------------------------------------------------------
-------------------------   ----------------
Dispersion correction           -0.006886620
-------------------------   ----------------

------------------   -----------------
gCP correction             0.007658313
------------------   -----------------

-------------------------   --------------------
FINAL SINGLE POINT ENERGY      -350.086519416586
-------------------------   --------------------

------------------------------------------------------------------------------
                         ORCA SCF GRADIENT CALCULATION
------------------------------------------------------------------------------

Nuc. rep. gradient        (SHARK) ... done (  0.0 sec)
HCore & Overlap gradient  (SHARK) ... done (  0.4 sec)
Split-RIJ-J gradient      (SHARK) ... done (  2.0 sec)
XC gradient                       ... done (  8.3 sec)
CPCM gradient                     ... done (  1.2 sec)
SMD gradient                      ... done (  0.0 sec)
Dispersion correction             ... done (  0.0 sec)

-------------------
DISPERSION GRADIENT
-------------------

   1   C   :   -0.000111264   -0.000018379    0.000001112
   2   C   :   -0.000095986    0.000003745   -0.000000487
   3   C   :   -0.000069345    0.000078342   -0.000000782
   4   C   :    0.000006819    0.000106100   -0.000000283
   5   C   :    0.000060706    0.000040082    0.000000045
   6   C   :    0.000044972   -0.000049406   -0.000000307
   7   C   :   -0.000043548   -0.000066289   -0.000000913
   8   C   :    0.000067516   -0.000103328    0.000000117
   9   C   :    0.000107509    0.000049840    0.000000367
  10   H   :   -0.000040234   -0.000001417   -0.000005541
  11   H   :   -0.000041296   -0.000015318   -0.000003546
  12   H   :   -0.000041556   -0.000006841    0.000010587
  13   H   :   -0.000025679    0.000037827   -0.000000518
  14   H   :    0.000003649    0.000049531   -0.000000013
  15   H   :   -0.000016299   -0.000042418   -0.000000634
  16   H   :    0.000020180   -0.000046946   -0.000011359
  17   H   :    0.000029547   -0.000031169   -0.000000327
  18   H   :    0.000020482   -0.000046755    0.000011972
  19   H   :    0.000043428    0.000016594    0.000011252
  20   H   :    0.000043540    0.000016727   -0.000010985
  21   H   :    0.000036859    0.000029476    0.000000244

Difference to translation invariance:
           :   -0.0000000000    0.0000000000   -0.0000000000

Difference to rotation invariance:
           :   -0.0000000000   -0.0000000000   -0.0000000000

Norm of the Dispersion gradient    ...    0.0003402632
RMS gradient                       ...    0.0000428691
MAX gradient                       ...    0.0001112643
gCP correction                   ... done

------------------
CARTESIAN GRADIENT
------------------

   1   C   :   -0.000015302    0.000008530    0.000008403
   2   C   :   -0.000043257   -0.000036906   -0.000033281
   3   C   :    0.000010888    0.000092978    0.000008689
   4   C   :    0.000048898    0.000036631    0.000032953
   5   C   :   -0.000013167   -0.000056086   -0.000042317
   6   C   :    0.000091208    0.000096577    0.000021733
   7   C   :   -0.000021047   -0.000078873    0.000039333
   8   C   :    0.000016465    0.000014598    0.000005203
   9   C   :    0.000011401    0.000017625    0.000004986
  10   H   :   -0.000023026    0.000014525   -0.000023413
  11   H   :   -0.000003955   -0.000026432   -0.000014163
  12   H   :   -0.000038629   -0.000003358    0.000022000
  13   H   :   -0.000053738    0.000007479    0.000006549
  14   H   :    0.000005734    0.000021509   -0.000003502
  15   H   :   -0.000004948   -0.000013700    0.000008109
  16   H   :    0.000021907   -0.000002216   -0.000057406
  17   H   :    0.000009279   -0.000027424    0.000059228
  18   H   :   -0.000068739   -0.000060837   -0.000006077
  19   H   :    0.000026541    0.000002777   -0.000001763
  20   H   :    0.000012363   -0.000017045   -0.000017822
  21   H   :    0.000031125    0.000009649   -0.000017440

Difference to translation invariance:
           :    0.0000000000   -0.0000000000    0.0000000000

Difference to rotation invariance:
           :    0.0000485033   -0.0001294344   -0.0004089173

Norm of the Cartesian gradient     ...    0.0002796211
RMS gradient                       ...    0.0000352289
MAX gradient                       ...    0.0000965775

-------
TIMINGS
-------

Total SCF gradient time     ....       12.910 sec

Densities                   ....       0.001 sec  (  0.0%)
One electron gradient       ....       0.390 sec  (  3.0%)
RI-J Coulomb gradient       ....       2.025 sec  ( 15.7%)
XC gradient                 ....       8.274 sec  ( 64.1%)
CPCM gradient               ....       1.233 sec  (  9.6%)
   A-Matrix (El+Nuc)        ....       0.096 sec  (  0.7%)
   Potential                ....       1.138 sec  (  8.8%)
SMD gradient                ....       0.012 sec  (  0.1%)

Maximum memory used throughout the entire SCFGRAD-calculation: 36.6 MB

------------------------------------------------------------------------------
                              ORCA PROPERTY CALCULATIONS
------------------------------------------------------------------------------

GBWName                                 ... xtb_opt.gbw
Number of atoms                         ...     21
Number of basis functions               ...    231
Max core memory                         ...   1024 MB

Electric properties:
Dipole moment                           ... YES
Quadrupole moment                       ...  NO
Static polarizability (Dipole/Dipole)   ...  NO
Static polarizability (Dipole/Quad.)    ...  NO
Static polarizability (Quad./Quad.)     ...  NO
Static polarizability (Velocity)        ...  NO

Atomic electric properties:
Dipole moment                           ...  NO
Quadrupole moment                       ...  NO
Static polarizability                   ...  NO

Choice of electric origin               ... Center of mass
Position of electric origin             ...    -0.004076     0.003253    -0.000541

General magnetic properties:
Magnetizability                         ...  NO

EPR properties:
g-Tensor (aka g-matrix)                 ...  NO
Zero-Field splitting spin-orbit         ...  NO
Zero-field splitting spin-spin          ...  NO
Hyperfine couplings                     ...  NO (   0 nuclei)
Quadrupole couplings                    ...  NO (   0 nuclei)
Contact density                         ...  NO (   0 nuclei)

NMR properties:
Chemical shifts                         ...  NO (   0 nuclei)
Spin-rotation constants                 ...  NO (   0 nuclei)
Spin-spin couplings                     ...  NO (   0 nuclei,    0 pairs)

Choice of magnetic origin               ... GIAO
Position of magnetic origin             ...     0.000000     0.000000     0.000000

Properties with geometric perturbations:
SCF Hessian                             ...  NO
IR spectrum                             ...  NO
VCD spectrum                            ...  NO
X-ray spectroscopy properties:
SCF XES/XAS/RIXS spectra                ...  NO


-------------
DIPOLE MOMENT
-------------

Method             : SCF
Type of density    : Electron Density
Multiplicity       :   1
Irrep              :   0
Energy             :  -350.0872911095586346 Eh
Relativity type    : 
Basis              : AO
                                X                 Y                 Z
Electronic contribution:     -1.738643247       2.008572397      -0.047074245
Nuclear contribution   :      1.894855614      -2.229076213       0.074569996
                        -----------------------------------------
Total Dipole Moment    :      0.156212367      -0.220503816       0.027495751
                        -----------------------------------------
Magnitude (a.u.)       :      0.271625207
Magnitude (Debye)      :      0.690416407



--------------------
Rotational spectrum 
--------------------
 
Rotational constants in cm-1:             0.097002             0.043041             0.030316 
Rotational constants in MHz :          2908.036032          1290.342704           908.859114 

Dipole components along the rotational axes: 
x,y,z [a.u.] :    -0.155185    -0.221224     0.027530 
x,y,z [Debye]:    -0.394450    -0.562306     0.069975 

 

Dipole moment calculation done in   0.0 sec 

Maximum memory used throughout the entire PROP-calculation: 15.1 MB

--------------------------------
SUGGESTED CITATIONS FOR THIS RUN
--------------------------------

Below you find a list of papers that are relevant to this ORCA run
We neither can nor want to force you to cite these papers, but we appreciate if you do
You receive ORCA, which is the product of decades of hard work by many enthusiastic individuals, for free
The only thing we kindly ask in return is that you cite our papers,
We deeply appreciate it, if you show your appreciation for ORCA by not just citing the generic ORCA reference.

Please note that relegating all ORCA citations to the supporting information does *not* help us.
SI sections are not indexed - citations you put there will not count into any citation statistics
But we need these citations in order to attract the funding resources that allow us to do what we are doing

Therefore, if you are a happy ORCA user, please consider citing a few of the papers listed below in the main body of your paper

In addition to the list printed below, the program has created the file xtb_opt.bibtex that contains the list in bibtex format
You can import this file easily into all common literature databanks and citation aid programs


List of essential papers. We consider these as the minimum necessary citations

  1. Neese,F.
     Software update: the ORCA program system, version 5.0
     WIRES Comput. Molec. Sci., 2022 12(1)e1606
     doi.org/10.1002/wcms.1606
  2. Grimme,S.; Hansen,A.; Ehlert,S.; Mewes,J.
     r2SCAN-3c: A 'Swiss army knife' composite electronic-structure method
     J. Chem. Phys., 2021 154 064103
     doi.org/10.1063/5.0040021

List of papers to cite with high priority. The work reported in these papers was absolutely
necessary for this run to complete.
Our perspective: the developers of density functionals and basis sets usually get cited in chemistry papers
Good! But without the algorithms to do something with them, the functionals or basis sets would not do anything.
Hence, in our opinion, the algorithm design and method developments papers are equally worthy of getting cited

  1. Neese,F.
     An improvement of the resolution of the identity approximation for the formation of the Coulomb matrix
     J. Comp. Chem., 2003 24(14)1740-1747
     doi.org/10.1002/jcc.10318
  2. Garcia-Rates,M.; Neese,F.
     Effect of the Solute Cavity on the Solvation Energy and its Derivatives within the Framework of the Gaussian Charge Scheme
     J. Comput. Chem., 2020 41 922-939
     doi.org/10.1002/jcc.26139
  3. Neese,F.
     The SHARK Integral Generation and Digestion System
     J. Comp. Chem., 2022  1-16
     doi.org/10.1002/jcc.26942
  4. Lehtola,S.; Steigemann,C.; Oliveira,M.; Marques,M.
     Recent developments in Libxc - A comprehensive library of functionals for density functional theory
     Software X, 2018 7 
     doi.org/10.1016/j.softx.2017.11.002
  5. Caldeweyher,E.; Bannwarth,C.; Grimme,S.
     Extension of the D3 dispersion coefficient model
     J. Chem. Phys., 2017 147 034112-XXXX
     doi.org/10.1063/1.4993215
  6. Caldeweyher,E.; Ehlert,S.; Hansen,A.; Neugebauer,H.; Spicher,S.; Bannwarth,C.; Grimme,S.
     A generally applicable atomic-charge dependent London dispersion correction
     J. Chem. Phys., 2019 150 154122-XXXX
     doi.org/10.1063/1.5090222
  7. Caldeweyher,E.; Mewes,J.; Ehlert,S.; Grimme,S.
     Extension and evaluation of the D4 London-dispersion model for periodic systems
     Phys. Chem. Chem. Phys., 2020 22(16)8499-8512
     doi.org/10.1039/D0CP00502A

List of suggested additional citations. These are papers that are important in the 'surrounding' of 
of this run, or papers that preceded the highly important papers. If you like your results we are grateful for a citation.

  1. Neese,F.
     The ORCA program system
     WIRES Comput. Molec. Sci., 2012 2(1)73-78
     doi.org/10.1002/wcms.81
  2. Neese,F.
     Software update: the ORCA program system, version 4.0
     WIRES Comput. Molec. Sci., 2018 8(1)1-6
     doi.org/10.1002/wcms.1327
  3. Neese,F.; Wennmohs,F.; Becker,U.; Riplinger,C.
     The ORCA quantum chemistry program package
     J. Chem. Phys., 2020 152 Art. No. L224108
     doi.org/10.1063/5.0004608

List of optional additional citations

  1. Neese,F.
     Approximate second-order SCF convergence for spin unrestricted wavefunctions
     Chem. Phys. Lett., 2000 325(1-3)93-98
     doi.org/10.1016/s0009-2614(00)00662-x

Timings for individual modules:

Sum of individual times          ...       32.929 sec (=   0.549 min)
Startup calculation              ...        5.878 sec (=   0.098 min)  17.9 %
SCF iterations                   ...       13.925 sec (=   0.232 min)  42.3 %
Property calculations            ...        0.114 sec (=   0.002 min)   0.3 %
SCF Gradient evaluation          ...       13.012 sec (=   0.217 min)  39.5 %
                             ****ORCA TERMINATED NORMALLY****
TOTAL RUN TIME: 0 days 0 hours 0 minutes 34 seconds 438 msec
  ------------------------------------------------------------------------
          * successful ORCA run, taking over control again...

         :::::::::::::::::::::::::::::::::::::::::::::::::::::
         ::                  ORCA SUMMARY                   ::
         :::::::::::::::::::::::::::::::::::::::::::::::::::::
         :: total energy            -350.086519416586 Eh    ::
         :: gradient norm              0.000279621101 Eh/a0 ::
         :: HOMO-LUMO gap              0.000000000000 eV    ::
         :::::::::::::::::::::::::::::::::::::::::::::::::::::

           -------------------------------------------------
          |                Property Printout                |
           -------------------------------------------------
           -------------------------------------------------
          |                Geometry Summary                 |
           -------------------------------------------------

      molecular mass/u    :      120.1919121
   center of mass at/Å    :       -0.0021576       0.0017222      -0.0002861
  moments of inertia/u·Å² :        0.1737818E+03   0.3916513E+03   0.5560427E+03
rotational constants/cm⁻¹ :        0.9700457E-01   0.4304245E-01   0.3031715E-01

 * 18 selected distances

     #   Z          #   Z                                           value/Å
     2   6 C        3   6 C                                       1.3979831
     3   6 C        4   6 C                                       1.3902504
     4   6 C        5   6 C                                       1.4001685
     5   6 C        6   6 C                                       1.4060792 (max)
     2   6 C        7   6 C                                       1.3947504
     6   6 C        7   6 C                                       1.3997993
     1   6 C       10   1 H                                       1.0941485
     1   6 C       11   1 H                                       1.0934294
     1   6 C       12   1 H                                       1.0967733
     3   6 C       13   1 H                                       1.0870836 (min)
     4   6 C       14   1 H                                       1.0872055
     7   6 C       15   1 H                                       1.0886587
     8   6 C       16   1 H                                       1.0954889
     8   6 C       17   1 H                                       1.0903666
     8   6 C       18   1 H                                       1.0958226
     9   6 C       19   1 H                                       1.0957213
     9   6 C       20   1 H                                       1.0957912
     9   6 C       21   1 H                                       1.0928336

 * 2 distinct bonds (by element types)

   Z      Z             #   av. dist./Å        max./Å        min./Å
   1 H    6 C          12     1.0927769     1.0967733     1.0870836
   6 C    6 C           6     1.3981718     1.4060792     1.3902504


optimized geometry written to: xtbopt.coord


           -------------------------------------------------
          | TOTAL ENERGY             -350.086519416586 Eh   |
          | GRADIENT NORM               0.000279621101 Eh/α |
           -------------------------------------------------

------------------------------------------------------------------------
 * finished run on 2025/04/03 at 20:23:39.189     
------------------------------------------------------------------------
 total:
 * wall-time:     0 d,  0 h,  3 min, 32.088 sec
 *  cpu-time:     0 d,  0 h,  0 min,  0.464 sec
 * ratio c/w:     0.002 speedup
 SCF:
 * wall-time:     0 d,  0 h,  0 min, 33.883 sec
 *  cpu-time:     0 d,  0 h,  0 min,  0.217 sec
 * ratio c/w:     0.006 speedup
 ANC optimizer:
 * wall-time:     0 d,  0 h,  2 min, 58.181 sec
 *  cpu-time:     0 d,  0 h,  0 min,  0.231 sec
 * ratio c/w:     0.001 speedup

