41
 energy: -2932.481628458729 gnorm: 0.001860276115 xtb: 6.7.1 (edcfbbe)
C            4.98213757088511       -1.77466316809401       -0.82324894205082
C            4.85799845033583       -0.43495429182756       -0.14208743956404
O            3.54265329562353       -0.26104507482938        0.48821962669630
P            2.21727752791218        0.13679603108442       -0.33440001652732
S            2.45735107076175        1.11991355377492       -1.99802577891371
O            1.32793739962720        0.84505170616219        0.79975805474695
C            1.36717872184070        2.29984671666130        1.01530903567896
C            2.66363362703680        2.73797900249447        1.65201535340481
S            1.28576794615265       -1.75648056839702       -0.47540828391298
C           -0.19267253638741       -1.36978918589142       -1.51482658844576
S           -1.80781310634746       -1.68040223990119       -0.70301799330733
P           -2.33619869591496        0.23430779621349        0.06465206499099
S           -2.01815870089951        1.74489952479117       -1.11701430900918
O           -1.61247365915714        0.43531734537799        1.47963037973183
C           -1.25760198061227       -0.63504985402803        2.42560212698354
C           -2.46265963286419       -1.24697047709244        3.09573247802351
O           -3.85717388829549       -0.06376578769464        0.49811817021743
C           -5.01780829407837        0.27593130901454       -0.33783283681506
C           -5.25320784493647       -0.74335657648774       -1.42301267480628
H            4.75968628918550       -2.58985939817087       -0.12822918541248
H            4.31624437781090       -1.85020402883217       -1.68822023110799
H            6.01209573090279       -1.89379667045281       -1.17586214594588
H            5.01947006540018        0.39566943849975       -0.83564719890127
H            5.55463113725618       -0.34169391427900        0.69359691940341
H            1.19201506541480        2.79303566355328        0.05448347280339
H            0.51174514277440        2.48139291341057        1.66964498863180
H            3.51360434459637        2.59511411105545        0.97734759406918
H            2.59363900056185        3.80490988879186        1.88785019045993
H            2.84943029986339        2.19082348024341        2.58064965492167
H           -0.16456213421545       -2.04212407406349       -2.37585714803790
H           -0.14402235686108       -0.33600634643906       -1.87561055742368
H           -0.66099589128306       -1.38003001585713        1.89073555960138
H           -0.61513314350456       -0.12342836190113        3.14586770043827
H           -2.11083349260270       -1.91975378261503        3.88525345218505
H           -3.09132843298581       -0.47842005006224        3.55498811773680
H           -3.06751663615079       -1.83133184210788        2.39709273022684
H           -5.84352093697686        0.30184354703411        0.37516580020306
H           -4.86405616351714        1.27945143981876       -0.74434674270535
H           -4.45340648452438       -0.73203194747626       -2.16888705763423
H           -5.33703797386829       -1.75037354249022       -1.00290760283972
H           -6.19466070794726       -0.49993668217187       -1.92806104180867
41
 energy: -2932.481625081492 gnorm: 0.001950795787 xtb: 6.7.1 (edcfbbe)
C            4.98230773066240       -1.77568137255128       -0.82478642199212
C            4.85646329788434       -0.43614253896017       -0.14392080014812
O            3.53961983460514       -0.26343971144935        0.48524109758883
P            2.21488405478001        0.13695632275878       -0.33787044402393
S            2.46294326955130        1.13032465283491       -1.99510071915958
O            1.32639612422056        0.84374190079134        0.79791383080019
C            1.36694676483735        2.29860475783945        1.01514072780095
C            2.66294495984386        2.73666460361252        1.65244294350670
S            1.28972948222217       -1.76163012685028       -0.47303870848705
C           -0.18951587524354       -1.36946978452985       -1.51019298968439
S           -1.80849128543895       -1.68050373356784       -0.70529029166869
P           -2.33626561260749        0.23334007516575        0.06576367267449
S           -2.01822059707288        1.74303551708697       -1.11801603213021
O           -1.61424512936507        0.43758912504906        1.48099863904871
C           -1.25802134500993       -0.63227802660799        2.42668589217474
C           -2.46249776605825       -1.24497434103117        3.09672111812217
O           -3.85730713169996       -0.06606541270921        0.49835454762772
C           -5.01830556889790        0.27444346112143       -0.33782893205837
C           -5.25393672889025       -0.74356702371176       -1.42482679484021
H            4.76107614347354       -2.59125092518086       -0.13014451489461
H            4.31722397838981       -1.85125349112582       -1.68990616772791
H            6.01245817422167       -1.89281099823690       -1.17665356434023
H            5.01793426340678        0.39473500868263       -0.83699592505341
H            5.55186026514846       -0.34299973192381        0.69274213069864
H            1.19279513425233        2.79274880253951        0.05468156057896
H            0.51158654749041        2.47994165618454        1.66922909785905
H            3.51324389905483        2.59378034205669        0.97844849827867
H            2.59257913419353        3.80371427291806        1.88783714076017
H            2.84825352365318        2.18978590042249        2.58137400918908
H           -0.16112070111840       -2.04079957809528       -2.37188062750901
H           -0.14014253344977       -0.33588100766309       -1.87132231486272
H           -0.66170389550522       -1.37696140330527        1.89127464943227
H           -0.61623202737945       -0.11951134917264        3.14596112062851
H           -2.10866654161309       -1.91830064143450        3.88440928287389
H           -3.08993080225953       -0.47663121261098        3.55723177488917
H           -3.06748729891641       -1.82972296241327        2.39846630916234
H           -5.84450528175370        0.29895875833096        0.37567871688765
H           -4.86533293779117        1.27933588455849       -0.74227771352708
H           -4.45473193875525       -0.72956943548815       -2.17076352272525
H           -5.33810996863341       -1.75128638809861       -1.00780659975929
H           -6.19483494868554       -0.50017022839162       -1.92884818887212
41
 energy: -2932.481641670603 gnorm: 0.000804626709 xtb: 6.7.1 (edcfbbe)
C            4.98351488738057       -1.77588114527960       -0.82508557518915
C            4.85898083256965       -0.43646698745238       -0.14365543087535
O            3.54306911557906       -0.26324447133131        0.48746076822040
P            2.21793246423593        0.13755237998090       -0.33509631641410
S            2.46172800000882        1.12672000935542       -1.99518924466227
O            1.32780819051478        0.84324492687098        0.80002307443275
C            1.36680604956282        2.29842488526114        1.01594544780231
C            2.66263411873206        2.73654663105993        1.65331302773451
S            1.28920171870239       -1.75773931902933       -0.47725711958237
C           -0.19207630782764       -1.37075789858070       -1.51286113171816
S           -1.80829812690640       -1.68141983848082       -0.70234009585046
P           -2.33691973638089        0.23325764216051        0.06564231177336
S           -2.01956550979997        1.74345225455257       -1.11792579239660
O           -1.61549228713851        0.43876171347329        1.48092852880940
C           -1.25838941807863       -0.63077227748519        2.42671639176702
C           -2.46217012902637       -1.24380113263970        3.09759496621077
O           -3.85781974518346       -0.06745032665255        0.49805668941179
C           -5.01921011333271        0.27343057482648       -0.33782992760284
C           -5.25433301958417       -0.74342796202420       -1.42619190022684
H            4.76292856196464       -2.59171307926440       -0.13063720324533
H            4.31783351084367       -1.85113084450768       -1.68970325179942
H            6.01330908720403       -1.89280611077799       -1.17787073605509
H            5.01929553785062        0.39437867976189       -0.83698293667206
H            5.55498523625129       -0.34347611276411        0.69240636487748
H            1.19306030946350        2.79186700760621        0.05506499075655
H            0.51116580722185        2.47954257065821        1.66958254811261
H            3.51308079461487        2.59334838804203        0.97961894016235
H            2.59193830204680        3.80371054592453        1.88803205444563
H            2.84771425942637        2.19015334003278        2.58259411744647
H           -0.16407775135263       -2.04233526551852       -2.37423764344924
H           -0.14349473821439       -0.33702990244749       -1.87353301718773
H           -0.66201792283888       -1.37535719327276        1.89127828220274
H           -0.61675698407211       -0.11758351687167        3.14562695222160
H           -2.10730341366707       -1.91746804197307        3.88443495647617
H           -3.08908498161973       -0.47569460119957        3.55898313071312
H           -3.06752826869699       -1.82849765014668        2.39963806892366
H           -5.84540430207400        0.29677298649880        0.37595994522898
H           -4.86663288670235        1.27897748883727       -0.74096474600800
H           -4.45527471252004       -0.72782989061262       -2.17217363210622
H           -5.33823624588396       -1.75167002656382       -1.01065039782322
H           -6.19526557368134       -0.49979483789385       -1.92962752254686
41
 energy: -2932.481644054320 gnorm: 0.000659419434 xtb: 6.7.1 (edcfbbe)
C            4.98451046271299       -1.77608038398766       -0.82601590459513
C            4.85944835481889       -0.43700026604108       -0.14400535627107
O            3.54347605260436       -0.26429075755169        0.48768914173359
P            2.21800686604939        0.13643730728823       -0.33456086187955
S            2.46144349976148        1.12558574033704       -1.99429398794074
O            1.32784168241977        0.84229456823235        0.80048933836962
C            1.36677404732710        2.29768869098825        1.01622787973948
C            2.66216317748348        2.73604201127857        1.65438515879830
S            1.28979765554272       -1.75890971325940       -0.47801451510896
C           -0.19062585136783       -1.36984630203915       -1.51384101366868
S           -1.80409658800773       -1.68089985173271       -0.69838617373704
P           -2.33839574039080        0.23358305339289        0.06515942923194
S           -2.02210220779563        1.74285829442821       -1.11918969207798
O           -1.61703612031811        0.43999362226224        1.48038366582635
C           -1.25864976407339       -0.62893711506079        2.42667649541000
C           -2.46142455462755       -1.24239293784294        3.09916234480585
O           -3.85906420579777       -0.06887672576014        0.49751115097410
C           -5.02084909848496        0.27215480448260       -0.33774963836862
C           -5.25455489931047       -0.74278488388277       -1.42797490956900
H            4.76464114372358       -2.59226689164499       -0.13164896194844
H            4.31840143447487       -1.85160176856583       -1.69044506392938
H            6.01431549981432       -1.89250021700967       -1.17943470139065
H            5.01933521238797        0.39398068895542       -0.83726476328175
H            5.55590016373245       -0.34383107086599        0.69168056603725
H            1.19329829162413        2.79071552924847        0.05510393216603
H            0.51068315514471        2.47896876889597        1.66933940839931
H            3.51300528802044        2.59243915487477        0.98119546959277
H            2.59157238531733        3.80331387092140        1.88862924371182
H            2.84663182419655        2.19008509515749        2.58402318549643
H           -0.16491116818981       -2.04223469313919       -2.37475461675448
H           -0.14319532441465       -0.33608091741202       -1.87468611192647
H           -0.66190614478559       -1.37338048548041        1.89141604303259
H           -0.61676344487926       -0.11542868991292        3.14540226739236
H           -2.10583266630374       -1.91640943002228        3.88558701663626
H           -3.08836330028028       -0.47480342693235        3.56161012096633
H           -3.06757600690691       -1.82661189029986        2.40154166450619
H           -5.84677402872032        0.29356566414991        0.37599708534152
H           -4.86877146632315        1.27816326962214       -0.73936436460203
H           -4.45529708652325       -0.72552867251056       -2.17395166376520
H           -5.33735750925588       -1.75182191490495       -1.01359150192551
H           -6.19607463673730       -0.49856871316977       -1.93101136190651
41
 energy: -2932.481644054320 gnorm: 0.000659419434 xtb: 6.7.1 (edcfbbe)
C            4.98451046271299       -1.77608038398766       -0.82601590459513
C            4.85944835481889       -0.43700026604108       -0.14400535627107
O            3.54347605260436       -0.26429075755169        0.48768914173359
P            2.21800686604939        0.13643730728823       -0.33456086187955
S            2.46144349976148        1.12558574033704       -1.99429398794074
O            1.32784168241977        0.84229456823235        0.80048933836962
C            1.36677404732710        2.29768869098825        1.01622787973948
C            2.66216317748348        2.73604201127857        1.65438515879830
S            1.28979765554272       -1.75890971325940       -0.47801451510896
C           -0.19062585136783       -1.36984630203915       -1.51384101366868
S           -1.80409658800773       -1.68089985173271       -0.69838617373704
P           -2.33839574039080        0.23358305339289        0.06515942923194
S           -2.02210220779563        1.74285829442821       -1.11918969207798
O           -1.61703612031811        0.43999362226224        1.48038366582635
C           -1.25864976407339       -0.62893711506079        2.42667649541000
C           -2.46142455462755       -1.24239293784294        3.09916234480585
O           -3.85906420579777       -0.06887672576014        0.49751115097410
C           -5.02084909848496        0.27215480448260       -0.33774963836862
C           -5.25455489931047       -0.74278488388277       -1.42797490956900
H            4.76464114372358       -2.59226689164499       -0.13164896194844
H            4.31840143447487       -1.85160176856583       -1.69044506392938
H            6.01431549981432       -1.89250021700967       -1.17943470139065
H            5.01933521238797        0.39398068895542       -0.83726476328175
H            5.55590016373245       -0.34383107086599        0.69168056603725
H            1.19329829162413        2.79071552924847        0.05510393216603
H            0.51068315514471        2.47896876889597        1.66933940839931
H            3.51300528802044        2.59243915487477        0.98119546959277
H            2.59157238531733        3.80331387092140        1.88862924371182
H            2.84663182419655        2.19008509515749        2.58402318549643
H           -0.16491116818981       -2.04223469313919       -2.37475461675448
H           -0.14319532441465       -0.33608091741202       -1.87468611192647
H           -0.66190614478559       -1.37338048548041        1.89141604303259
H           -0.61676344487926       -0.11542868991292        3.14540226739236
H           -2.10583266630374       -1.91640943002228        3.88558701663626
H           -3.08836330028028       -0.47480342693235        3.56161012096633
H           -3.06757600690691       -1.82661189029986        2.40154166450619
H           -5.84677402872032        0.29356566414991        0.37599708534152
H           -4.86877146632315        1.27816326962214       -0.73936436460203
H           -4.45529708652325       -0.72552867251056       -2.17395166376520
H           -5.33735750925588       -1.75182191490495       -1.01359150192551
H           -6.19607463673730       -0.49856871316977       -1.93101136190651
