      -----------------------------------------------------------      
     |                   =====================                   |     
     |                           x T B                           |     
     |                   =====================                   |     
     |                         S. Grimme                         |     
     |          Mulliken Center for Theoretical Chemistry        |     
     |                    University of Bonn                     |     
      -----------------------------------------------------------      

   * xtb version 6.7.1 (edcfbbe) compiled by 'albert@albert-system' on 2024-07-22

   xtb is free software: you can redistribute it and/or modify it under
   the terms of the GNU Lesser General Public License as published by
   the Free Software Foundation, either version 3 of the License, or
   (at your option) any later version.
   
   xtb is distributed in the hope that it will be useful,
   but WITHOUT ANY WARRANTY; without even the implied warranty of
   MERCHANTABILITY or FITNESS FOR A PARTICULAR PURPOSE.  See the
   GNU Lesser General Public License for more details.
   
   Cite this work as:
   * C. Bannwarth, E. Caldeweyher, S. Ehlert, A. Hansen, P. Pracht,
     J. Seibert, S. Spicher, S. Grimme, WIREs Comput. Mol. Sci., 2020, 11,
     e01493. DOI: 10.1002/wcms.1493
   
   for GFN2-xTB:
   * C. Bannwarth, S. Ehlert and S. Grimme., J. Chem. Theory Comput., 2019,
     15, 1652-1671. DOI: 10.1021/acs.jctc.8b01176
   for GFN1-xTB:
   * S. Grimme, C. Bannwarth, P. Shushkov, J. Chem. Theory Comput., 2017,
     13, 1989-2009. DOI: 10.1021/acs.jctc.7b00118
   for GFN0-xTB:
   * P. Pracht, E. Caldeweyher, S. Ehlert, S. Grimme, ChemRxiv, 2019, preprint.
     DOI: 10.26434/chemrxiv.8326202.v1
   for GFN-FF:
   * S. Spicher and S. Grimme, Angew. Chem. Int. Ed., 2020, 59, 15665-15673.
     DOI: 10.1002/anie.202004239
   
   for ALPB and GBSA implicit solvation:
   * S. Ehlert, M. Stahn, S. Spicher, S. Grimme, J. Chem. Theory Comput.,
     2021, 17, 4250-4261. DOI: 10.1021/acs.jctc.1c00471
   
   for ddCOSMO and CPCM-X implicit solvation:
   * M. Stahn, S. Ehlert, S. Grimme, J. Phys. Chem. A,
     2023, XX, XXXX-XXXX. DOI: 10.1021/acs.jpca.3c04382
   
   for DFT-D4:
   * E. Caldeweyher, C. Bannwarth and S. Grimme, J. Chem. Phys., 2017,
     147, 034112. DOI: 10.1063/1.4993215
   * E. Caldeweyher, S. Ehlert, A. Hansen, H. Neugebauer, S. Spicher,
     C. Bannwarth and S. Grimme, J. Chem. Phys., 2019, 150, 154122.
     DOI: 10.1063/1.5090222
   * E. Caldeweyher, J.-M. Mewes, S. Ehlert and S. Grimme, Phys. Chem. Chem. Phys.
     2020, 22, 8499-8512. DOI: 10.1039/D0CP00502A
   
   for sTDA-xTB:
   * S. Grimme and C. Bannwarth, J. Chem. Phys., 2016, 145, 054103.
     DOI: 10.1063/1.4959605
   
   in the mass-spec context:
   * V. Asgeirsson, C. Bauer and S. Grimme, Chem. Sci., 2017, 8, 4879.
     DOI: 10.1039/c7sc00601b
   * J. Koopman and S. Grimme, ACS Omega 2019, 4, 12, 15120-15133.
     DOI: 10.1021/acsomega.9b02011
   
   for metadynamics refer to:
   * S. Grimme, J. Chem. Theory Comput., 2019, 155, 2847-2862
     DOI: 10.1021/acs.jctc.9b00143
   
   for SPH calculations refer to:
   * S. Spicher and S. Grimme, J. Chem. Theory Comput., 2021, 17, 1701-1714
     DOI: 10.1021/acs.jctc.0c01306
   
   for ONIOM refer to:
   * C. Plett, A. Katbashev, S. Ehlert, S. Grimme, M. Bursch,
     Phys. Chem. Chem. Phys., 2023, 25, 17860-17868. DOI: 10.1039/D3CP02178E
   
   for DIPRO refer to:
   * J. Kohn, N. Gildemeister, S. Grimme, D. Fazzi, A. Hansen,
     J. Chem. Phys., 2023, just accepted.
   
   for PTB refer to:
   * S. Grimme, M. Mueller, A. Hansen, J. Chem. Phys., 2023, 158, 124111.
     DOI: 10.1063/5.0137838
   
   with help from (in alphabetical order)
   P. Atkinson, C. Bannwarth, F. Bohle, G. Brandenburg, E. Caldeweyher
   M. Checinski, S. Dohm, S. Ehlert, S. Ehrlich, I. Gerasimov, C. Hölzer
   A. Katbashev, J. Kohn, J. Koopman, C. Lavigne, S. Lehtola, F. März, M. Müller,
   F. Musil, H. Neugebauer, J. Pisarek, C. Plett, P. Pracht, F. Pultar,
   J. Seibert, P. Shushkov, S. Spicher, M. Stahn, M. Steiner, T. Strunk,
   J. Stückrath, T. Rose, and J. Unsleber
   
 * started run on 2025/04/09 at 05:20:41.417     
   ID    Z sym.   atoms
    1    6 C      1, 2, 7, 8, 10, 15, 16, 18, 19
    2    8 O      3, 6, 14, 17
    3   15 P      4, 12
    4   16 S      5, 9, 11, 13
    5    1 H      20-41

           -------------------------------------------------
          |                Calculation Setup                |
           -------------------------------------------------

          program call               : /srv/scratch/z5358697/.xtb/bin/xtb solv.coord --gfn2 --sp --chrg 0 --norestart --parallel 1 --alpb water reference -I xtb_sp-xcontrol-inp
          hostname                   : k163
          coordinate file            : solv.coord
          omp threads                :                     1


           -------------------------------------------------
          |                 G F N 2 - x T B                 |
           -------------------------------------------------

        Reference                      10.1021/acs.jctc.8b01176
      * Hamiltonian:
        H0-scaling (s, p, d)           1.850000    2.230000    2.230000
        zeta-weighting                 0.500000
      * Dispersion:
        s8                             2.700000
        a1                             0.520000
        a2                             5.000000
        s9                             5.000000
      * Repulsion:
        kExp                           1.500000    1.000000
        rExp                           1.000000
      * Coulomb:
        alpha                          2.000000
        third order                    shell-resolved
        anisotropic                    true
        a3                             3.000000
        a5                             4.000000
        cn-shift                       1.200000
        cn-exp                         4.000000
        max-rad                        5.000000

      * Solvation model:               ALPB
        Solvent                        water
        Parameter file                 internal GFN2-xTB/ALPB
        Dielectric constant                8.0200E+01
        Reference state                gsolv=reference [X=1]
        Free energy shift                  2.8945E-03 Eh       1.8164E+00 kcal/mol
        Temperature                        2.9815E+02 K
        Density                            1.0000E+00 kg/L
        Solvent mass                       1.8000E+01 g/mol
        Interaction kernel             P16
        Born radius scaling (c1)           1.4744E+00
        Born radii integrator          GBOBC
        Born offset                        0.0000E+00 a0       0.0000E+00 AA
        H-bond correction              true
        Ion screening                  false
        Surface tension                    1.0000E-05 Eh       1.5569E+01 dyn/cm
        Grid points                               974 per atom

          ...................................................
          :                      SETUP                      :
          :.................................................:
          :  # basis functions                 134          :
          :  # atomic orbitals                 128          :
          :  # shells                           66          :
          :  # electrons                       116          :
          :  max. iterations                   250          :
          :  Hamiltonian                  GFN2-xTB          :
          :  restarted?                      false          :
          :  GBSA solvation                   true          :
          :  PC potential                    false          :
          :  electronic temp.          300.0000000     K    :
          :  accuracy                    1.0000000          :
          :  -> integral cutoff          0.2500000E+02      :
          :  -> integral neglect         0.1000000E-07      :
          :  -> SCF convergence          0.1000000E-05 Eh   :
          :  -> wf. convergence          0.1000000E-03 e    :
          :  Broyden damping             0.4000000          :
          :  net charge                          0          :
          :  unpaired electrons                  0          :
          ...................................................

 iter      E             dE          RMSdq      gap      omega  full diag
   1    -65.4494250 -0.654494E+02  0.644E+00    4.31       0.0  T
   2    -65.5700367 -0.120612E+00  0.370E+00    3.61       1.0  T
   3    -65.5894654 -0.194286E-01  0.113E+00    3.17       1.0  T
   4    -65.5924100 -0.294464E-02  0.502E-01    3.13       1.0  T
   5    -65.5931667 -0.756699E-03  0.283E-01    3.20       1.0  T
   6    -65.5933860 -0.219285E-03  0.125E-01    3.20       1.0  T
   7    -65.5934409 -0.548714E-04  0.457E-02    3.22       1.0  T
   8    -65.5934458 -0.496507E-05  0.178E-02    3.23       1.0  T
   9    -65.5934467 -0.811563E-06  0.559E-03    3.23       2.8  T
  10    -65.5934467 -0.252837E-08  0.231E-03    3.23       6.8  T
  11    -65.5934467 -0.329300E-07  0.588E-04    3.23      26.5  T
  12    -65.5934467 -0.465334E-09  0.290E-04    3.23      53.9  T

   *** convergence criteria satisfied after 12 iterations ***

         #    Occupation            Energy/Eh            Energy/eV
      -------------------------------------------------------------
         1        2.0000           -0.7681002             -20.9011
       ...           ...                  ...                  ...
        52        2.0000           -0.4490959             -12.2205
        53        2.0000           -0.4220177             -11.4837
        54        2.0000           -0.4128789             -11.2350
        55        2.0000           -0.4004136             -10.8958
        56        2.0000           -0.3981725             -10.8348
        57        2.0000           -0.3956875             -10.7672
        58        2.0000           -0.3898190             -10.6075 (HOMO)
        59                         -0.2712599              -7.3814 (LUMO)
        60                         -0.2609156              -7.0999
        61                         -0.2211631              -6.0182
        62                         -0.1878463              -5.1116
        63                         -0.1839125              -5.0045
       ...                                ...                  ...
       128                          1.3249014              36.0524
      -------------------------------------------------------------
                  HL-Gap            0.1185591 Eh            3.2262 eV
             Fermi-level           -0.3305394 Eh           -8.9944 eV

 SCC (total)                   0 d,  0 h,  0 min,  0.053 sec
 SCC setup                      ...        0 min,  0.003 sec (  4.726%)
 Dispersion                     ...        0 min,  0.000 sec (  0.559%)
 classical contributions        ...        0 min,  0.000 sec (  0.107%)
 integral evaluation            ...        0 min,  0.008 sec ( 15.524%)
 iterations                     ...        0 min,  0.022 sec ( 40.365%)
 molecular gradient             ...        0 min,  0.020 sec ( 38.313%)
 printout                       ...        0 min,  0.000 sec (  0.376%)

         :::::::::::::::::::::::::::::::::::::::::::::::::::::
         ::                     SUMMARY                     ::
         :::::::::::::::::::::::::::::::::::::::::::::::::::::
         :: total energy             -65.031387886718 Eh    ::
         :: total w/o Gsasa/hb       -65.033669157934 Eh    ::
         :: gradient norm              0.000184376724 Eh/a0 ::
         :: HOMO-LUMO gap              3.226158470636 eV    ::
         ::.................................................::
         :: SCC energy               -65.592499655078 Eh    ::
         :: -> isotropic ES            0.128814459713 Eh    ::
         :: -> anisotropic ES         -0.020031738003 Eh    ::
         :: -> anisotropic XC          0.029706031931 Eh    ::
         :: -> dispersion             -0.055047134166 Eh    ::
         :: -> Gsolv                  -0.023896393458 Eh    ::
         ::    -> Gelec               -0.026177664674 Eh    ::
         ::    -> Gsasa                0.003526439839 Eh    ::
         ::    -> Ghb                 -0.004139717783 Eh    ::
         ::    -> Gshift               0.002894549160 Eh    ::
         :: repulsion energy           0.561111768360 Eh    ::
         :: add. restraining           0.000000000000 Eh    ::
         :: total charge               0.000000000000 e     ::
         :::::::::::::::::::::::::::::::::::::::::::::::::::::

           -------------------------------------------------
          |                Property Printout                |
           -------------------------------------------------

    * Orbital Energies and Occupations

         #    Occupation            Energy/Eh            Energy/eV
      -------------------------------------------------------------
         1        2.0000           -0.7681002             -20.9011
       ...           ...                  ...                  ...
        46        2.0000           -0.4670559             -12.7092
        47        2.0000           -0.4607054             -12.5364
        48        2.0000           -0.4569094             -12.4331
        49        2.0000           -0.4545974             -12.3702
        50        2.0000           -0.4526737             -12.3179
        51        2.0000           -0.4509976             -12.2723
        52        2.0000           -0.4490959             -12.2205
        53        2.0000           -0.4220177             -11.4837
        54        2.0000           -0.4128789             -11.2350
        55        2.0000           -0.4004136             -10.8958
        56        2.0000           -0.3981725             -10.8348
        57        2.0000           -0.3956875             -10.7672
        58        2.0000           -0.3898190             -10.6075 (HOMO)
        59                         -0.2712599              -7.3814 (LUMO)
        60                         -0.2609156              -7.0999
        61                         -0.2211631              -6.0182
        62                         -0.1878463              -5.1116
        63                         -0.1839125              -5.0045
        64                         -0.1775531              -4.8315
        65                         -0.1625449              -4.4231
        66                         -0.1576261              -4.2892
        67                         -0.1337626              -3.6399
        68                         -0.1296877              -3.5290
        69                         -0.0556495              -1.5143
       ...                                ...                  ...
       128                          1.3249014              36.0524
      -------------------------------------------------------------
                  HL-Gap            0.1185591 Eh            3.2262 eV
             Fermi-level           -0.3305394 Eh           -8.9944 eV

     #   Z          covCN         q      C6AA      α(0)
     1   6 C        3.751    -0.130    23.054     6.847
     2   6 C        3.862     0.075    19.289     6.246
     3   8 O        1.655    -0.262    18.351     5.783
     4  15 P        3.854     0.361   145.170    21.644
     5  16 S        0.926    -0.469   159.908    21.389
     6   8 O        1.655    -0.264    18.395     5.790
     7   6 C        3.865     0.092    19.017     6.201
     8   6 C        3.751    -0.123    22.924     6.828
     9  16 S        2.008    -0.124   146.264    20.355
    10   6 C        3.808     0.033    20.018     6.369
    11  16 S        2.007    -0.114   145.841    20.326
    12  15 P        3.835     0.377   144.567    21.598
    13  16 S        0.927    -0.481   160.492    21.428
    14   8 O        1.653    -0.262    18.362     5.785
    15   6 C        3.840     0.078    19.249     6.241
    16   6 C        3.751    -0.132    23.108     6.855
    17   8 O        1.655    -0.255    18.245     5.766
    18   6 C        3.859     0.076    19.279     6.244
    19   6 C        3.751    -0.136    23.185     6.867
    20   1 H        0.925     0.054     2.270     2.356
    21   1 H        0.925     0.086     1.914     2.164
    22   1 H        0.925     0.072     2.059     2.244
    23   1 H        0.924     0.062     2.174     2.306
    24   1 H        0.924     0.092     1.858     2.132
    25   1 H        0.924     0.052     2.290     2.366
    26   1 H        0.924     0.079     1.993     2.208
    27   1 H        0.925     0.082     1.954     2.186
    28   1 H        0.925     0.073     2.053     2.241
    29   1 H        0.925     0.053     2.280     2.361
    30   1 H        0.925     0.128     1.551     1.947
    31   1 H        0.924     0.076     2.022     2.224
    32   1 H        0.924     0.073     2.054     2.242
    33   1 H        0.924     0.084     1.942     2.179
    34   1 H        0.925     0.068     2.105     2.269
    35   1 H        0.925     0.088     1.902     2.157
    36   1 H        0.925     0.067     2.114     2.274
    37   1 H        0.924     0.089     1.893     2.151
    38   1 H        0.924     0.056     2.250     2.346
    39   1 H        0.925     0.062     2.170     2.304
    40   1 H        0.925     0.078     1.999     2.211
    41   1 H        0.925     0.085     1.930     2.173

 Mol. C6AA /au·bohr⁶  :      26403.526757
 Mol. C8AA /au·bohr⁸  :     862618.121011
 Mol. α(0) /au        :        257.602569


Wiberg/Mayer (AO) data.
largest (>0.10) Wiberg bond orders for each atom

 ---------------------------------------------------------------------------
     #   Z sym  total        # sym  WBO       # sym  WBO       # sym  WBO
 ---------------------------------------------------------------------------
     1   6 C    3.986 --     2 C    1.022    22 H    0.982    20 H    0.976
                            21 H    0.976
     2   6 C    3.889 --     1 C    1.022    23 H    0.968    24 H    0.965
                             3 O    0.888
     3   8 O    2.403 --     4 P    1.319     2 C    0.888
     4  15 P    5.322 --     5 S    1.518     3 O    1.319     6 O    1.315
                             9 S    1.010
     5  16 S    1.851 --     4 P    1.518     9 S    0.134
     6   8 O    2.395 --     4 P    1.315     7 C    0.881
     7   6 C    3.894 --     8 C    1.022    25 H    0.968    26 H    0.967
                             6 O    0.881
     8   6 C    3.987 --     7 C    1.022    28 H    0.982    27 H    0.976
                            29 H    0.976
     9  16 S    2.291 --     4 P    1.010    10 C    0.977     5 S    0.134
    10   6 C    3.950 --    11 S    0.992     9 S    0.977    30 H    0.957
                            31 H    0.948
    11  16 S    2.292 --    10 C    0.992    12 P    0.972    13 S    0.131
    12  15 P    5.317 --    13 S    1.532    14 O    1.353    17 O    1.330
                            11 S    0.972
    13  16 S    1.847 --    12 P    1.532    11 S    0.131
    14   8 O    2.405 --    12 P    1.353    15 C    0.860
    15   6 C    3.879 --    16 C    1.022    33 H    0.968    32 H    0.963
                            14 O    0.860
    16   6 C    3.984 --    15 C    1.022    36 H    0.983    34 H    0.980
                            35 H    0.974
    17   8 O    2.412 --    12 P    1.330    18 C    0.885
    18   6 C    3.888 --    19 C    1.021    38 H    0.967    37 H    0.966
                            17 O    0.885
    19   6 C    3.984 --    18 C    1.021    40 H    0.982    39 H    0.978
                            41 H    0.976
    20   1 H    0.997 --     1 C    0.976
    21   1 H    0.992 --     1 C    0.976
    22   1 H    0.995 --     1 C    0.982
    23   1 H    0.996 --     2 C    0.968
    24   1 H    0.991 --     2 C    0.965
    25   1 H    0.997 --     7 C    0.968
    26   1 H    0.993 --     7 C    0.967
    27   1 H    0.992 --     8 C    0.976
    28   1 H    0.995 --     8 C    0.982
    29   1 H    0.997 --     8 C    0.976
    30   1 H    0.983 --    10 C    0.957
    31   1 H    0.994 --    10 C    0.948
    32   1 H    0.995 --    15 C    0.963
    33   1 H    0.992 --    15 C    0.968
    34   1 H    0.995 --    16 C    0.980
    35   1 H    0.991 --    16 C    0.974
    36   1 H    0.995 --    16 C    0.983
    37   1 H    0.992 --    18 C    0.966
    38   1 H    0.997 --    18 C    0.967
    39   1 H    0.996 --    19 C    0.978
    40   1 H    0.994 --    19 C    0.982
    41   1 H    0.992 --    19 C    0.976
 ---------------------------------------------------------------------------

Topologies differ in total number of bonds
Writing topology from bond orders to xtbtopo.mol

molecular dipole:
                 x           y           z       tot (Debye)
 q only:       -0.622      -2.173       2.092
   full:       -0.461      -1.454       2.404       7.236
molecular quadrupole (traceless):
                xx          xy          yy          xz          yz          zz
 q only:       29.969       3.482     -13.165       2.316      12.475     -16.804
  q+dip:       28.689       1.857     -15.451       2.285      13.324     -13.238
   full:       29.767       1.836     -14.814       2.387      13.533     -14.953


           -------------------------------------------------
          | TOTAL ENERGY              -65.031387886718 Eh   |
          | GRADIENT NORM               0.000184376724 Eh/α |
          | HOMO-LUMO GAP               3.226158470636 eV   |
           -------------------------------------------------

------------------------------------------------------------------------
 * finished run on 2025/04/09 at 05:20:41.517     
------------------------------------------------------------------------
 total:
 * wall-time:     0 d,  0 h,  0 min,  0.100 sec
 *  cpu-time:     0 d,  0 h,  0 min,  0.066 sec
 * ratio c/w:     0.662 speedup
 SCF:
 * wall-time:     0 d,  0 h,  0 min,  0.054 sec
 *  cpu-time:     0 d,  0 h,  0 min,  0.053 sec
 * ratio c/w:     0.988 speedup

