
                                 *****************
                                 * O   R   C   A *
                                 *****************

                                            #,                                       
                                            ###                                      
                                            ####                                     
                                            #####                                    
                                            ######                                   
                                           ########,                                 
                                     ,,################,,,,,                         
                               ,,#################################,,                 
                          ,,##########################################,,             
                       ,#########################################, ''#####,          
                    ,#############################################,,   '####,        
                  ,##################################################,,,,####,       
                ,###########''''           ''''###############################       
              ,#####''   ,,,,##########,,,,          '''####'''          '####       
            ,##' ,,,,###########################,,,                        '##       
           ' ,,###''''                  '''############,,,                           
         ,,##''                                '''############,,,,        ,,,,,,###''
      ,#''                                            '''#######################'''  
     '                                                          ''''####''''         
             ,#######,   #######,   ,#######,      ##                                
            ,#'     '#,  ##    ##  ,#'     '#,    #''#        ,####,   ,####,        
            ##       ##  ##   ,#'  ##            #'  '#       #'       #'  '#        
            ##       ##  #######   ##           ,######,      #####,   #    #        
            '#,     ,#'  ##    ##  '#,     ,#' ,#      #,     #,   #   #,  ,#        
             '#######'   ##     ##  '#######'  #'      '#     '####' # '####'        



                #########################################################
                #                        -***-                          #
                #          Department of theory and spectroscopy        #
                #                                                       #
                #                      Frank Neese                      #
                #                                                       #
                #     Directorship, Architecture, Infrastructure        #
                #                    SHARK, DRIVERS                     #
                #        Core code/Algorithms in most modules           #
                #                                                       #
                #        Max Planck Institute fuer Kohlenforschung      #
                #                Kaiser Wilhelm Platz 1                 #
                #                 D-45470 Muelheim/Ruhr                 #
                #                      Germany                          #
                #                                                       #
                #                  All rights reserved                  #
                #                        -***-                          #
                #########################################################


                         Program Version 6.0.1  -  RELEASE   -


 With contributions from (in alphabetic order):
[Max-Planck-Institut fuer Kohlenforschung]                               
  Daniel Aravena         : Magnetic Suceptibility                        
  Michael Atanasov       : Ab Initio Ligand Field Theory (pilot matlab implementation)
  Alexander A. Auer      : GIAO ZORA, VPT2 properties, NMR spectrum      
  Ute Becker             : All parallelization in ORCA, NUMFREQ, NUMCALC 
  Giovanni Bistoni       : ED, misc. LED, open-shell LED, HFLD           
  Martin Brehm           : Molecular dynamics                            
  Dmytro Bykov           : pre 5.0 version of the SCF Hessian            
  Marcos Casanova-Páez   : Triplet and SCS-CIS(D). UHF-(DLPNO)-IP/EA/STEOM-CCSD. UHF-CVS-IP/STEOM-CCSD   
  Vijay G. Chilkuri      : MRCI spin determinant printing, contributions to CSF-ICE 
  Pauline Colinet        : FMM embedding                                 
  Dipayan Datta          : RHF DLPNO-CCSD density                        
  Achintya Kumar Dutta   : EOM-CC, STEOM-CC                              
  Nicolas Foglia         : Exact transition moments, OPA infrastructure, MCD improvements    
  Dmitry Ganyushin       : Spin-Orbit,Spin-Spin,Magnetic field MRCI      
  Miquel Garcia-Rates    : C-PCM and meta-GGA Hessian, CCSD/C-PCM, Gaussian charge scheme 
  Tiago L. C. Gouveia    : GS-ROHF, GS-ROCIS                             
  Yang Guo               : DLPNO-NEVPT2, F12-NEVPT2, CIM, IAO-localization        
  Andreas Hansen         : Spin unrestricted coupled pair/coupled cluster methods 
  Ingolf Harden          : AUTO-CI MPn and infrastructure                
  Benjamin Helmich-Paris : MC-RPA, TRAH-(SCF,CASSCF), AVAS, COSX integrals, SCF dyn. polar. 
  Lee Huntington         : MR-EOM, pCC                                   
  Robert Izsak           : Overlap fitted RIJCOSX, COSX-SCS-MP3, EOM     
  Riya Kayal             : Wick's Theorem for AUTO-CI, AUTO-CI UHF-CCSDT 
  Emily Kempfer          : AUTO-CI, RHF CISDT and CCSDT                  
  Christian Kollmar      : KDIIS, OOCD, Brueckner-CCSD(T), CCSD density, CASPT2, CASPT2-K, improved NEVPT2 
  Axel Koslowski         : Symmetry handling                             
  Simone Kossmann        : meta-GGA functionals, TD-DFT gradient, OOMP2, (MP2 Hessian; deprecated post 5.0) 
  Lucas Lang             : DCDCAS                                        
  Marvin Lechner         : AUTO-CI (C++ implementation), FIC-MRCC        
  Spencer Leger          : CASSCF response                               
  Dagmar Lenk            : GEPOL surface, SMD, ORCA-2-JSON               
  Dimitrios Liakos       : Extrapolation schemes; Compound Job, initial MDCI parallelization 
  Dimitrios Manganas     : Further ROCIS development; embedding schemes. LFT, Crystal Embedding 
  Dimitrios Pantazis     : SARC Basis sets                               
  Anastasios Papadopoulos: AUTO-CI, single reference methods and gradients 
  Taras Petrenko         : pre 6.0 DFT Hessian and TD-DFT gradient, (ASA, deprecated), ECA, 1-Electron XAS/XES, NRVS 
  Peter Pinski           : DLPNO-MP2, DLPNO-MP2 Gradient                 
  Christoph Reimann      : Effective Core Potentials                     
  Marius Retegan         : Local ZFS, SOC                                
  Christoph Riplinger    : Optimizer, TS searches, QM/MM, DLPNO-CCSD(T), (RO)-DLPNO pert. Triples 
  Michael Roemelt        : Original ROCIS implementation                 
  Masaaki Saitow         : Open-shell DLPNO-CCSD energy and density      
  Barbara Sandhoefer     : DKH picture change effects                    
  Kantharuban Sivalingam : CASSCF convergence/infrastructure, NEVPT2 and variants, FIC-MRCI 
  Bernardo de Souza      : ESD, SOC TD-DFT                               
  Georgi L. Stoychev     : AutoAux, RI-MP2 NMR, DLPNO-MP2 response, X2C  
  Van Anh Tran           : RI-MP2 g-tensors                              
  Willem Van den Heuvel  : Paramagnetic NMR                              
  Zikuan Wang            : NOTCH, Electric field optimization            
  Frank Wennmohs         : Technical directorship and infrastructure     
  Hang Xu                : AUTO-CI-Response properties                   
                                                                         
[FACCTs GmbH]                                                            
  Markus Bursch, Miquel Garcia-Rates, Christoph Riplinger, Bernardo de Souza, Georgi L. Stoychev 
                                                                 
  APM, Basis sets (HGBS, AHGBS, def-TZVP (Ac-Lr), def2-XVPD (La-Lu)), CI-OPT, improved COSX, DLPNO-Multilevel,           
  DOCKER, DRACO, updates on ESD, GOAT, IRC, LR-CPCM, MBIS, meta-GGA TD-DFT gradient, ML-optimized integration grids, 
  MM, NACMEs, nearIR, NEB, NEB-TS, NL-DFT gradient (VV10), 2- and 3-layer-ONIOM, interface openCOSMO-RS, QMMM,   
  Crystal-QMMM, SF, symmetry and pop. for TD-DFT, r2SCAN hybrids, SOLVATOR                                   
                                                                         
[Other institutions]                                                     
  V. Asgeirsson          : NEB                                           
  Christoph Bannwarth    : sTDA-DFT, sTD-DFT, PBEh-3c, B97-3c, D3        
  Sebastian Ehlert       : rSCAN, r2SCAN, r2SCAN-3c, D4, dhf basis sets  
  Marvin Friede          : D4 for Fr, Ra, Ac-Lr                          
  Lars Goerigk           : TD-DFT with DH, B97 family of functionals     
  Stefan Grimme          : VdW corrections, initial TS optimization, DFT functionals, gCP, sTDA/sTD-DF 
  Waldemar Hujo          : DFT-NL                                        
  H. Jonsson             : NEB                                           
  Holger Kruse           : gCP                                           
  Marcel Mueller         : wB97X-3c, vDZP basis set                      
  Hagen Neugebauer       : wr2SCAN                                       
  Tobias Risthaus        : range-separated hybrid DFT                    
  Lukas Wittmann         : regularized MP2, r2SCAN double-hybrids, wr2SCAN        
                                                                         
We gratefully acknowledge several colleagues who have allowed us to      
interface, adapt or use parts of their codes:                            
  Ed Valeev, F. Pavosevic, A. Kumar             : LibInt (2-el integral package), F12 methods 
  Garnet Chan, S. Sharma, J. Yang, R. Olivares  : DMRG                   
  Ulf Ekstrom                                   : XCFun DFT Library      
  Mihaly Kallay                                 : mrcc  (arbitrary order and MRCC methods)
  Frank Weinhold                                : gennbo (NPA and NBO analysis)           
  Simon Mueller                                 : openCOSMO-RS                            
  Christopher J. Cramer and Donald G. Truhlar   : smd solvation model                     
  S Lehtola, MJT Oliveira, MAL Marques          : LibXC Library                           
  Liviu Ungur et al                             : ANISO software                          


 Your calculation uses the libint2 library for the computation of 2-el integrals
 For citations please refer to: http://libint.valeyev.net

 Your ORCA version has been built with support for libXC version: 6.2.2
 For citations please refer to: https://libxc.gitlab.io

 This ORCA versions uses:
   CBLAS   interface :  Fast vector & matrix operations
   LAPACKE interface :  Fast linear algebra routines
   SCALAPACK package :  Parallel linear algebra routines
   Shared memory     :  Shared parallel matrices
   BLAS/LAPACK       :  OpenBLAS 0.3.27  USE64BITINT DYNAMIC_ARCH NO_AFFINITY Zen SINGLE_THREADED
        Core in use  :  Zen
   Copyright (c) 2011-2014, The OpenBLAS Project


Your calculation utilizes the geometrical counterpoise correction gCP
Please cite in your paper:
H.Kruse, S. Grimme J.Chem.Phys., 136, (2012), 154101 
   

Your calculation utilizes the atom-pairwise dispersion correction
based on EEQ partial charges (D4)


Your calculation utilizes the SMD solvation module
Please cite in your paper:
A.V. Marenich, C.J. Cramer, D.G. Truhlar J. Phys. Chem. B, 113, (2009), 6378 

================================================================================

----- Orbital basis set information -----
Your calculation utilizes the basis: def2-mTZVPP
   Stefan Grimme, Andreas Hansen, Sebastian Ehlert, and Jan-Michael Mewes 
   J. Chem. Phys. 154, 064103 (2021). DOI: 10.1063/5.0040021

----- AuxJ basis set information -----
Your calculation utilizes the auxiliary basis: def2/J
   F. Weigend, Phys. Chem. Chem. Phys. 8, 1057 (2006).

================================================================================
                                        WARNINGS
                       Please study these warnings very carefully!
================================================================================

WARNING: Old DensityContainer found on disk!
         Will remove this file - 
         If you want to keep old densities, please start your calculation with a different basename. 



WARNING: SCAN, rSCAN, or r2SCAN functional requested.
  ===> : libXC variant has now been activated.



================================================================================
                                       INPUT FILE
================================================================================
NAME = sp_solv.inp
|  1> ! r2scan-3c def2/J RI DEFGRID2 scfconv6 printgap
|  2> %output
|  3>     printlevel normal
|  4> end
|  5> %cpcm
|  6>     smd true
|  7>     smdsolvent "water"
|  8> end
|  9> * xyz 0 1
| 10> C 5.3644083348 -2.2160082621 -1.0294148323
| 11> C 4.0697391211 -2.9531788851 -1.3323022284
| 12> O 3.1240700385 -2.0802518984 -1.9821281331
| 13> C 2.3431336192 -1.3324818647 -1.2344481538
| 14> O 2.3238062796 -1.3479722057 -0.0203234579
| 15> C 1.4587656933 -0.4301038094 -2.0693814426
| 16> C 0.4233682093 0.2318174931 -1.1715380093
| 17> H -0.1106191118 1.0222218664 -1.7092338351
| 18> C 1.1177151559 0.8702795664 0.0217937086
| 19> O 2.132039275 1.5190191604 -0.0971978063
| 20> O 0.4605915767 0.6914159217 1.1479312699
| 21> C 1.0136031778 1.252232287 2.3547089668
| 22> C 0.6864127957 2.7302995647 2.4854080015
| 23> S -0.8174097049 -1.0085837603 -0.6433844499
| 24> P -2.1591834716 0.2764386604 0.3244012708
| 25> S -2.1072471583 2.1911807238 -0.13185759
| 26> O -3.589437276 -0.3778449282 0.0058145459
| 27> C -4.2281074302 -0.1980616754 -1.2624599869
| 28> O -2.0368484907 -0.1154788745 1.8579072025
| 29> C -2.91233583 0.4896958159 2.824623685
| 30> H 5.1761287816 -1.4025581713 -0.3316607705
| 31> H 6.0753318245 -2.9044515878 -0.5848334834
| 32> H 5.7843392843 -1.8055437767 -1.9434048495
| 33> H 3.6163452565 -3.3362007516 -0.4137822775
| 34> H 4.2282536869 -3.7612230747 -2.0462290003
| 35> H 0.9879348484 -1.0071181789 -2.8639657978
| 36> H 2.0950412581 0.3368069902 -2.5166437356
| 37> H 0.5568568673 0.6643773053 3.151236441
| 38> H 2.0948581394 1.0904185869 2.3321376802
| 39> H -0.3862721633 2.8881421004 2.4014951361
| 40> H 1.0284221078 3.0885682825 3.4503551212
| 41> H 1.1811258802 3.2946357292 1.6982318621
| 42> H -5.2631781523 -0.4960064045 -1.1162390523
| 43> H -3.7486076893 -0.8278851491 -2.0109771099
| 44> H -4.1716668003 0.8497281687 -1.5637390825
| 45> H -2.9437082326 1.5713961459 2.6811276868
| 46> H -2.4896507218 0.245495032 3.7958338248
| 47> H -3.9150248867 0.0760636373 2.7252139239
| 48> *
| 49> 
| 50>                          ****END OF INPUT****
================================================================================

                       ****************************
                       * Single Point Calculation *
                       ****************************

---------------------------------
CARTESIAN COORDINATES (ANGSTROEM)
---------------------------------
  C      5.364408   -2.216008   -1.029415
  C      4.069739   -2.953179   -1.332302
  O      3.124070   -2.080252   -1.982128
  C      2.343134   -1.332482   -1.234448
  O      2.323806   -1.347972   -0.020323
  C      1.458766   -0.430104   -2.069381
  C      0.423368    0.231817   -1.171538
  H     -0.110619    1.022222   -1.709234
  C      1.117715    0.870280    0.021794
  O      2.132039    1.519019   -0.097198
  O      0.460592    0.691416    1.147931
  C      1.013603    1.252232    2.354709
  C      0.686413    2.730300    2.485408
  S     -0.817410   -1.008584   -0.643384
  P     -2.159183    0.276439    0.324401
  S     -2.107247    2.191181   -0.131858
  O     -3.589437   -0.377845    0.005815
  C     -4.228107   -0.198062   -1.262460
  O     -2.036848   -0.115479    1.857907
  C     -2.912336    0.489696    2.824624
  H      5.176129   -1.402558   -0.331661
  H      6.075332   -2.904452   -0.584833
  H      5.784339   -1.805544   -1.943405
  H      3.616345   -3.336201   -0.413782
  H      4.228254   -3.761223   -2.046229
  H      0.987935   -1.007118   -2.863966
  H      2.095041    0.336807   -2.516644
  H      0.556857    0.664377    3.151236
  H      2.094858    1.090419    2.332138
  H     -0.386272    2.888142    2.401495
  H      1.028422    3.088568    3.450355
  H      1.181126    3.294636    1.698232
  H     -5.263178   -0.496006   -1.116239
  H     -3.748608   -0.827885   -2.010977
  H     -4.171667    0.849728   -1.563739
  H     -2.943708    1.571396    2.681128
  H     -2.489651    0.245495    3.795834
  H     -3.915025    0.076064    2.725214

----------------------------
CARTESIAN COORDINATES (A.U.)
----------------------------
  NO LB      ZA    FRAG     MASS         X           Y           Z
   0 C     6.0000    0    12.011   10.137263   -4.187649   -1.945312
   1 C     6.0000    0    12.011    7.690692   -5.580699   -2.517686
   2 O     8.0000    0    15.999    5.903637   -3.931106   -3.745679
   3 C     6.0000    0    12.011    4.427881   -2.518026   -2.332769
   4 O     8.0000    0    15.999    4.391357   -2.547298   -0.038406
   5 C     6.0000    0    12.011    2.756668   -0.812778   -3.910564
   6 C     6.0000    0    12.011    0.800050    0.438072   -2.213886
   7 H     1.0000    0     1.008   -0.209040    1.931719   -3.229984
   8 C     6.0000    0    12.011    2.112176    1.644590    0.041184
   9 O     8.0000    0    15.999    4.028970    2.870530   -0.183677
  10 O     8.0000    0    15.999    0.870392    1.306587    2.169276
  11 C     6.0000    0    12.011    1.915432    2.366376    4.449755
  12 C     6.0000    0    12.011    1.297132    5.159518    4.696740
  13 S    16.0000    0    32.060   -1.544680   -1.905947   -1.215820
  14 P    15.0000    0    30.974   -4.080265    0.522393    0.613030
  15 S    16.0000    0    32.060   -3.982120    4.140731   -0.249175
  16 O     8.0000    0    15.999   -6.783053   -0.714023    0.010988
  17 C     6.0000    0    12.011   -7.989965   -0.374282   -2.385704
  18 O     8.0000    0    15.999   -3.849086   -0.218223    3.510936
  19 C     6.0000    0    12.011   -5.503517    0.925391    5.337765
  20 H     1.0000    0     1.008    9.781466   -2.650451   -0.626748
  21 H     1.0000    0     1.008   11.480713   -5.488618   -1.105175
  22 H     1.0000    0     1.008   10.930817   -3.411983   -3.672503
  23 H     1.0000    0     1.008    6.833902   -6.304506   -0.781935
  24 H     1.0000    0     1.008    7.990241   -7.107682   -3.866812
  25 H     1.0000    0     1.008    1.866926   -1.903178   -5.412111
  26 H     1.0000    0     1.008    3.959054    0.636473   -4.755767
  27 H     1.0000    0     1.008    1.052307    1.255491    5.954974
  28 H     1.0000    0     1.008    3.958708    2.060593    4.407102
  29 H     1.0000    0     1.008   -0.729949    5.457798    4.538168
  30 H     1.0000    0     1.008    1.943436    5.836548    6.520226
  31 H     1.0000    0     1.008    2.232004    6.225959    3.209193
  32 H     1.0000    0     1.008   -9.945965   -0.937316   -2.109386
  33 H     1.0000    0     1.008   -7.083842   -1.564476   -3.800196
  34 H     1.0000    0     1.008   -7.883308    1.605754   -2.955039
  35 H     1.0000    0     1.008   -5.562802    2.969508    5.066597
  36 H     1.0000    0     1.008   -4.704758    0.463918    7.173086
  37 H     1.0000    0     1.008   -7.398325    0.143739    5.149908

--------------------------------
INTERNAL COORDINATES (ANGSTROEM)
--------------------------------
 C      0   0   0     0.000000000000     0.00000000     0.00000000
 C      1   0   0     1.520305783398     0.00000000     0.00000000
 O      2   1   0     1.441723012341   110.78076024     0.00000000
 C      3   2   1     1.314552039949   118.53693400   273.68073506
 O      4   3   2     1.214377319417   124.80967690   357.52425649
 C      4   3   2     1.514432692395   111.85655533   177.29912880
 C      6   4   3     1.521943031554   109.34056937   170.52539908
 H      7   6   4     1.094987823453   110.85587473   169.76210044
 C      7   6   4     1.521115409902   109.56123113    50.97278216
 O      9   7   6     1.209907211330   122.04495222    44.17917943
 O      9   7   6     1.316050686222   112.72651215   220.99032098
 C     11   9   7     1.441058373653   118.16900752   180.15180085
 C     12  11   9     1.519479733731   111.58991632    81.24348355
 S      7   6   4     1.832231231070   109.65291076   288.24715511
 P     14   7   6     2.094814708726    98.72223483   186.91269757
 S     15  14   7     1.969036997634   118.20121007    20.74204333
 O     15  14   7     1.604746229344   103.24113466   144.94464910
 C     17  15  14     1.431342682380   121.49233060   281.54747781
 O     15  14   7     1.587515557175   104.20985030   248.17873707
 C     19  15  14     1.437795272183   119.91085180   185.48491228
 H      1   2   3     1.088122682024   110.05293170    62.99743095
 H      1   2   3     1.084905063449   109.38918185   182.68260645
 H      1   2   3     1.086370492817   110.16740727   302.90370358
 H      2   1   3     1.093595284772   110.82724012   239.39917038
 H      2   1   3     1.089841142347   111.47878165   115.82292747
 H      6   4   3     1.089032398346   109.81692999    47.86743835
 H      6   4   3     1.092264769936   107.69477080   289.33267979
 H     12  11   9     1.090250745847   103.95790067   201.90609466
 H     12  11   9     1.093528887823   107.73256197   319.13879883
 H     13  12  11     1.087478117628   110.30110743    53.85905317
 H     13  12  11     1.084642700402   109.26473218   174.12274878
 H     13  12  11     1.087594877231   110.15367906   294.09701953
 H     18  17  15     1.086978851249   105.73994931   195.19414852
 H     18  17  15     1.089438154725   109.86394787    75.73106539
 H     18  17  15     1.091704261945   109.99965096   314.46397468
 H     20  19  15     1.091627653125   110.25468102   312.21990555
 H     20  19  15     1.086989355606   105.62889289   192.74803488
 H     20  19  15     1.089201186283   109.83658902    73.28110048

---------------------------
INTERNAL COORDINATES (A.U.)
---------------------------
 C      0   0   0     0.000000000000     0.00000000     0.00000000
 C      1   0   0     2.872961570439     0.00000000     0.00000000
 O      2   1   0     2.724461654297   110.78076024     0.00000000
 C      3   2   1     2.484143344292   118.53693400   273.68073506
 O      4   3   2     2.294840556944   124.80967690   357.52425649
 C      4   3   2     2.861863036883   111.85655533   177.29912880
 C      6   4   3     2.876055521068   109.34056937   170.52539908
 H      7   6   4     2.069227106304   110.85587473   169.76210044
 C      7   6   4     2.874491542802   109.56123113    50.97278216
 O      9   7   6     2.286393276871   122.04495222    44.17917943
 O      9   7   6     2.486975375320   112.72651215   220.99032098
 C     11   9   7     2.723205669198   118.16900752   180.15180085
 C     12  11   9     2.871400562794   111.58991632    81.24348355
 S      7   6   4     3.462415240740   109.65291076   288.24715511
 P     14   7   6     3.958626100803    98.72223483   186.91269757
 S     15  14   7     3.720940673087   118.20121007    20.74204333
 O     15  14   7     3.032530887903   103.24113466   144.94464910
 C     17  15  14     2.704845673490   121.49233060   281.54747781
 O     15  14   7     2.999969636400   104.20985030   248.17873707
 C     19  15  14     2.717039301073   119.91085180   185.48491228
 H      1   2   3     2.056253869132   110.05293170    62.99743095
 H      1   2   3     2.050173451224   109.38918185   182.68260645
 H      1   2   3     2.052942711398   110.16740727   302.90370358
 H      2   1   3     2.066595589567   110.82724012   239.39917038
 H      2   1   3     2.059501288516   111.47878165   115.82292747
 H      6   4   3     2.057972983841   109.81692999    47.86743835
 H      6   4   3     2.064081280910   107.69477080   289.33267979
 H     12  11   9     2.060275326955   103.95790067   201.90609466
 H     12  11   9     2.066470117517   107.73256197   319.13879883
 H     13  12  11     2.055035818950   110.30110743    53.85905317
 H     13  12  11     2.049677656916   109.26473218   174.12274878
 H     13  12  11     2.055256462622   110.15367906   294.09701953
 H     18  17  15     2.054092342225   105.73994931   195.19414852
 H     18  17  15     2.058739752275   109.86394787    75.73106539
 H     18  17  15     2.063022074310   109.99965096   314.46397468
 H     20  19  15     2.062877304621   110.25468102   312.21990555
 H     20  19  15     2.054112192584   105.62889289   192.74803488
 H     20  19  15     2.058291946818   109.83658902    73.28110048

---------------------
BASIS SET INFORMATION
---------------------
There are 5 groups of distinct atoms

 Group   1 Type C   : 11s6p1d contracted to 5s3p1d pattern {62111/411/1}
 Group   2 Type O   : 11s6p2d contracted to 5s3p2d pattern {62111/411/11}
 Group   3 Type H   : 4s1p contracted to 2s1p pattern {31/1}
 Group   4 Type S   : 14s9p2d contracted to 5s4p2d pattern {73211/6111/11}
 Group   5 Type P   : 14s9p2d contracted to 5s4p2d pattern {73211/6111/11}

Atom   0C    basis set group =>   1
Atom   1C    basis set group =>   1
Atom   2O    basis set group =>   2
Atom   3C    basis set group =>   1
Atom   4O    basis set group =>   2
Atom   5C    basis set group =>   1
Atom   6C    basis set group =>   1
Atom   7H    basis set group =>   3
Atom   8C    basis set group =>   1
Atom   9O    basis set group =>   2
Atom  10O    basis set group =>   2
Atom  11C    basis set group =>   1
Atom  12C    basis set group =>   1
Atom  13S    basis set group =>   4
Atom  14P    basis set group =>   5
Atom  15S    basis set group =>   4
Atom  16O    basis set group =>   2
Atom  17C    basis set group =>   1
Atom  18O    basis set group =>   2
Atom  19C    basis set group =>   1
Atom  20H    basis set group =>   3
Atom  21H    basis set group =>   3
Atom  22H    basis set group =>   3
Atom  23H    basis set group =>   3
Atom  24H    basis set group =>   3
Atom  25H    basis set group =>   3
Atom  26H    basis set group =>   3
Atom  27H    basis set group =>   3
Atom  28H    basis set group =>   3
Atom  29H    basis set group =>   3
Atom  30H    basis set group =>   3
Atom  31H    basis set group =>   3
Atom  32H    basis set group =>   3
Atom  33H    basis set group =>   3
Atom  34H    basis set group =>   3
Atom  35H    basis set group =>   3
Atom  36H    basis set group =>   3
Atom  37H    basis set group =>   3
---------------------------------
AUXILIARY/J BASIS SET INFORMATION
---------------------------------
There are 5 groups of distinct atoms

 Group   1 Type C   : 12s5p4d2f1g contracted to 6s4p3d1f1g pattern {711111/2111/211/2/1}
 Group   2 Type O   : 12s5p4d2f1g contracted to 6s4p3d1f1g pattern {711111/2111/211/2/1}
 Group   3 Type H   : 5s2p1d contracted to 3s1p1d pattern {311/2/1}
 Group   4 Type S   : 14s5p5d2f1g contracted to 8s4p3d1f1g pattern {71111111/2111/311/2/1}
 Group   5 Type P   : 14s5p5d2f1g contracted to 8s4p3d1f1g pattern {71111111/2111/311/2/1}

Atom   0C    basis set group =>   1
Atom   1C    basis set group =>   1
Atom   2O    basis set group =>   2
Atom   3C    basis set group =>   1
Atom   4O    basis set group =>   2
Atom   5C    basis set group =>   1
Atom   6C    basis set group =>   1
Atom   7H    basis set group =>   3
Atom   8C    basis set group =>   1
Atom   9O    basis set group =>   2
Atom  10O    basis set group =>   2
Atom  11C    basis set group =>   1
Atom  12C    basis set group =>   1
Atom  13S    basis set group =>   4
Atom  14P    basis set group =>   5
Atom  15S    basis set group =>   4
Atom  16O    basis set group =>   2
Atom  17C    basis set group =>   1
Atom  18O    basis set group =>   2
Atom  19C    basis set group =>   1
Atom  20H    basis set group =>   3
Atom  21H    basis set group =>   3
Atom  22H    basis set group =>   3
Atom  23H    basis set group =>   3
Atom  24H    basis set group =>   3
Atom  25H    basis set group =>   3
Atom  26H    basis set group =>   3
Atom  27H    basis set group =>   3
Atom  28H    basis set group =>   3
Atom  29H    basis set group =>   3
Atom  30H    basis set group =>   3
Atom  31H    basis set group =>   3
Atom  32H    basis set group =>   3
Atom  33H    basis set group =>   3
Atom  34H    basis set group =>   3
Atom  35H    basis set group =>   3
Atom  36H    basis set group =>   3
Atom  37H    basis set group =>   3

Checking for AutoStart:
The File: sp_solv.gbw exists
Trying to determine its content:
     ... Fine, the file contains calculation information
     ... Fine, the calculation information was read
     ... Fine, the file contains a basis set
     ... Fine, the basis set was read
     ... Fine, the file contains a geometry
     ... Fine, the geometry was read
     ... Fine, the file contains a set of orbitals
     ... Fine, the orbitals can be read
     => possible old guess file was deleted
     => GBW file was renamed to GES file
     => GES file is set as startup file
     => Guess is set to MORead
     ... now leaving AutoStart

------------------------------------------------------------------------------
                             ORCA STARTUP CALCULATIONS
                           -- RI-GTO INTEGRALS CHOSEN --
------------------------------------------------------------------------------
------------------------------------------------------------------------------
                   ___                                                        
                  /   \      - P O W E R E D   B Y -                         
                 /     \                                                     
                 |  |  |   _    _      __       _____    __    __             
                 |  |  |  | |  | |    /  \     |  _  \  |  |  /  |          
                  \  \/   | |  | |   /    \    | | | |  |  | /  /          
                 / \  \   | |__| |  /  /\  \   | |_| |  |  |/  /          
                |  |  |   |  __  | /  /__\  \  |    /   |      \           
                |  |  |   | |  | | |   __   |  |    \   |  |\   \          
                \     /   | |  | | |  |  |  |  | |\  \  |  | \   \       
                 \___/    |_|  |_| |__|  |__|  |_| \__\ |__|  \__/        
                                                                              
                      - O R C A' S   B I G   F R I E N D -                    
                                      &                                       
                       - I N T E G R A L  F E E D E R -                       
                                                                              
 v1 FN, 2020, v2 2021, v3 2022-2024                                           
------------------------------------------------------------------------------


----------------------
SHARK INTEGRAL PACKAGE
----------------------

Number of atoms                             ...     38
Number of basis functions                   ...    510
Number of shells                            ...    240
Maximum angular momentum                    ...      2
Integral batch strategy                     ... SHARK/LIBINT Hybrid
RI-J (if used) integral strategy            ... SPLIT-RIJ (Revised 2003 algorithm where possible)
Printlevel                                  ...      1
Contraction scheme used                     ... SEGMENTED contraction
Prescreening option                         ... SCHWARTZ
   Thresh                                   ... 1.000e-10
   Tcut                                     ... 1.000e-11
   Tpresel                                  ... 1.000e-11 
Coulomb Range Separation                    ... NOT USED
Exchange Range Separation                   ... NOT USED
Multipole approximations                    ... NOT USED
Finite Nucleus Model                        ... NOT USED
CABS basis                                  ... NOT available
Auxiliary Coulomb fitting basis             ... AVAILABLE
   # of basis functions in Aux-J            ...   1146
   # of shells in Aux-J                     ...    386
   Maximum angular momentum in Aux-J        ...      4
Auxiliary J/K fitting basis                 ... NOT available
Auxiliary Correlation fitting basis         ... NOT available
Auxiliary 'external' fitting basis          ... NOT available

Checking pre-screening integrals            ... done (  0.0 sec) Dimension = 240
Check shell pair data                       ... done (  0.0 sec)
Shell pair information
Shell pair cut-off parameter TPreSel        ...   1.0e-11
Total number of shell pairs                 ...     28920
Shell pairs after pre-screening             ...     19708
Total number of primitive shell pairs       ...    108409
Primitive shell pairs kept                  ...     45641
          la=0 lb=0:   5639 shell pairs
          la=1 lb=0:   7124 shell pairs
          la=1 lb=1:   2287 shell pairs
          la=2 lb=0:   2665 shell pairs
          la=2 lb=1:   1667 shell pairs
          la=2 lb=2:    326 shell pairs

Calculating one electron integrals          ... done (  0.1 sec)
Calculating RI/J V-Matrix + Cholesky decomp.... done (  0.1 sec)
Calculating Nuclear repulsion               ... done (  0.0 sec) ENN=   2168.033886732068 Eh

Diagonalization of the overlap matrix:
Smallest eigenvalue                        ... 4.158e-05
Time for diagonalization                   ...    0.032 sec
Threshold for overlap eigenvalues          ... 1.000e-07
Number of eigenvalues below threshold      ... 0
Time for construction of square roots      ...    0.018 sec
Total time needed                          ...    0.052 sec

-------------------
DFT GRID GENERATION
-------------------

General Integration Accuracy     IntAcc      ... 4.388
Radial Grid Type                 RadialGrid  ... OptM3 with GC (2021)
Angular Grid (max. ang.)         AngularGrid ... 4 (Lebedev-302)
Angular grid pruning method      GridPruning ... 4 (adaptive)
Weight generation scheme         WeightScheme... mBecke (2022)
Basis function cutoff            BFCut       ... 1.0000e-10
Integration weight cutoff        WCut        ... 1.0000e-14
Partially contracted basis set               ... off
Rotationally invariant grid construction     ... off
Angular grids for H and He will be reduced by one unit
Diffuse basis detected: some atoms will have their outermost
                        angular grid increased by 1.

Total number of grid points                  ...   180181
Total number of batches                      ...     2834
Average number of points per batch           ...       63
Average number of grid points per atom       ...     4742
Initializing property integral containers    ... done (  0.0 sec)

SHARK setup successfully completed in   2.6 seconds

Maximum memory used throughout the entire STARTUP-calculation: 97.4 MB
-------------------------------------------------------------------------------
                                 ORCA GUESS
                   Start orbitals & Density for SCF / CASSCF
-------------------------------------------------------------------------------

------------
SCF SETTINGS
------------
Hamiltonian:
 Density Functional     Method          .... DFT(GTOs)
  Functional kind                       .... Exchange
  Functional name                       .... Re-regularized SCAN exchange by Furness et al
  Functional family                     .... MGGA
  Functional refs                              
    [ 0] J. W. Furness, A. D. Kaplan, J. Ning, J. P. Perdew, and J. Sun.,  J. Phys. Chem. Lett. 11, 8208-8215 (2020), doi: 10.1021/acs.jpclett.0c02405
    [ 1] J. W. Furness, A. D. Kaplan, J. Ning, J. P. Perdew, and J. Sun.,  J. Phys. Chem. Lett. 11, 9248-9248 (2020), doi: 10.1021/acs.jpclett.0c03077
  Functional external parameters        .... 6
    Parameter  0 _c1        =  6.670000e-01 : c1 parameter        
    Parameter  1 _c2        =  8.000000e-01 : c2 parameter        
    Parameter  2 _d         =  1.240000e+00 : d parameter         
    Parameter  3 _k1        =  6.500000e-02 : k1 parameter        
    Parameter  4 _eta       =  1.000000e-03 : eta parameter       
    Parameter  5 _dp2       =  3.610000e-01 : dp2 parameter       
  Functional kind                       .... Correlation
  Functional name                       .... Re-regularized SCAN correlation by Furness et al
  Functional family                     .... MGGA
  Functional refs                              
    [ 0] J. W. Furness, A. D. Kaplan, J. Ning, J. P. Perdew, and J. Sun.,  J. Phys. Chem. Lett. 11, 8208-8215 (2020), doi: 10.1021/acs.jpclett.0c02405
    [ 1] J. W. Furness, A. D. Kaplan, J. Ning, J. P. Perdew, and J. Sun.,  J. Phys. Chem. Lett. 11, 9248-9248 (2020), doi: 10.1021/acs.jpclett.0c03077
  Functional external parameters        .... 1
    Parameter  0 _eta       =  1.000000e-03 : Regularization parameter
 Gradients option       PostSCFGGA      .... off
 RI-approximation to the Coulomb term is turned on
   Number of AuxJ basis functions       .... 1146


General Settings:
 Integral files         IntName         .... sp_solv
 Hartree-Fock type      HFTyp           .... RHF
 Total Charge           Charge          ....    0
 Multiplicity           Mult            ....    1
 Number of Electrons    NEL             ....  174
 Basis Dimension        Dim             ....  510
 Nuclear Repulsion      ENuc            ....   2168.0338867321 Eh

Convergence Acceleration:
 AO-DIIS                CNVDIIS         .... on
   Start iteration      DIISMaxIt       ....    12
   Startup error        DIISStart       ....  0.200000
   # of expansion vecs  DIISMaxEq       ....     5
   Bias factor          DIISBfac        ....   1.050
   Max. coefficient     DIISMaxC        ....  10.000
 MO-DIIS                CNVKDIIS        .... off
 Trust-Rad. Augm. Hess. CNVTRAH         .... auto
   Auto Start mean grad. ratio tolernc. ....  1.125000
   Auto Start start iteration           ....     1
   Auto Start num. interpolation iter.  ....    10
   Max. Number of Micro iterations      ....    24
   Max. Number of Macro iterations      .... Maxiter - #DIIS iter
   Number of Davidson start vectors     ....     2
   Converg. threshold    (grad. norm)   ....   3.330e-04
   Grad. Scal. Fac. for Micro threshold ....   0.100
   Minimum threshold for Micro iter.    ....   1.000e-02
   NR start threshold (gradient norm)   ....   1.000e-04
   Initial trust radius                 ....   0.400
   Minimum AH scaling param. (alpha)    ....   1.000
   Maximum AH scaling param. (alpha)    .... 1000.000
   Quad. conv. algorithm                .... NR
   White noise on init. David. guess    .... on
   Maximum white noise                  ....   0.010
   Pseudo random numbers                .... off
   Inactive MOs                         .... canonical
   Orbital update algorithm             .... Taylor
   Preconditioner                       .... Diag
   Full preconditioner red. dimension   ....   250
   COSX micro iterations for RIJONX calc.... off
 SOSCF                  CNVSOSCF        .... on
   Start iteration      SOSCFMaxIt      ....   150
   Startup grad/error   SOSCFStart      ....  0.003300
   Hessian update       SOSCFHessUp     .... L-BFGS
 Level Shifting         CNVShift        .... on
   Level shift para.    LevelShift      ....    0.2500
   Turn off err/grad.   ShiftErr        ....    0.0010
 Zerner damping         CNVZerner       .... off
 Static damping         CNVDamp         .... on
   Fraction old density DampFac         ....    0.7000
   Max. Damping (<1)    DampMax         ....    0.9800
   Min. Damping (>=0)   DampMin         ....    0.0000
   Turn off err/grad.   DampErr         ....    0.1000

SCF Procedure:
 Maximum # iterations   MaxIter         ....   125
 SCF integral mode      SCFMode         .... Direct
   Integral package                     .... SHARK and LIBINT hybrid scheme
 Reset frequency        DirectResetFreq ....    20
 Integral Threshold     Thresh          ....  1.000e-10 Eh
 Primitive CutOff       TCut            ....  1.000e-11 Eh

Convergence Tolerance:
 Convergence Check Mode ConvCheckMode   .... Total+1el-Energy
 Convergence forced     ConvForced      .... 0
 Energy Change          TolE            ....  1.000e-06 Eh
 1-El. energy change                    ....  1.000e-03 Eh
 Orbital Gradient       TolG            ....  3.330e-04
 Orbital Rotation angle TolX            ....  3.330e-04
 DIIS Error             TolErr          ....  1.000e-06

---------------------
INITIAL GUESS: MOREAD
---------------------
Guess MOs are being read from file: sp_solv.ges
Input Geometry matches current geometry (good)
Atom 0: N(Shells)= 9 and 6 - projection required
Input basis set needs projection
NBasis(read)= 316
NBasis(calc)= 510
Basis set overlap was calculated
Using GuessMode=FMatrix for the initial guess
C*T matrix was formed
Effective Fockian was calculated
Effective Fockian was diagonalized
Initial density was built
                      ------------------
                      INITIAL GUESS DONE (   0.1 sec)
                      ------------------
             **** ENERGY FILE WAS UPDATED (sp_solv.en.tmp) ****
Finished Guess after   0.2 sec
Maximum memory used throughout the entire GUESS-calculation: 57.0 MB

-------------------------------------------------------------------------------------------
                                      ORCA LEAN-SCF
                              memory conserving SCF solver
-------------------------------------------------------------------------------------------

--------------------
CPCM SOLVATION MODEL
--------------------
CPCM parameters:
  Epsilon                                         ...      78.3550
  Refrac                                          ...       1.3328
  Rsolv                                           ...       1.3000
  Surface type                                    ... GAUSSIAN VDW
  Discretization scheme                           ... Constant charge density
    Threshold for H atoms                         ...       5.0000 (charges/Ang^2)
    Threshold for non-H atoms                     ...       5.0000 (charges/Ang^2)
  Epsilon function type                           ...         CPCM
Solvent:                                          ... WATER
SMD-CDS solvent descriptors:
  Soln                                            ...       1.3328
  Soln25                                          ...       1.3323
  Sola                                            ...       0.0000
  Solb                                            ...       0.0000
  Solg                                            ...       0.0000
  Solc                                            ...       0.0000
  Solh                                            ...       0.0000
Radii:
  Scheme                                          ... Element-dependent radii
  Radius for C  used is    3.4960 Bohr (=   1.8500 Ang.)
  Radius for O  used is    2.8724 Bohr (=   1.5200 Ang.)
  Radius for H  used is    2.2677 Bohr (=   1.2000 Ang.)
  Radius for S  used is    4.7054 Bohr (=   2.4900 Ang.)
  Radius for P  used is    4.0062 Bohr (=   2.1200 Ang.)
Calculating surface                               ...        done! (  0.0s)
Cavity surface points                             ...         2937
Cavity Volume                                     ...    2231.6516
Cavity Surface-area                               ...    1207.9295
Calculating surface distance matrix               ...        done! (  0.1s)
Performing Cholesky decomposition & store         ...        done! (  0.3s)
Overall time for CPCM initialization              ...                 0.4s

----------------------------------------D-I-I-S--------------------------------------------
Iteration    Energy (Eh)           Delta-E    RMSDP     MaxDP     DIISErr   Damp  Time(sec)
-------------------------------------------------------------------------------------------
               ***  Starting incremental Fock matrix formation  ***
    1    -1981.0000209153972719     0.00e+00  3.57e-03  3.68e-01  6.33e-01  0.700  11.5
    2    -1981.1494488230368916    -1.49e-01  2.75e-03  2.35e-01  4.45e-01  0.700  10.0
    3    -1981.2550674983162935    -1.06e-01  1.98e-03  1.56e-01  3.12e-01  0.700   9.8
    4    -1981.3292325114775849    -7.42e-02  1.41e-03  1.05e-01  2.19e-01  0.700   9.7
                               ***Turning on AO-DIIS***
    5    -1981.3812686044398106    -5.20e-02  1.01e-03  6.86e-02  1.53e-01  0.700   9.5
    6    -1981.4177373714096575    -3.65e-02  7.14e-04  4.82e-02  1.07e-01  0.700   9.4
    7    -1981.4433206760954818    -2.56e-02  5.03e-04  3.38e-02  7.49e-02  0.700   9.2
    8    -1981.4612468576438005    -1.79e-02  1.18e-03  7.68e-02  5.25e-02  0.000   9.0
                              *** Initializing SOSCF ***
---------------------------------------S-O-S-C-F--------------------------------------
Iteration    Energy (Eh)           Delta-E    RMSDP     MaxDP     MaxGrad    Time(sec)
--------------------------------------------------------------------------------------
    9    -1981.5031386318892146    -4.19e-02  9.73e-06  8.16e-04  2.10e-04     9.5
               *** Restarting incremental Fock matrix formation ***
   10    -1981.5031390139533869    -3.82e-07  5.74e-06  2.22e-04  3.35e-05    11.4
                  *** Gradient check signals convergence ***

               *****************************************************
               *                     SUCCESS                       *
               *           SCF CONVERGED AFTER  10 CYCLES          *
               *****************************************************


SMD CDS free energy correction energy :                 9.62203     Kcal/mol
Total Energy after SMD CDS correction =             -1981.487805335 Eh
             **** ENERGY FILE WAS UPDATED (sp_solv.en.tmp) ****

----------------
TOTAL SCF ENERGY
----------------

Total Energy       :      -1981.48780533503668 Eh          -53919.02437 eV

Components:
Nuclear Repulsion  :       2168.03388673206837 Eh           58995.20132 eV
Electronic Energy  :      -4149.50116834718483 Eh         -112913.66721 eV
One Electron Energy:      -7043.61482182194322 Eh         -191666.50344 eV
Two Electron Energy:       2894.11365347475839 Eh           78752.83623 eV
CPCM Dielectric    :         -0.03585739883650 Eh              -0.97573 eV
SMD CDS (Gcds)     :          0.01533367891666 Eh               0.41725 eV

Virial components:
Potential Energy   :      -3956.63879384966549 Eh         -107665.61519 eV
Kinetic Energy     :       1975.15098851462881 Eh           53746.59082 eV
Virial Ratio       :          2.00320826957395

DFT components:
N(Alpha)           :       86.999820490717 electrons
N(Beta)            :       86.999820490717 electrons
N(Total)           :      173.999640981435 electrons
E(X)               :     -181.427658328827 Eh       
E(C)               :       -5.974033202946 Eh       
E(XC)              :     -187.401691531773 Eh       

CPCM Solvation Model Properties:
Surface-charge          :         -0.04953832509846
Corrected charge        :          0.00000000000000
Outlying charge corr.   :          0.00013318388974 Eh               0.00362 eV
Free-energy (cav+disp)  :          0.01533367891666 Eh               0.41725 eV

---------------
SCF CONVERGENCE
---------------

  Last Energy change         ...    3.8206e-07  Tolerance :   1.0000e-06
  Last MAX-Density change    ...    2.2227e-04  Tolerance :   1.0000e-05
  Last RMS-Density change    ...    5.7424e-06  Tolerance :   1.0000e-06
  Last DIIS Error            ...    2.0987e-04  Tolerance :   1.0000e-06
  Last Orbital Gradient      ...    3.3513e-05  Tolerance :   3.3300e-04
  Last Orbital Rotation      ...    1.2396e-04  Tolerance :   3.3300e-04


----------------
ORBITAL ENERGIES
----------------

  NO   OCC          E(Eh)            E(eV) 
   0   2.0000     -88.582414     -2410.4500 
   1   2.0000     -88.524923     -2408.8856 
   2   2.0000     -76.919659     -2093.0903 
   3   2.0000     -19.010038      -517.2894 
   4   2.0000     -19.005534      -517.1669 
   5   2.0000     -18.994287      -516.8608 
   6   2.0000     -18.991711      -516.7907 
   7   2.0000     -18.952640      -515.7275 
   8   2.0000     -18.947640      -515.5915 
   9   2.0000     -10.173574      -276.8370 
  10   2.0000     -10.173366      -276.8314 
  11   2.0000     -10.097532      -274.7678 
  12   2.0000     -10.086905      -274.4786 
  13   2.0000     -10.086674      -274.4724 
  14   2.0000     -10.082695      -274.3641 
  15   2.0000     -10.079606      -274.2800 
  16   2.0000     -10.061169      -273.7783 
  17   2.0000     -10.019646      -272.6484 
  18   2.0000     -10.017286      -272.5842 
  19   2.0000      -7.876696      -214.3358 
  20   2.0000      -7.819999      -212.7930 
  21   2.0000      -6.597950      -179.5393 
  22   2.0000      -5.823672      -158.4702 
  23   2.0000      -5.820646      -158.3878 
  24   2.0000      -5.813632      -158.1970 
  25   2.0000      -5.767650      -156.9457 
  26   2.0000      -5.760488      -156.7508 
  27   2.0000      -5.759730      -156.7302 
  28   2.0000      -4.743516      -129.0776 
  29   2.0000      -4.742841      -129.0593 
  30   2.0000      -4.741721      -129.0288 
  31   2.0000      -1.090742       -29.6806 
  32   2.0000      -1.085821       -29.5467 
  33   2.0000      -1.050835       -28.5947 
  34   2.0000      -1.008468       -27.4418 
  35   2.0000      -1.001182       -27.2436 
  36   2.0000      -0.995421       -27.0868 
  37   2.0000      -0.814441       -22.1621 
  38   2.0000      -0.754809       -20.5394 
  39   2.0000      -0.737850       -20.0779 
  40   2.0000      -0.730652       -19.8820 
  41   2.0000      -0.690794       -18.7975 
  42   2.0000      -0.667661       -18.1680 
  43   2.0000      -0.664131       -18.0719 
  44   2.0000      -0.651572       -17.7302 
  45   2.0000      -0.629401       -17.1269 
  46   2.0000      -0.594419       -16.1750 
  47   2.0000      -0.538051       -14.6411 
  48   2.0000      -0.528850       -14.3907 
  49   2.0000      -0.523786       -14.2529 
  50   2.0000      -0.506536       -13.7835 
  51   2.0000      -0.488351       -13.2887 
  52   2.0000      -0.485759       -13.2182 
  53   2.0000      -0.468333       -12.7440 
  54   2.0000      -0.462368       -12.5817 
  55   2.0000      -0.457030       -12.4364 
  56   2.0000      -0.449376       -12.2281 
  57   2.0000      -0.444056       -12.0834 
  58   2.0000      -0.439601       -11.9621 
  59   2.0000      -0.425224       -11.5709 
  60   2.0000      -0.417915       -11.3720 
  61   2.0000      -0.416922       -11.3450 
  62   2.0000      -0.410656       -11.1745 
  63   2.0000      -0.401440       -10.9237 
  64   2.0000      -0.390608       -10.6290 
  65   2.0000      -0.386490       -10.5169 
  66   2.0000      -0.370426       -10.0798 
  67   2.0000      -0.367900       -10.0111 
  68   2.0000      -0.360828        -9.8186 
  69   2.0000      -0.352918        -9.6034 
  70   2.0000      -0.343888        -9.3577 
  71   2.0000      -0.342566        -9.3217 
  72   2.0000      -0.338866        -9.2210 
  73   2.0000      -0.326939        -8.8965 
  74   2.0000      -0.320428        -8.7193 
  75   2.0000      -0.314690        -8.5632 
  76   2.0000      -0.308382        -8.3915 
  77   2.0000      -0.307176        -8.3587 
  78   2.0000      -0.289654        -7.8819 
  79   2.0000      -0.285837        -7.7780 
  80   2.0000      -0.281740        -7.6665 
  81   2.0000      -0.278845        -7.5878 
  82   2.0000      -0.270309        -7.3555 
  83   2.0000      -0.261215        -7.1080 
  84   2.0000      -0.234973        -6.3939 
  85   2.0000      -0.227603        -6.1934 
  86   2.0000      -0.219805        -5.9812 
  87   0.0000      -0.050722        -1.3802 
  88   0.0000      -0.028482        -0.7750 
  89   0.0000      -0.025882        -0.7043 
  90   0.0000       0.002805         0.0763 
  91   0.0000       0.011748         0.3197 
  92   0.0000       0.035913         0.9772 
  93   0.0000       0.052326         1.4239 
  94   0.0000       0.072451         1.9715 
  95   0.0000       0.083119         2.2618 
  96   0.0000       0.090257         2.4560 
  97   0.0000       0.092218         2.5094 
*Only the first 10 virtual orbitals were printed.

                    ********************************
                    * MULLIKEN POPULATION ANALYSIS *
                    ********************************

-----------------------
MULLIKEN ATOMIC CHARGES
-----------------------
   0 C :   -0.494950
   1 C :   -0.137819
   2 O :   -0.172063
   3 C :    0.433579
   4 O :   -0.455293
   5 C :   -0.514254
   6 C :    0.038117
   7 H :    0.274476
   8 C :    0.227503
   9 O :   -0.449868
  10 O :   -0.134921
  11 C :   -0.129242
  12 C :   -0.517312
  13 S :   -0.165367
  14 P :    0.839123
  15 S :   -0.538114
  16 O :   -0.378257
  17 C :   -0.310355
  18 O :   -0.379011
  19 C :   -0.307966
  20 H :    0.169826
  21 H :    0.172360
  22 H :    0.167142
  23 H :    0.175313
  24 H :    0.177253
  25 H :    0.228512
  26 H :    0.235278
  27 H :    0.180918
  28 H :    0.176494
  29 H :    0.169413
  30 H :    0.173043
  31 H :    0.174364
  32 H :    0.177728
  33 H :    0.175246
  34 H :    0.176195
  35 H :    0.180143
  36 H :    0.182304
  37 H :    0.180462
Sum of atomic charges:   -0.0000000

--------------------------------
MULLIKEN REDUCED ORBITAL CHARGES
--------------------------------
  0 C s       :     3.336964  s :     3.336964
      pz      :     1.098175  p :     3.132484
      px      :     0.968576
      py      :     1.065733
      dz2     :     0.003276  d :     0.025502
      dxz     :     0.004875
      dyz     :     0.006995
      dx2y2   :     0.003575
      dxy     :     0.006782

  1 C s       :     3.264403  s :     3.264403
      pz      :     1.053710  p :     2.820850
      px      :     0.855379
      py      :     0.911761
      dz2     :     0.006244  d :     0.052567
      dxz     :     0.010668
      dyz     :     0.011932
      dx2y2   :     0.010515
      dxy     :     0.013208

  2 O s       :     3.700967  s :     3.700967
      pz      :     1.622975  p :     4.437938
      px      :     1.393957
      py      :     1.421006
      dz2     :     0.006287  d :     0.033158
      dxz     :     0.005047
      dyz     :     0.010998
      dx2y2   :     0.009615
      dxy     :     0.001210

  3 C s       :     3.127899  s :     3.127899
      pz      :     0.783008  p :     2.312333
      px      :     0.777522
      py      :     0.751803
      dz2     :     0.027063  d :     0.126189
      dxz     :     0.039904
      dyz     :     0.038626
      dx2y2   :     0.011288
      dxy     :     0.009308

  4 O s       :     3.839283  s :     3.839283
      pz      :     1.293489  p :     4.589386
      px      :     1.661748
      py      :     1.634149
      dz2     :     0.009503  d :     0.026624
      dxz     :     0.006714
      dyz     :     0.006110
      dx2y2   :     0.002567
      dxy     :     0.001730

  5 C s       :     3.402399  s :     3.402399
      pz      :     0.993294  p :     3.077730
      px      :     1.005856
      py      :     1.078580
      dz2     :     0.003758  d :     0.034124
      dxz     :     0.009259
      dyz     :     0.008526
      dx2y2   :     0.003040
      dxy     :     0.009541

  6 C s       :     2.989201  s :     2.989201
      pz      :     0.952974  p :     2.929690
      px      :     0.966394
      py      :     1.010322
      dz2     :     0.006387  d :     0.042992
      dxz     :     0.010440
      dyz     :     0.009913
      dx2y2   :     0.005335
      dxy     :     0.010917

  7 H s       :     0.706813  s :     0.706813
      pz      :     0.005139  p :     0.018711
      px      :     0.005558
      py      :     0.008014

  8 C s       :     3.237379  s :     3.237379
      pz      :     0.878529  p :     2.407233
      px      :     0.735464
      py      :     0.793240
      dz2     :     0.022349  d :     0.127885
      dxz     :     0.041636
      dyz     :     0.023011
      dx2y2   :     0.022813
      dxy     :     0.018076

  9 O s       :     3.832845  s :     3.832845
      pz      :     1.788180  p :     4.595795
      px      :     1.359319
      py      :     1.448295
      dz2     :     0.003343  d :     0.021228
      dxz     :     0.001118
      dyz     :     0.002843
      dx2y2   :     0.006072
      dxy     :     0.007853

 10 O s       :     3.687868  s :     3.687868
      pz      :     1.107525  p :     4.389040
      px      :     1.592528
      py      :     1.688987
      dz2     :     0.011862  d :     0.058014
      dxz     :     0.006621
      dyz     :     0.011834
      dx2y2   :     0.016772
      dxy     :     0.010926

 11 C s       :     3.251020  s :     3.251020
      pz      :     0.812991  p :     2.825424
      px      :     1.063402
      py      :     0.949030
      dz2     :     0.011784  d :     0.052799
      dxz     :     0.008673
      dyz     :     0.014320
      dx2y2   :     0.011185
      dxy     :     0.006837

 12 C s       :     3.362231  s :     3.362231
      pz      :     1.110206  p :     3.129614
      px      :     1.099594
      py      :     0.919814
      dz2     :     0.005371  d :     0.025467
      dxz     :     0.002843
      dyz     :     0.005026
      dx2y2   :     0.007935
      dxy     :     0.004292

 13 S s       :     5.922279  s :     5.922279
      pz      :     3.624998  p :    10.143438
      px      :     3.190861
      py      :     3.327579
      dz2     :     0.013302  d :     0.099650
      dxz     :     0.016983
      dyz     :     0.018949
      dx2y2   :     0.016265
      dxy     :     0.034151

 14 P s       :     5.056124  s :     5.056124
      pz      :     2.780796  p :     8.387319
      px      :     2.769132
      py      :     2.837391
      dz2     :     0.134228  d :     0.717433
      dxz     :     0.097045
      dyz     :     0.175808
      dx2y2   :     0.123779
      dxy     :     0.186574

 15 S s       :     5.911438  s :     5.911438
      pz      :     3.688183  p :    10.561512
      px      :     3.723503
      py      :     3.149825
      dz2     :     0.008737  d :     0.065164
      dxz     :     0.003360
      dyz     :     0.016422
      dx2y2   :     0.023950
      dxy     :     0.012695

 16 O s       :     3.759344  s :     3.759344
      pz      :     1.438277  p :     4.588065
      px      :     1.383899
      py      :     1.765888
      dz2     :     0.014682  d :     0.030848
      dxz     :     0.002430
      dyz     :     0.003838
      dx2y2   :     0.003540
      dxy     :     0.006359

 17 C s       :     3.347539  s :     3.347539
      pz      :     0.772346  p :     2.919085
      px      :     1.033078
      py      :     1.113661
      dz2     :     0.012548  d :     0.043731
      dxz     :     0.010138
      dyz     :     0.010188
      dx2y2   :     0.007530
      dxy     :     0.003326

 18 O s       :     3.748682  s :     3.748682
      pz      :     1.198430  p :     4.597135
      px      :     1.666260
      py      :     1.732445
      dz2     :     0.010543  d :     0.033193
      dxz     :     0.003797
      dyz     :     0.000174
      dx2y2   :     0.008668
      dxy     :     0.010011

 19 C s       :     3.346009  s :     3.346009
      pz      :     0.906116  p :     2.918846
      px      :     0.967841
      py      :     1.044889
      dz2     :     0.010448  d :     0.043111
      dxz     :     0.009624
      dyz     :     0.006159
      dx2y2   :     0.010829
      dxy     :     0.006050

 20 H s       :     0.811916  s :     0.811916
      pz      :     0.006724  p :     0.018258
      px      :     0.003674
      py      :     0.007860

 21 H s       :     0.809121  s :     0.809121
      pz      :     0.005009  p :     0.018518
      px      :     0.007005
      py      :     0.006504

 22 H s       :     0.814569  s :     0.814569
      pz      :     0.008870  p :     0.018289
      px      :     0.004679
      py      :     0.004740

 23 H s       :     0.806828  s :     0.806828
      pz      :     0.009643  p :     0.017860
      px      :     0.004161
      py      :     0.004056

 24 H s       :     0.805194  s :     0.805194
      pz      :     0.006513  p :     0.017552
      px      :     0.003052
      py      :     0.007988

 25 H s       :     0.753246  s :     0.753246
      pz      :     0.007941  p :     0.018243
      px      :     0.004713
      py      :     0.005589

 26 H s       :     0.746374  s :     0.746374
      pz      :     0.004804  p :     0.018347
      px      :     0.006072
      py      :     0.007472

 27 H s       :     0.801536  s :     0.801536
      pz      :     0.007360  p :     0.017546
      px      :     0.004593
      py      :     0.005593

 28 H s       :     0.805756  s :     0.805756
      pz      :     0.002441  p :     0.017750
      px      :     0.011990
      py      :     0.003319

 29 H s       :     0.812120  s :     0.812120
      pz      :     0.003681  p :     0.018467
      px      :     0.011202
      py      :     0.003584

 30 H s       :     0.808430  s :     0.808430
      pz      :     0.009642  p :     0.018527
      px      :     0.004433
      py      :     0.004452

 31 H s       :     0.807323  s :     0.807323
      pz      :     0.007575  p :     0.018312
      px      :     0.005172
      py      :     0.005565

 32 H s       :     0.804387  s :     0.804387
      pz      :     0.002410  p :     0.017885
      px      :     0.011220
      py      :     0.004255

 33 H s       :     0.806873  s :     0.806873
      pz      :     0.006952  p :     0.017881
      px      :     0.004668
      py      :     0.006261

 34 H s       :     0.805417  s :     0.805417
      pz      :     0.003244  p :     0.018388
      px      :     0.003374
      py      :     0.011770

 35 H s       :     0.801643  s :     0.801643
      pz      :     0.003048  p :     0.018214
      px      :     0.003033
      py      :     0.012133

 36 H s       :     0.799826  s :     0.799826
      pz      :     0.010086  p :     0.017870
      px      :     0.004067
      py      :     0.003717

 37 H s       :     0.801734  s :     0.801734
      pz      :     0.002811  p :     0.017804
      px      :     0.010642
      py      :     0.004352


------------------------
MULLIKEN OVERLAP CHARGES
------------------------
B(  0-C ,  1-C ) :   0.5305 B(  0-C ,  2-O ) :  -0.1061 B(  0-C , 20-H ) :   0.8398 
B(  0-C , 21-H ) :   0.8039 B(  0-C , 22-H ) :   0.8301 B(  0-C , 23-H ) :  -0.0758 
B(  1-C ,  2-O ) :   0.3064 B(  1-C ,  3-C ) :  -0.1921 B(  1-C , 20-H ) :  -0.0841 
B(  1-C , 21-H ) :  -0.0665 B(  1-C , 22-H ) :  -0.0668 B(  1-C , 23-H ) :   0.8517 
B(  1-C , 24-H ) :   0.8018 B(  2-O ,  3-C ) :   0.5043 B(  2-O ,  4-O ) :  -0.1861 
B(  2-O ,  5-C ) :  -0.1205 B(  2-O , 23-H ) :  -0.0635 B(  2-O , 24-H ) :  -0.0867 
B(  3-C ,  4-O ) :   0.7978 B(  3-C ,  5-C ) :  -0.0971 B(  3-C ,  6-C ) :   0.3689 
B(  3-C ,  8-C ) :  -0.2647 B(  3-C , 25-H ) :  -0.0588 B(  4-O ,  5-C ) :  -0.1904 
B(  4-O ,  6-C ) :  -0.0669 B(  4-O ,  8-C ) :   0.2131 B(  4-O ,  9-O ) :  -0.0681 
B(  5-C ,  6-C ) :  -0.4721 B(  5-C ,  7-H ) :  -0.0748 B(  5-C ,  8-C ) :   0.1267 
B(  5-C ,  9-O ) :   0.1565 B(  5-C , 25-H ) :   0.8409 B(  5-C , 26-H ) :   0.7468 
B(  6-C ,  7-H ) :   0.8819 B(  6-C ,  8-C ) :  -0.3996 B(  6-C ,  9-O ) :  -0.2190 
B(  6-C , 10-O ) :  -0.1592 B(  6-C , 13-S ) :   0.3210 B(  6-C , 14-P ) :  -0.0658 
B(  6-C , 15-S ) :   0.0505 B(  6-C , 25-H ) :  -0.1064 B(  7-H ,  8-C ) :  -0.0810 
B(  7-H , 13-S ) :  -0.0700 B(  8-C ,  9-O ) :   0.9336 B(  8-C , 10-O ) :   0.3041 
B(  8-C , 11-C ) :  -0.2086 B(  8-C , 13-S ) :  -0.1780 B(  9-O , 10-O ) :  -0.1875 
B( 10-O , 11-C ) :   0.2147 B( 10-O , 12-C ) :  -0.0962 B( 10-O , 14-P ) :   0.0812 
B( 10-O , 27-H ) :  -0.0854 B( 10-O , 28-H ) :  -0.0573 B( 11-C , 12-C ) :   0.4457 
B( 11-C , 27-H ) :   0.8134 B( 11-C , 28-H ) :   0.8335 B( 11-C , 29-H ) :  -0.0704 
B( 11-C , 30-H ) :  -0.0793 B( 11-C , 31-H ) :  -0.0884 B( 12-C , 27-H ) :  -0.0531 
B( 12-C , 28-H ) :  -0.0751 B( 12-C , 29-H ) :   0.8227 B( 12-C , 30-H ) :   0.8115 
B( 12-C , 31-H ) :   0.8482 B( 13-S , 14-P ) :   0.7407 B( 13-S , 15-S ) :  -0.1041 
B( 13-S , 16-O ) :  -0.0968 B( 13-S , 18-O ) :  -0.0913 B( 14-P , 15-S ) :   1.1572 
B( 14-P , 16-O ) :   0.4822 B( 14-P , 17-C ) :  -0.1636 B( 14-P , 18-O ) :   0.7350 
B( 14-P , 19-C ) :  -0.1774 B( 15-S , 16-O ) :  -0.1031 B( 15-S , 18-O ) :  -0.0730 
B( 16-O , 17-C ) :   0.3601 B( 16-O , 18-O ) :  -0.2481 B( 16-O , 32-H ) :  -0.0844 
B( 16-O , 33-H ) :  -0.0752 B( 16-O , 34-H ) :  -0.0807 B( 17-C , 32-H ) :   0.7952 
B( 17-C , 33-H ) :   0.8129 B( 17-C , 34-H ) :   0.8263 B( 18-O , 19-C ) :   0.3016 
B( 18-O , 35-H ) :  -0.0748 B( 18-O , 36-H ) :  -0.0781 B( 18-O , 37-H ) :  -0.0716 
B( 19-C , 35-H ) :   0.8243 B( 19-C , 36-H ) :   0.7947 B( 19-C , 37-H ) :   0.8007 
B( 33-H , 34-H ) :  -0.0597 B( 35-H , 37-H ) :  -0.0565 


                     *******************************
                     * LOEWDIN POPULATION ANALYSIS *
                     *******************************

----------------------
LOEWDIN ATOMIC CHARGES
----------------------
   0 C :   -0.390613
   1 C :    0.037538
   2 O :   -0.572945
   3 C :    0.375517
   4 O :   -0.474427
   5 C :   -0.198300
   6 C :   -0.186431
   7 H :    0.217528
   8 C :    0.351748
   9 O :   -0.468842
  10 O :   -0.625521
  11 C :    0.041012
  12 C :   -0.395966
  13 S :    0.249141
  14 P :    0.397530
  15 S :   -0.150280
  16 O :   -0.696189
  17 C :   -0.057443
  18 O :   -0.675399
  19 C :   -0.046310
  20 H :    0.163362
  21 H :    0.168905
  22 H :    0.162572
  23 H :    0.191262
  24 H :    0.190921
  25 H :    0.205536
  26 H :    0.216599
  27 H :    0.192795
  28 H :    0.193237
  29 H :    0.163840
  30 H :    0.167166
  31 H :    0.164591
  32 H :    0.187560
  33 H :    0.175517
  34 H :    0.177265
  35 H :    0.179248
  36 H :    0.189508
  37 H :    0.178768

-------------------------------
LOEWDIN REDUCED ORBITAL CHARGES
-------------------------------
  0 C s       :     2.973673  s :     2.973673
      pz      :     1.153299  p :     3.357082
      px      :     1.065369
      py      :     1.138415
      dz2     :     0.007611  d :     0.059858
      dxz     :     0.011027
      dyz     :     0.017261
      dx2y2   :     0.007520
      dxy     :     0.016439

  1 C s       :     2.872257  s :     2.872257
      pz      :     1.057019  p :     2.972485
      px      :     0.942157
      py      :     0.973310
      dz2     :     0.014450  d :     0.117720
      dxz     :     0.023232
      dyz     :     0.028687
      dx2y2   :     0.022098
      dxy     :     0.029252

  2 O s       :     3.456406  s :     3.456406
      pz      :     1.638711  p :     4.647246
      px      :     1.490673
      py      :     1.517862
      dz2     :     0.087255  d :     0.469292
      dxz     :     0.085113
      dyz     :     0.087279
      dx2y2   :     0.096147
      dxy     :     0.113499

  3 C s       :     2.728999  s :     2.728999
      pz      :     0.990529  p :     2.619873
      px      :     0.817408
      py      :     0.811936
      dz2     :     0.067431  d :     0.275611
      dxz     :     0.085003
      dyz     :     0.082011
      dx2y2   :     0.020000
      dxy     :     0.021166

  4 O s       :     3.534140  s :     3.534140
      pz      :     1.482746  p :     4.685212
      px      :     1.612359
      py      :     1.590106
      dz2     :     0.091118  d :     0.255075
      dxz     :     0.059230
      dyz     :     0.058390
      dx2y2   :     0.022804
      dxy     :     0.023533

  5 C s       :     2.915539  s :     2.915539
      pz      :     1.072234  p :     3.210433
      px      :     1.052900
      py      :     1.085300
      dz2     :     0.006978  d :     0.072328
      dxz     :     0.020814
      dyz     :     0.018468
      dx2y2   :     0.005232
      dxy     :     0.020836

  6 C s       :     2.918513  s :     2.918513
      pz      :     1.054718  p :     3.179194
      px      :     1.051720
      py      :     1.072756
      dz2     :     0.011394  d :     0.088724
      dxz     :     0.021768
      dyz     :     0.020896
      dx2y2   :     0.009547
      dxy     :     0.025120

  7 H s       :     0.733951  s :     0.733951
      pz      :     0.013915  p :     0.048522
      px      :     0.013492
      py      :     0.021114

  8 C s       :     2.731230  s :     2.731230
      pz      :     0.921643  p :     2.637992
      px      :     0.914028
      py      :     0.802320
      dz2     :     0.049480  d :     0.279030
      dxz     :     0.094360
      dyz     :     0.047237
      dx2y2   :     0.044829
      dxy     :     0.043125

  9 O s       :     3.534974  s :     3.534974
      pz      :     1.730249  p :     4.702832
      px      :     1.482869
      py      :     1.489714
      dz2     :     0.036226  d :     0.231036
      dxz     :     0.053381
      dyz     :     0.028827
      dx2y2   :     0.049154
      dxy     :     0.063450

 10 O s       :     3.449343  s :     3.449343
      pz      :     1.328621  p :     4.619002
      px      :     1.624027
      py      :     1.666354
      dz2     :     0.171452  d :     0.557176
      dxz     :     0.139342
      dyz     :     0.116158
      dx2y2   :     0.068808
      dxy     :     0.061417

 11 C s       :     2.867073  s :     2.867073
      pz      :     0.879151  p :     2.973841
      px      :     1.066056
      py      :     1.028634
      dz2     :     0.027142  d :     0.118074
      dxz     :     0.019962
      dyz     :     0.031251
      dx2y2   :     0.027258
      dxy     :     0.012461

 12 C s       :     2.972246  s :     2.972246
      pz      :     1.154127  p :     3.363864
      px      :     1.160415
      py      :     1.049323
      dz2     :     0.013307  d :     0.059856
      dxz     :     0.006948
      dyz     :     0.011762
      dx2y2   :     0.018513
      dxy     :     0.009326

 13 S s       :     5.405218  s :     5.405218
      pz      :     3.538462  p :    10.053238
      px      :     3.172613
      py      :     3.342162
      dz2     :     0.034565  d :     0.292403
      dxz     :     0.056746
      dyz     :     0.052314
      dx2y2   :     0.050073
      dxy     :     0.098706

 14 P s       :     4.656314  s :     4.656314
      pz      :     2.749554  p :     8.384082
      px      :     2.735411
      py      :     2.899117
      dz2     :     0.330629  d :     1.562074
      dxz     :     0.233661
      dyz     :     0.335284
      dx2y2   :     0.304994
      dxy     :     0.357506

 15 S s       :     5.564451  s :     5.564451
      pz      :     3.614233  p :    10.448242
      px      :     3.625956
      py      :     3.208052
      dz2     :     0.020163  d :     0.137587
      dxz     :     0.007585
      dyz     :     0.028967
      dx2y2   :     0.059672
      dxy     :     0.021200

 16 O s       :     3.473134  s :     3.473134
      pz      :     1.501091  p :     4.753105
      px      :     1.531007
      py      :     1.721006
      dz2     :     0.117455  d :     0.469951
      dxz     :     0.118686
      dyz     :     0.075534
      dx2y2   :     0.085708
      dxy     :     0.072568

 17 C s       :     2.916916  s :     2.916916
      pz      :     0.863524  p :     3.036126
      px      :     1.051702
      py      :     1.120899
      dz2     :     0.029953  d :     0.104402
      dxz     :     0.023397
      dyz     :     0.024884
      dx2y2   :     0.019441
      dxy     :     0.006727

 18 O s       :     3.469982  s :     3.469982
      pz      :     1.422656  p :     4.736179
      px      :     1.630216
      py      :     1.683307
      dz2     :     0.151631  d :     0.469238
      dxz     :     0.105854
      dyz     :     0.098761
      dx2y2   :     0.065527
      dxy     :     0.047464

 19 C s       :     2.915534  s :     2.915534
      pz      :     0.957889  p :     3.027874
      px      :     1.003200
      py      :     1.066784
      dz2     :     0.026479  d :     0.102902
      dxz     :     0.022397
      dyz     :     0.012969
      dx2y2   :     0.026916
      dxy     :     0.014141

 20 H s       :     0.792538  s :     0.792538
      pz      :     0.016369  p :     0.044100
      px      :     0.008357
      py      :     0.019374

 21 H s       :     0.786459  s :     0.786459
      pz      :     0.011681  p :     0.044636
      px      :     0.016930
      py      :     0.016025

 22 H s       :     0.793484  s :     0.793484
      pz      :     0.022303  p :     0.043944
      px      :     0.010609
      py      :     0.011032

 23 H s       :     0.765732  s :     0.765732
      pz      :     0.023017  p :     0.043006
      px      :     0.010963
      py      :     0.009026

 24 H s       :     0.768374  s :     0.768374
      pz      :     0.016628  p :     0.040705
      px      :     0.006568
      py      :     0.017509

 25 H s       :     0.748660  s :     0.748660
      pz      :     0.020364  p :     0.045803
      px      :     0.011192
      py      :     0.014247

 26 H s       :     0.737270  s :     0.737270
      pz      :     0.011741  p :     0.046132
      px      :     0.015491
      py      :     0.018900

 27 H s       :     0.766570  s :     0.766570
      pz      :     0.015503  p :     0.040635
      px      :     0.011281
      py      :     0.013851

 28 H s       :     0.764317  s :     0.764317
      pz      :     0.005869  p :     0.042446
      px      :     0.028548
      py      :     0.008029

 29 H s       :     0.791602  s :     0.791602
      pz      :     0.008292  p :     0.044559
      px      :     0.028326
      py      :     0.007940

 30 H s       :     0.788143  s :     0.788143
      pz      :     0.024084  p :     0.044691
      px      :     0.010333
      py      :     0.010274

 31 H s       :     0.791013  s :     0.791013
      pz      :     0.018916  p :     0.044396
      px      :     0.012399
      py      :     0.013081

 32 H s       :     0.771448  s :     0.771448
      pz      :     0.005401  p :     0.040992
      px      :     0.025990
      py      :     0.009602

 33 H s       :     0.782688  s :     0.782688
      pz      :     0.015330  p :     0.041795
      px      :     0.011213
      py      :     0.015251

 34 H s       :     0.779608  s :     0.779608
      pz      :     0.006901  p :     0.043127
      px      :     0.007402
      py      :     0.028824

 35 H s       :     0.778095  s :     0.778095
      pz      :     0.006829  p :     0.042657
      px      :     0.006792
      py      :     0.029036

 36 H s       :     0.769405  s :     0.769405
      pz      :     0.022637  p :     0.041087
      px      :     0.009910
      py      :     0.008540

 37 H s       :     0.779351  s :     0.779351
      pz      :     0.006319  p :     0.041882
      px      :     0.024928
      py      :     0.010634


---------------------------------
LOEWDIN BOND ORDERS (THRESH 0.050000)
---------------------------------
B(  0-C ,  1-C ) :   1.0852 B(  0-C ,  2-O ) :   0.1563 B(  0-C , 20-H ) :   0.9193 
B(  0-C , 21-H ) :   0.9143 B(  0-C , 22-H ) :   0.9228 B(  1-C ,  2-O ) :   1.2921 
B(  1-C ,  3-C ) :   0.0850 B(  1-C ,  4-O ) :   0.0624 B(  1-C , 23-H ) :   0.8169 
B(  1-C , 24-H ) :   0.8284 B(  2-O ,  3-C ) :   1.5006 B(  2-O ,  4-O ) :   0.4491 
B(  2-O ,  5-C ) :   0.1799 B(  2-O , 23-H ) :   0.0912 B(  2-O , 24-H ) :   0.0966 
B(  3-C ,  4-O ) :   2.0875 B(  3-C ,  5-C ) :   0.9059 B(  3-C ,  6-C ) :   0.0672 
B(  4-O ,  5-C ) :   0.1801 B(  4-O ,  8-C ) :   0.0791 B(  4-O ,  9-O ) :   0.0635 
B(  5-C ,  6-C ) :   1.0374 B(  5-C ,  8-C ) :   0.0672 B(  5-C , 13-S ) :   0.1171 
B(  5-C , 25-H ) :   0.8478 B(  5-C , 26-H ) :   0.8314 B(  6-C ,  7-H ) :   0.7999 
B(  6-C ,  8-C ) :   0.8500 B(  6-C ,  9-O ) :   0.1785 B(  6-C , 10-O ) :   0.1648 
B(  6-C , 13-S ) :   1.2129 B(  6-C , 14-P ) :   0.0879 B(  6-C , 15-S ) :   0.0522 
B(  7-H , 13-S ) :   0.0552 B(  8-C ,  9-O ) :   2.1123 B(  8-C , 10-O ) :   1.4574 
B(  8-C , 11-C ) :   0.0851 B(  8-C , 13-S ) :   0.1036 B(  9-O , 10-O ) :   0.4380 
B(  9-O , 11-C ) :   0.0576 B( 10-O , 11-C ) :   1.2853 B( 10-O , 12-C ) :   0.1504 
B( 10-O , 13-S ) :   0.1270 B( 10-O , 14-P ) :   0.0844 B( 10-O , 15-S ) :   0.0536 
B( 10-O , 18-O ) :   0.0853 B( 10-O , 27-H ) :   0.0992 B( 10-O , 28-H ) :   0.0935 
B( 11-C , 12-C ) :   1.0824 B( 11-C , 27-H ) :   0.8239 B( 11-C , 28-H ) :   0.8141 
B( 11-C , 30-H ) :   0.0503 B( 12-C , 29-H ) :   0.9182 B( 12-C , 30-H ) :   0.9135 
B( 12-C , 31-H ) :   0.9174 B( 13-S , 14-P ) :   1.2635 B( 13-S , 15-S ) :   0.1457 
B( 13-S , 16-O ) :   0.1549 B( 13-S , 18-O ) :   0.1348 B( 14-P , 15-S ) :   1.9633 
B( 14-P , 16-O ) :   1.5291 B( 14-P , 17-C ) :   0.0982 B( 14-P , 18-O ) :   1.5454 
B( 14-P , 19-C ) :   0.1035 B( 15-S , 16-O ) :   0.1889 B( 15-S , 17-C ) :   0.0508 
B( 15-S , 18-O ) :   0.1675 B( 16-O , 17-C ) :   1.3551 B( 16-O , 18-O ) :   0.2331 
B( 16-O , 32-H ) :   0.1026 B( 16-O , 33-H ) :   0.1031 B( 16-O , 34-H ) :   0.1030 
B( 17-C , 32-H ) :   0.8577 B( 17-C , 33-H ) :   0.8641 B( 17-C , 34-H ) :   0.8560 
B( 18-O , 19-C ) :   1.3364 B( 18-O , 35-H ) :   0.1019 B( 18-O , 36-H ) :   0.1031 
B( 18-O , 37-H ) :   0.1009 B( 19-C , 35-H ) :   0.8579 B( 19-C , 36-H ) :   0.8568 
B( 19-C , 37-H ) :   0.8637 

------------------------------------------
LOEWDIN REDUCED ORBITAL POPULATIONS PER MO
-------------------------------------------
THRESHOLD FOR PRINTING IS 0.1%%
                      0         1         2         3         4         5   
                 -88.58241 -88.52492 -76.91966 -19.01004 -19.00553 -18.99429
                   2.00000   2.00000   2.00000   2.00000   2.00000   2.00000
                  --------  --------  --------  --------  --------  --------
 2 O  s               0.0       0.0       0.0      99.9       0.0       0.0
10 O  s               0.0       0.0       0.0       0.0      99.9       0.0
13 S  s             100.0       0.0       0.0       0.0       0.0       0.0
14 P  s               0.0       0.0     100.0       0.0       0.0       0.0
15 S  s               0.0     100.0       0.0       0.0       0.0       0.0
18 O  s               0.0       0.0       0.0       0.0       0.0      99.9

                      6         7         8         9        10        11   
                 -18.99171 -18.95264 -18.94764 -10.17357 -10.17337 -10.09753
                   2.00000   2.00000   2.00000   2.00000   2.00000   2.00000
                  --------  --------  --------  --------  --------  --------
 2 O  dxz             0.0       0.0       0.0       0.0       0.1       0.0
 2 O  dxy             0.0       0.0       0.0       0.0       0.1       0.0
 3 C  s               0.0       0.0       0.0       0.0      98.8       0.0
 4 O  s               0.0      99.9       0.0       0.0       0.0       0.0
 4 O  pz              0.0       0.0       0.0       0.0       0.2       0.0
 4 O  dz2             0.0       0.0       0.0       0.0       0.3       0.0
 6 C  s               0.0       0.0       0.0       0.0       0.0      99.6
[...]
34 H  py              0.5       0.0       0.0       0.0       0.0       0.0

                    492       493       494       495       496       497   
                  18.93096  19.27787  21.95834  22.00087  22.01926  22.04101
                   0.00000   0.00000   0.00000   0.00000   0.00000   0.00000
                  --------  --------  --------  --------  --------  --------
 0 C  s               0.0       0.0      99.0       0.0       0.0       0.0
 1 C  s               0.0       0.0       0.1       0.1       0.7       0.1
 3 C  s               0.0       0.1       0.2       0.0       0.0       0.0
 5 C  s               0.0       0.0       0.2       0.2       0.8       0.1
 6 C  s               0.0       0.8       0.1       0.0       0.0       0.0
 8 C  s               0.0       0.0       0.0       0.1       0.0       0.5
11 C  s               0.0       0.0       0.0       0.2       0.5       9.1
12 C  s               0.0       0.0       0.0      45.4       4.3      42.2
13 S  s               0.2      98.0       0.0       0.0       0.0       0.0
13 S  py              0.0       0.1       0.0       0.0       0.0       0.0
14 P  s               0.2       0.1       0.0       0.0       0.0       0.0
14 P  py              0.2       0.0       0.0       0.0       0.0       0.0
15 S  s              98.8       0.2       0.0       0.0       0.0       0.0
15 S  py              0.1       0.0       0.0       0.0       0.0       0.0
17 C  s               0.0       0.0       0.0       0.7      92.4       5.2
19 C  s               0.0       0.0       0.0      52.9       0.9      42.4

                    498       499       500       501       502       503   
                  22.05465  22.14203  22.15222  22.27712  22.39479  22.50860
                   0.00000   0.00000   0.00000   0.00000   0.00000   0.00000
                  --------  --------  --------  --------  --------  --------
 0 C  s               0.1       0.1       0.0       0.2       0.1       0.1
 1 C  s              91.7       4.0       2.8       0.0       0.1       0.1
 2 O  s               0.0       0.0       0.0       0.0       0.2       0.1
 3 C  s               0.3       3.3       2.1      10.7      57.6      24.6
 4 O  s               0.0       0.0       0.0       0.0       0.1       0.1
 5 C  s               6.0      52.5      31.5       0.1       8.0       0.1
 6 C  s               0.0       5.6       1.4      82.0       9.2       0.6
 8 C  s               0.0       0.9       0.5       1.0      23.0      73.0
 9 O  s               0.0       0.0       0.0       0.0       0.0       0.1
11 C  s               0.0      30.0      54.5       4.6       0.8       0.0
12 C  s               0.7       1.4       4.8       0.4       0.1       0.2
13 S  s               0.0       0.0       0.0       0.4       0.2       0.1
17 C  s               0.8       0.3       0.1       0.0       0.0       0.1
19 C  s               0.0       1.4       1.9       0.1       0.0       0.0

                    504       505       506       507       508       509   
                  43.74484  43.77520  43.79903  43.83810  43.90251  43.94990
                   0.00000   0.00000   0.00000   0.00000   0.00000   0.00000
                  --------  --------  --------  --------  --------  --------
 2 O  s              33.0       0.9      63.5       0.9       0.5       1.2
 4 O  s              27.0       0.6      10.6      53.6       1.7       6.3
 9 O  s              25.0       2.5      18.3      26.8      22.7       4.6
10 O  s              13.6       2.1       2.1       0.3       1.6      80.2
16 O  s               0.3      92.1       0.1       3.9       0.0       3.5
18 O  s               0.9       1.8       5.4      14.3      73.4       4.0



                      *****************************
                      * MAYER POPULATION ANALYSIS *
                      *****************************

  NA   - Mulliken gross atomic population
  ZA   - Total nuclear charge
  QA   - Mulliken gross atomic charge
  VA   - Mayer's total valence
  BVA  - Mayer's bonded valence
  FA   - Mayer's free valence

  ATOM       NA         ZA         QA         VA         BVA        FA
  0 C      6.4950     6.0000    -0.4950     3.8172     3.8172     0.0000
  1 C      6.1378     6.0000    -0.1378     3.6269     3.6269     0.0000
  2 O      8.1721     8.0000    -0.1721     1.9605     1.9605     0.0000
  3 C      5.5664     6.0000     0.4336     3.7965     3.7965     0.0000
  4 O      8.4553     8.0000    -0.4553     1.9133     1.9133    -0.0000
  5 C      6.5143     6.0000    -0.5143     3.8844     3.8844    -0.0000
  6 C      5.9619     6.0000     0.0381     3.5132     3.5132    -0.0000
  7 H      0.7255     1.0000     0.2745     0.9115     0.9115    -0.0000
  8 C      5.7725     6.0000     0.2275     3.8868     3.8868    -0.0000
  9 O      8.4499     8.0000    -0.4499     1.9070     1.9070     0.0000
 10 O      8.1349     8.0000    -0.1349     2.0100     2.0100     0.0000
 11 C      6.1292     6.0000    -0.1292     3.5911     3.5911    -0.0000
 12 C      6.5173     6.0000    -0.5173     3.7883     3.7883    -0.0000
 13 S     16.1654    16.0000    -0.1654     2.2345     2.2345     0.0000
 14 P     14.1609    15.0000     0.8391     5.1151     5.1151     0.0000
 15 S     16.5381    16.0000    -0.5381     1.9742     1.9742     0.0000
 16 O      8.3783     8.0000    -0.3783     1.8431     1.8431    -0.0000
 17 C      6.3104     6.0000    -0.3104     3.7425     3.7425    -0.0000
 18 O      8.3790     8.0000    -0.3790     1.9297     1.9297    -0.0000
 19 C      6.3080     6.0000    -0.3080     3.7157     3.7157     0.0000
 20 H      0.8302     1.0000     0.1698     0.9569     0.9569     0.0000
 21 H      0.8276     1.0000     0.1724     0.9578     0.9578    -0.0000
 22 H      0.8329     1.0000     0.1671     0.9578     0.9578     0.0000
 23 H      0.8247     1.0000     0.1753     0.9544     0.9544     0.0000
 24 H      0.8227     1.0000     0.1773     0.9463     0.9463     0.0000
 25 H      0.7715     1.0000     0.2285     0.9367     0.9367    -0.0000
 26 H      0.7647     1.0000     0.2353     0.9339     0.9339    -0.0000
 27 H      0.8191     1.0000     0.1809     0.9484     0.9484    -0.0000
 28 H      0.8235     1.0000     0.1765     0.9538     0.9538    -0.0000
 29 H      0.8306     1.0000     0.1694     0.9584     0.9584    -0.0000
 30 H      0.8270     1.0000     0.1730     0.9565     0.9565    -0.0000
 31 H      0.8256     1.0000     0.1744     0.9560     0.9560    -0.0000
 32 H      0.8223     1.0000     0.1777     0.9496     0.9496    -0.0000
 33 H      0.8248     1.0000     0.1752     0.9490     0.9490     0.0000
 34 H      0.8238     1.0000     0.1762     0.9545     0.9545    -0.0000
 35 H      0.8199     1.0000     0.1801     0.9535     0.9535    -0.0000
 36 H      0.8177     1.0000     0.1823     0.9491     0.9491     0.0000
 37 H      0.8195     1.0000     0.1805     0.9469     0.9469     0.0000

  Mayer bond orders larger than 0.100000
B(  0-C ,  1-C ) :   0.9372 B(  0-C , 20-H ) :   0.9689 B(  0-C , 21-H ) :   0.9590 
B(  0-C , 22-H ) :   0.9690 B(  1-C ,  2-O ) :   0.7832 B(  1-C , 23-H ) :   0.9627 
B(  1-C , 24-H ) :   0.9514 B(  2-O ,  3-C ) :   1.1469 B(  3-C ,  4-O ) :   1.7455 
B(  3-C ,  5-C ) :   0.9462 B(  4-O ,  8-C ) :   0.1368 B(  5-C ,  6-C ) :   0.9000 
B(  5-C , 25-H ) :   0.9620 B(  5-C , 26-H ) :   0.9196 B(  6-C ,  7-H ) :   0.9002 
B(  6-C ,  8-C ) :   0.8143 B(  6-C , 13-S ) :   0.8946 B(  8-C ,  9-O ) :   1.8308 
B(  8-C , 10-O ) :   1.1572 B( 10-O , 11-C ) :   0.7680 B( 11-C , 12-C ) :   0.9034 
B( 11-C , 27-H ) :   0.9548 B( 11-C , 28-H ) :   0.9566 B( 12-C , 29-H ) :   0.9668 
B( 12-C , 30-H ) :   0.9621 B( 12-C , 31-H ) :   0.9725 B( 13-S , 14-P ) :   1.1084 
B( 14-P , 15-S ) :   1.6609 B( 14-P , 16-O ) :   1.0426 B( 14-P , 18-O ) :   1.1718 
B( 16-O , 17-C ) :   0.8273 B( 17-C , 32-H ) :   0.9574 B( 17-C , 33-H ) :   0.9533 
B( 17-C , 34-H ) :   0.9547 B( 18-O , 19-C ) :   0.7921 B( 19-C , 35-H ) :   0.9534 
B( 19-C , 36-H ) :   0.9569 B( 19-C , 37-H ) :   0.9527 

-------
TIMINGS
-------

Total SCF time: 0 days 0 hours 1 min 42 sec 

Total time                  ....     102.139 sec
Sum of individual times     ....     102.104 sec  (100.0%)

SCF preparation             ....       1.019 sec  (  1.0%)
Fock matrix formation       ....      97.822 sec  ( 95.8%)
  Startup                   ....       0.019 sec  (  0.0% of F)
  Split-RI-J                ....      23.715 sec  ( 24.2% of F)
  XC integration            ....      45.211 sec  ( 46.2% of F)
    XC Preparation          ....       0.000 sec  (  0.0% of XC)
    Basis function eval.    ....       6.827 sec  ( 15.1% of XC)
    Density eval.           ....      18.125 sec  ( 40.1% of XC)
    XC-Functional eval.     ....       3.007 sec  (  6.7% of XC)
    XC-Potential eval.      ....      16.503 sec  ( 36.5% of XC)
  CPCM terms                ....      28.679 sec  ( 29.3% of F)
Diagonalization             ....       0.000 sec  (  0.0%)
Density matrix formation    ....       0.105 sec  (  0.1%)
Total Energy calculation    ....       0.016 sec  (  0.0%)
Population analysis         ....       2.115 sec  (  2.1%)
Orbital Transformation      ....       0.129 sec  (  0.1%)
Orbital Orthonormalization  ....       0.000 sec  (  0.0%)
DIIS solution               ....       0.796 sec  (  0.8%)
  MO trafo                  ....       0.000 sec  (  0.0 % of DIIS)
  Orb grad                  ....       0.000 sec  (  0.0 % of DIIS)
  Energy W gradient         ....       0.000 sec  (  0.0 % of DIIS)
  DIIS error                ....       0.126 sec  ( 15.8 % of DIIS)
  DIIS work                 ....       0.601 sec  ( 75.5 % of DIIS)
  Form Q                    ....       0.000 sec  (  0.0 % of DIIS)
  Form QpQm                 ....       0.000 sec  (  0.0 % of DIIS)
  Exp/Cayley                ....       0.000 sec  (  0.0 % of DIIS)
  Orb update                ....       0.000 sec  (  0.0 % of DIIS)
  Wake-sleep                ....       0.004 sec  (  0.5 % of DIIS)
SOSCF solution              ....       0.103 sec  (  0.1%)
  MO trafo                  ....       0.080 sec  ( 77.5 % of SOSCF)
  Orb grad                  ....       0.000 sec  (  0.3 % of SOSCF)
  Rot update                ....       0.000 sec  (  0.1 % of SOSCF)
  Step                      ....       0.023 sec  ( 22.0 % of SOSCF)
Finished LeanSCF after 105.4 sec

Maximum memory used throughout the entire LEANSCF-calculation: 112.0 MB


-------------------------------------------------------------------------------
                          DFT DISPERSION CORRECTION                            
                                                                               
                                DFTD4 V3.4.0                                   
-------------------------------------------------------------------------------
The R2SCAN3C composite method is recognized
Using three-body term ABC
Active option DFTDOPT                   ...         5   

-------------------------   ----------------
Dispersion correction           -0.017608340
-------------------------   ----------------

------------------   -----------------
gCP correction             0.037558424
------------------   -----------------

-------------------------   --------------------
FINAL SINGLE POINT ENERGY     -1981.467855250693
-------------------------   --------------------


------------------------------------------------------------------------------
                              ORCA PROPERTY CALCULATIONS
------------------------------------------------------------------------------

GBWName                                 ... sp_solv.gbw
Number of atoms                         ...     38
Number of basis functions               ...    510
Max core memory                         ...   1024 MB

Electric properties:
Dipole moment                           ... YES
Quadrupole moment                       ...  NO
Static polarizability (Dipole/Dipole)   ...  NO
Static polarizability (Dipole/Quad.)    ...  NO
Static polarizability (Quad./Quad.)     ...  NO
Static polarizability (Velocity)        ...  NO

Atomic electric properties:
Dipole moment                           ...  NO
Quadrupole moment                       ...  NO
Static polarizability                   ...  NO

Choice of electric origin               ... Center of mass
Position of electric origin             ...    -0.000003     0.000004     0.000001

General magnetic properties:
Magnetizability                         ...  NO

EPR properties:
g-Tensor (aka g-matrix)                 ...  NO
Zero-Field splitting spin-orbit         ...  NO
Zero-field splitting spin-spin          ...  NO
Hyperfine couplings                     ...  NO (   0 nuclei)
Quadrupole couplings                    ...  NO (   0 nuclei)
Contact density                         ...  NO (   0 nuclei)

NMR properties:
Chemical shifts                         ...  NO (   0 nuclei)
Spin-rotation constants                 ...  NO (   0 nuclei)
Spin-spin couplings                     ...  NO (   0 nuclei,    0 pairs)

Choice of magnetic origin               ... GIAO
Position of magnetic origin             ...     0.000000     0.000000     0.000000

Properties with geometric perturbations:
SCF Hessian                             ...  NO
IR spectrum                             ...  NO
VCD spectrum                            ...  NO
X-ray spectroscopy properties:
SCF XES/XAS/RIXS spectra                ...  NO


-------------
DIPOLE MOMENT
-------------

Method             : SCF
Type of density    : Electron Density
Multiplicity       :   1
Irrep              :   0
Energy             : -1981.4878053350366827 Eh
Relativity type    : 
Basis              : AO
                                X                 Y                 Z
Electronic contribution:    -11.566040785      -0.639365929      -4.843420560
Nuclear contribution   :     11.239906270      -0.694166015       4.563531764
                        -----------------------------------------
Total Dipole Moment    :     -0.326134515      -1.333531944      -0.279888796
                        -----------------------------------------
Magnitude (a.u.)       :      1.401074197
Magnitude (Debye)      :      3.561247593



--------------------
Rotational spectrum 
--------------------
 
Rotational constants in cm-1:             0.016427             0.006164             0.005302 
Rotational constants in MHz :           492.479171           184.780013           158.942400 

Dipole components along the rotational axes: 
x,y,z [a.u.] :     0.243761    -1.142506     0.773478 
x,y,z [Debye]:     0.619591    -2.904020     1.966026 

 

Dipole moment calculation done in   0.4 sec 

Maximum memory used throughout the entire PROP-calculation: 50.5 MB

--------------------------------
SUGGESTED CITATIONS FOR THIS RUN
--------------------------------

Below you find a list of papers that are relevant to this ORCA run
We neither can nor want to force you to cite these papers, but we appreciate if you do
You receive ORCA, which is the product of decades of hard work by many enthusiastic individuals, for free
The only thing we kindly ask in return is that you cite our papers,
We deeply appreciate it, if you show your appreciation for ORCA by not just citing the generic ORCA reference.

Please note that relegating all ORCA citations to the supporting information does *not* help us.
SI sections are not indexed - citations you put there will not count into any citation statistics
But we need these citations in order to attract the funding resources that allow us to do what we are doing

Therefore, if you are a happy ORCA user, please consider citing a few of the papers listed below in the main body of your paper

In addition to the list printed below, the program has created the file sp_solv.bibtex that contains the list in bibtex format
You can import this file easily into all common literature databanks and citation aid programs


List of essential papers. We consider these as the minimum necessary citations

  1. Neese,F.
     Software update: the ORCA program system, version 5.0
     WIRES Comput. Molec. Sci., 2022 12(1)e1606
     doi.org/10.1002/wcms.1606
  2. Grimme,S.; Hansen,A.; Ehlert,S.; Mewes,J.
     r2SCAN-3c: A 'Swiss army knife' composite electronic-structure method
     J. Chem. Phys., 2021 154 064103
     doi.org/10.1063/5.0040021

List of papers to cite with high priority. The work reported in these papers was absolutely
necessary for this run to complete.
Our perspective: the developers of density functionals and basis sets usually get cited in chemistry papers
Good! But without the algorithms to do something with them, the functionals or basis sets would not do anything.
Hence, in our opinion, the algorithm design and method developments papers are equally worthy of getting cited

  1. Neese,F.
     An improvement of the resolution of the identity approximation for the formation of the Coulomb matrix
     J. Comp. Chem., 2003 24(14)1740-1747
     doi.org/10.1002/jcc.10318
  2. Garcia-Rates,M.; Neese,F.
     Effect of the Solute Cavity on the Solvation Energy and its Derivatives within the Framework of the Gaussian Charge Scheme
     J. Comput. Chem., 2020 41 922-939
     doi.org/10.1002/jcc.26139
  3. Neese,F.
     The SHARK Integral Generation and Digestion System
     J. Comp. Chem., 2022  1-16
     doi.org/10.1002/jcc.26942
  4. Lehtola,S.; Steigemann,C.; Oliveira,M.; Marques,M.
     Recent developments in Libxc - A comprehensive library of functionals for density functional theory
     Software X, 2018 7 
     doi.org/10.1016/j.softx.2017.11.002
  5. Caldeweyher,E.; Bannwarth,C.; Grimme,S.
     Extension of the D3 dispersion coefficient model
     J. Chem. Phys., 2017 147 034112
     doi.org/10.1063/1.4993215
  6. Caldeweyher,E.; Ehlert,S.; Hansen,A.; Neugebauer,H.; Spicher,S.; Bannwarth,C.; Grimme,S.
     A generally applicable atomic-charge dependent London dispersion correction
     J. Chem. Phys., 2019 150 154122
     doi.org/10.1063/1.5090222
  7. Caldeweyher,E.; Mewes,J.; Ehlert,S.; Grimme,S.
     Extension and evaluation of the D4 London-dispersion model for periodic systems
     Phys. Chem. Chem. Phys., 2020 22(16)8499-8512
     doi.org/10.1039/D0CP00502A
  8. Wittmann,L.; Gordiy,I.; Friede,M.; Helmich-Paris,B.; Grimme,S.; Hansen,A.; Bursch,M.
     Extension of the D3 and D4 London Dispersion Corrections to the full Actinides Series
     Phys. Chem. Chem. Phys., 2024 26(32)21379-21394
     doi.org/https://doi.org/10.1039/D4CP01514B 

List of suggested additional citations. These are papers that are important in the 'surrounding' of 
of this run, or papers that preceded the highly important papers. If you like your results we are grateful for a citation.

  1. Neese,F.
     The ORCA program system
     WIRES Comput. Molec. Sci., 2012 2(1)73-78
     doi.org/10.1002/wcms.81
  2. Neese,F.
     Software update: the ORCA program system, version 4.0
     WIRES Comput. Molec. Sci., 2018 8(1)1-6
     doi.org/10.1002/wcms.1327
  3. Neese,F.; Wennmohs,F.; Becker,U.; Riplinger,C.
     The ORCA quantum chemistry program package
     J. Chem. Phys., 2020 152 Art. No. L224108
     doi.org/10.1063/5.0004608

List of optional additional citations

  1. Neese,F.
     Approximate second-order SCF convergence for spin unrestricted wavefunctions
     Chem. Phys. Lett., 2000 325(1-3)93-98
     doi.org/10.1016/s0009-2614(00)00662-x

Timings for individual modules:

Sum of individual times          ...      108.725 sec (=   1.812 min)
Startup calculation              ...        2.619 sec (=   0.044 min)   2.4 %
SCF iterations                   ...      105.643 sec (=   1.761 min)  97.2 %
Property calculations            ...        0.463 sec (=   0.008 min)   0.4 %
                             ****ORCA TERMINATED NORMALLY****
TOTAL RUN TIME: 0 days 0 hours 1 minutes 51 seconds 509 msec
